 Gaussian 09, Revision E.01,
 Gaussian 09:  EM64L-G09RevE.01 30-Nov-2015

 ---------------------------------------------
 #p b3lyp/6-311++G(3df,2p) freq symmetry=Loose
 ---------------------------------------------

 ---------
 b3lyp opt
 ---------
 Symbolic Z-matrix:
 Charge =  2 Multiplicity = 1

                         Standard orientation:
 ---------------------------------------------------------------------
 Center     Atomic      Atomic             Coordinates (Angstroms)
 Number     Number       Type             X           Y           Z
 ---------------------------------------------------------------------
      1          1           0        1.748059    1.433340    0.535661
      2          6           0       -0.246995   -0.789466    0.337890
      3          6           0        1.026344    0.728344    0.110581
      4          6           0       -0.247713    0.789431   -0.338280
      5          6           0        1.026931   -0.727929   -0.110753
      6          1           0        1.749949   -1.432586   -0.533916
      7          6           0       -1.458764   -0.000417    0.000189
      8          1           0       -2.048398    0.426641    0.823817
      9          1           0       -2.048430   -0.427168   -0.823330
 ---------------------------------------------------------------------

 SCF Done:  E(RB3LYP) =  -191.926306884     A.U. after   12 cycles

 The electronic state is 1-A.
 Alpha  occ. eigenvalues --  -10.79964 -10.79955 -10.75522 -10.75490 -10.73072
 Alpha  occ. eigenvalues --   -1.49239  -1.28647  -1.19710  -1.06287  -1.00969
 Alpha  occ. eigenvalues --   -0.96516  -0.96129  -0.95930  -0.93236  -0.83089
 Alpha  occ. eigenvalues --   -0.78305
 Alpha virt. eigenvalues --   -0.60489  -0.55372  -0.51891  -0.51683  -0.33497
 Alpha virt. eigenvalues --   -0.33323  -0.31623  -0.30781  -0.27995  -0.27461
 Alpha virt. eigenvalues --   -0.26080  -0.25928  -0.23721  -0.22815  -0.20633

 Mulliken charges:
               1
     1  H    0.330405
     2  C    0.313921
     3  C    0.193338
     4  C    0.313616
     5  C    0.193846
     6  H    0.330634
     7  C   -0.317247
     8  H    0.320735
     9  H    0.320751
 Sum of Mulliken charges =   2.00000

 Dipole moment (field-independent basis, Debye):
    X=              0.4122    Y=              0.0010    Z=              0.0019  Tot=              0.4122
 Quadrupole moment (field-independent basis, Debye-Ang):
   XX=             -3.6336   YY=            -15.2384   ZZ=            -22.4676
   XY=             -0.0009   XZ=              0.0003   YZ=              2.7683

  Exact polarizability:  51.303  -0.003  40.732  -0.001  -0.737  28.120
 Approx polarizability:  91.808  -0.013  88.886  -0.001  -9.702  48.530

                      1                      2                      3
                      A                      A                      A
 Frequencies --    301.1063               389.2795               432.6798
 Red. masses --      2.7197                 3.8228                 4.0682
 Frc consts  --      0.1453                 0.3413                 0.4487
 IR Inten    --     25.0070                 0.5549                 0.8545

                      4                      5                      6
                      A                      A                      A
 Frequencies --    518.6742               567.5184               790.6555
 Red. masses --      5.4231                 4.4681                 2.1918
 Frc consts  --      0.8596                 0.8479                 0.8073
 IR Inten    --      6.5413                23.8352                 0.2123

                      7                      8                      9
                      A                      A                      A
 Frequencies --    877.1707               974.4628               991.3664
 Red. masses --      1.4304                 1.4740                 1.7971
 Frc consts  --      0.6484                 0.8247                 1.0406
 IR Inten    --     38.0129                 2.7583                39.6377

                     10                     11                     12
                      A                      A                      A
 Frequencies --   1017.0187              1066.1838              1086.9573
 Red. masses --      1.4955                 1.5294                 2.2522
 Frc consts  --      0.9114                 1.0244                 1.5678
 IR Inten    --     32.4711                13.2258                 0.0018

                     13                     14                     15
                      A                      A                      A
 Frequencies --   1125.0464              1142.4428              1380.9178
 Red. masses --      1.2337                 1.2165                 1.1582
 Frc consts  --      0.9201                 0.9355                 1.3013
 IR Inten    --     33.4647                 3.9814                15.6257

                     16                     17                     18
                      A                      A                      A
 Frequencies --   1488.9037              1542.3681              2980.1026
 Red. masses --      4.5843                 7.2396                 1.0521
 Frc consts  --      5.9877                10.1471                 5.5053
 IR Inten    --     54.6658                65.1318               258.0413

                     19                     20                     21
                      A                      A                      A
 Frequencies --   3062.4604              3086.1931              3104.5482
 Red. masses --      1.1200                 1.1022                 1.1137
 Frc consts  --      6.1889                 6.1854                 6.3241
 IR Inten    --    167.6151               221.8730               195.7144

 - Thermochemistry -
 -------------------
 Temperature   298.150 Kelvin.  Pressure   1.00000 Atm.
 Atom     1 has atomic number  1 and mass   1.00783

 Molecular mass:    64.03130 amu.
 Principal axes and moments of inertia in atomic units:
                           1         2         3
     Eigenvalues --   132.73269 256.11370 354.55617
           X            1.00000  -0.00001   0.00002
           Y            0.00001   0.99674   0.08074
           Z           -0.00002  -0.08074   0.99674
 This molecule is an asymmetric top.
 Rotational symmetry number  1.
 Rotational temperatures (Kelvin)      0.65254     0.33819     0.24429
 Rotational constants (GHZ):          13.59681     7.04664     5.09014
 Zero-point vibrational energy     167034.9 (Joules/Mol)
                                   39.92230 (Kcal/Mol)
 Warning -- explicit consideration of   5 degrees of freedom as
           vibrations may cause significant error
 Vibrational temperatures:    433.22   560.09   622.53   746.26   816.53
          (Kelvin)           1137.58  1262.05  1402.03  1426.35  1463.26
                             1534.00  1563.89  1618.69  1643.72  1986.83
                             2142.20  2219.12  4287.70  4406.19  4440.34
                             4466.75

 Zero-point correction=                           0.063620 (Hartree/Particle)
 Thermal correction to Energy=                    0.068229
 Thermal correction to Enthalpy=                  0.069173
 Thermal correction to Gibbs Free Energy=         0.036996
 Sum of electronic and zero-point Energies=           -191.862687
 Sum of electronic and thermal Energies=              -191.858078
 Sum of electronic and thermal Enthalpies=            -191.857134
 Sum of electronic and thermal Free Energies=         -191.889311

                     E (Thermal)             CV                S
                      KCal/Mol        Cal/Mol-Kelvin    Cal/Mol-Kelvin
 Total                   42.814             16.548             67.722
 Electronic               0.000              0.000              0.000
 Translational            0.889              2.981             38.389
 Rotational               0.889              2.981             24.003
 Vibrational             41.037             10.586              5.329
 Vibration     1          0.693              1.672              1.411
 Vibration     2          0.757              1.493              1.003
 Vibration     3          0.794              1.399              0.850
 Vibration     4          0.874              1.209              0.613
 Vibration     5          0.923              1.102              0.509

 Optimization completed.
    -- Stationary point found.
 Normal termination of Gaussian 09 at Mon Jun 20 08:38:38 2016.
