 Gaussian 09, Revision E.01,
 Gaussian 09:  EM64L-G09RevE.01 30-Nov-2015

 ---------------------------------------------
 #p b3lyp/6-311++G(3df,2p) freq symmetry=Loose
 ---------------------------------------------

 ---------
 b3lyp opt
 ---------
 Symbolic Z-matrix:
 Charge =  1 Multiplicity = 4

                         Standard orientation:
 ---------------------------------------------------------------------
 Center     Atomic      Atomic             Coordinates (Angstroms)
 Number     Number       Type             X           Y           Z
 ---------------------------------------------------------------------
      1          6           0       -1.132580   -0.414954    0.000000
      2          6           0        0.000000    0.497568   -0.000000
      3          6           0        0.164980    1.873894   -0.000000
      4          1           0        1.154679    2.313667   -0.000000
      5          1           0       -0.695662    2.530537   -0.000000
      6          6           0        0.882886   -0.660537    0.000000
      7          1           0        1.952656   -0.806408    0.000000
      8          6           0       -0.253270   -1.534290    0.000000
      9          1           0       -0.383769   -2.607882    0.000000
 ---------------------------------------------------------------------

 SCF Done:  E(UB3LYP) =  -192.452984822     A.U. after   15 cycles

 The electronic state is 4-A'.
 Alpha  occ. eigenvalues --  -10.47892 -10.47318 -10.45935 -10.45815 -10.43640
 Alpha  occ. eigenvalues --   -1.16006  -1.00754  -0.88459  -0.85920  -0.74580
 Alpha  occ. eigenvalues --   -0.71067  -0.69645  -0.65109  -0.63151  -0.62287
 Alpha  occ. eigenvalues --   -0.51704  -0.50837  -0.43111
 Alpha virt. eigenvalues --   -0.31023  -0.16036  -0.14778  -0.13373  -0.11732
 Alpha virt. eigenvalues --   -0.10881  -0.10134  -0.09406  -0.08940  -0.07223
 Alpha virt. eigenvalues --   -0.05486  -0.04596  -0.04572  -0.03978  -0.03451

  Beta  occ. eigenvalues --  -10.47484 -10.47140 -10.44973 -10.43407 -10.42581
  Beta  occ. eigenvalues --   -1.13240  -0.98087  -0.84485  -0.84195  -0.73647
  Beta  occ. eigenvalues --   -0.69658  -0.66111  -0.61994  -0.60744  -0.59213
  Beta virt. eigenvalues --   -0.41015  -0.33081  -0.28906  -0.25926  -0.14406
  Beta virt. eigenvalues --   -0.13101  -0.11562  -0.10932  -0.10498  -0.09627
  Beta virt. eigenvalues --   -0.08486  -0.07756  -0.06712  -0.04222  -0.04202

 Mulliken charges and spin densities:
               1          2
     1  C    0.007817   1.607968
     2  C    0.386152  -0.012672
     3  C   -0.443142   0.549020
     4  H    0.240049  -0.017500
     5  H    0.242528  -0.014063
     6  C   -0.022501   0.732207
     7  H    0.297824   0.016949
     8  C   -0.026062   0.145401
     9  H    0.317335  -0.007311
 Sum of Mulliken charges =   1.00000   3.00000

 Dipole moment (field-independent basis, Debye):
    X=              0.9874    Y=              0.4681    Z=             -0.0000  Tot=              1.0928
 Quadrupole moment (field-independent basis, Debye-Ang):
   XX=            -22.5737   YY=             -8.4210   ZZ=            -28.1587
   XY=              0.9409   XZ=             -0.0000   YZ=             -0.0000

  Exact polarizability:  48.684   2.935  76.030  -0.000   0.000  29.692
 Approx polarizability:  80.878   5.014 123.877   0.000  -0.000  44.301

                      1                      2                      3
                     A"                     A'                     A"
 Frequencies --    187.0768               340.3573               378.0784
 Red. masses --      2.8031                 2.4971                 1.0404
 Frc consts  --      0.0578                 0.1704                 0.0876
 IR Inten    --     17.4560                 8.0919                 0.5451

                      4                      5                      6
                     A"                     A"                     A'
 Frequencies --    597.9981               628.4981               737.4456
 Red. masses --      3.1854                 1.3223                 5.0027
 Frc consts  --      0.6711                 0.3077                 1.6029
 IR Inten    --      8.9572                33.1529                 9.5449

                      7                      8                      9
                     A'                     A'                     A"
 Frequencies --    829.5781               895.0829               950.5971
 Red. masses --      4.1684                 1.8227                 1.5895
 Frc consts  --      1.6902                 0.8604                 0.8462
 IR Inten    --     32.9841                12.0735                 1.2114

                     10                     11                     12
                     A'                     A"                     A'
 Frequencies --    993.1691              1003.1927              1094.8502
 Red. masses --      3.4548                 1.4101                 1.6229
 Frc consts  --      2.0078                 0.8361                 1.1462
 IR Inten    --      9.0775                24.9814                 9.0957

                     13                     14                     15
                     A'                     A'                     A'
 Frequencies --   1157.6197              1287.8958              1298.4675
 Red. masses --      1.7946                 3.1506                 2.4498
 Frc consts  --      1.4169                 3.0790                 2.4336
 IR Inten    --      0.6667                64.0520                37.6745

                     16                     17                     18
                     A'                     A'                     A'
 Frequencies --   1452.7201              1573.8639              3141.3422
 Red. masses --      1.2858                 4.5908                 1.0545
 Frc consts  --      1.5988                 6.7000                 6.1309
 IR Inten    --      4.7423                 4.8406                24.4972

                     19                     20                     21
                     A'                     A'                     A'
 Frequencies --   3218.9047              3234.3380              3250.3876
 Red. masses --      1.0926                 1.1067                 1.1217
 Frc consts  --      6.6702                 6.8212                 6.9825
 IR Inten    --     38.1813                27.7261                14.8387

 - Thermochemistry -
 -------------------
 Temperature   298.150 Kelvin.  Pressure   1.00000 Atm.
 Atom     1 has atomic number  6 and mass  12.00000

 Molecular mass:    64.03130 amu.
 Principal axes and moments of inertia in atomic units:
                           1         2         3
     Eigenvalues --   110.09510 359.81578 469.91088
           X            0.10511   0.99446   0.00000
           Y            0.99446  -0.10511   0.00000
           Z            0.00000   0.00000   1.00000
 This molecule is an asymmetric top.
 Rotational symmetry number  1.
 Rotational temperatures (Kelvin)      0.78672     0.24072     0.18432
 Rotational constants (GHZ):          16.39257     5.01574     3.84060
 Zero-point vibrational energy     168981.3 (Joules/Mol)
                                   40.38749 (Kcal/Mol)
 Warning -- explicit consideration of   4 degrees of freedom as
           vibrations may cause significant error
 Vibrational temperatures:    269.16   489.70   543.97   860.38   904.27
          (Kelvin)           1061.02  1193.58  1287.82  1367.70  1428.95
                             1443.37  1575.24  1665.55  1852.99  1868.20
                             2090.14  2264.44  4519.69  4631.28  4653.49
                             4676.58

 Zero-point correction=                           0.064362 (Hartree/Particle)
 Thermal correction to Energy=                    0.069205
 Thermal correction to Enthalpy=                  0.070149
 Thermal correction to Gibbs Free Energy=         0.035923
 Sum of electronic and zero-point Energies=           -192.388623
 Sum of electronic and thermal Energies=              -192.383780
 Sum of electronic and thermal Enthalpies=            -192.382835
 Sum of electronic and thermal Free Energies=         -192.417062

                     E (Thermal)             CV                S
                      KCal/Mol        Cal/Mol-Kelvin    Cal/Mol-Kelvin
 Total                   43.427             16.969             72.036
 Electronic               0.000              0.000              2.755
 Translational            0.889              2.981             38.389
 Rotational               0.889              2.981             24.435
 Vibrational             41.649             11.008              6.457
 Vibration     1          0.632              1.858              2.257
 Vibration     2          0.720              1.595              1.210
 Vibration     3          0.748              1.517              1.047
 Vibration     4          0.956              1.036              0.453

 Optimization completed.
    -- Stationary point found.
 Normal termination of Gaussian 09 at Wed Jul 20 19:17:23 2016.
