 Gaussian 09, Revision E.01,
 Gaussian 09:  EM64L-G09RevE.01 30-Nov-2015

 ---------------------------------------------
 #p b3lyp/6-311++G(3df,2p) freq symmetry=Loose
 ---------------------------------------------

 ---------
 b3lyp opt
 ---------
 Symbolic Z-matrix:
 Charge =  1 Multiplicity = 4

                         Standard orientation:
 ---------------------------------------------------------------------
 Center     Atomic      Atomic             Coordinates (Angstroms)
 Number     Number       Type             X           Y           Z
 ---------------------------------------------------------------------
      1          6           0        1.320092    0.349473    0.000087
      2          1           0        2.190167    1.008889    0.000151
      3          6           0        1.558474   -1.031321    0.000079
      4          1           0        2.431990   -1.667086    0.000122
      5          6           0       -1.086275    0.186258   -0.000064
      6          6           0       -2.107861   -0.507079   -0.000137
      7          1           0       -2.997765   -1.100465   -0.000201
      8          6           0        0.050246    0.956541    0.000019
      9          1           0       -0.032453    2.035429    0.000031
 ---------------------------------------------------------------------

 SCF Done:  E(UB3LYP) =  -192.443491906     A.U. after   16 cycles

 The electronic state is 4-A.
 Alpha  occ. eigenvalues --  -10.47154 -10.45776 -10.44582 -10.44380 -10.43033
 Alpha  occ. eigenvalues --   -1.07773  -1.01426  -0.93892  -0.82836  -0.75688
 Alpha  occ. eigenvalues --   -0.73426  -0.69415  -0.65190  -0.61556  -0.55152
 Alpha  occ. eigenvalues --   -0.52360  -0.48821  -0.44072
 Alpha virt. eigenvalues --   -0.26145  -0.20534  -0.14384  -0.13828  -0.12395
 Alpha virt. eigenvalues --   -0.11308  -0.10619  -0.09657  -0.08986  -0.07027
 Alpha virt. eigenvalues --   -0.06257  -0.05392  -0.04575  -0.03605  -0.02945

  Beta  occ. eigenvalues --  -10.46796 -10.44387 -10.43510 -10.43195 -10.42378
  Beta  occ. eigenvalues --   -1.05274  -0.98195  -0.90133  -0.80004  -0.74405
  Beta  occ. eigenvalues --   -0.72106  -0.67532  -0.63888  -0.55553  -0.51508
  Beta virt. eigenvalues --   -0.43383  -0.31227  -0.30475  -0.19956  -0.19612
  Beta virt. eigenvalues --   -0.13938  -0.12047  -0.10963  -0.10661  -0.10190
  Beta virt. eigenvalues --   -0.08981  -0.07510  -0.06589  -0.05673  -0.04282

 Mulliken charges and spin densities:
               1          2
     1  C    0.017651   0.205195
     2  H    0.216854   0.042936
     3  C   -0.174548   1.658167
     4  H    0.268774   0.001011
     5  C    0.267573   0.168904
     6  C    0.020413   0.528770
     7  H    0.356202  -0.017414
     8  C   -0.180001   0.429815
     9  H    0.207082  -0.017385
 Sum of Mulliken charges =   1.00000   3.00000

 Dipole moment (field-independent basis, Debye):
    X=              0.5639    Y=             -0.4173    Z=              0.0000  Tot=              0.7016
 Quadrupole moment (field-independent basis, Debye-Ang):
   XX=             -4.5587   YY=            -19.9856   ZZ=            -28.2297
   XY=              2.2762   XZ=              0.0015   YZ=              0.0003

  Exact polarizability: 100.617   2.894  52.991   0.004   0.001  30.949
 Approx polarizability: 173.348  12.629  83.446   0.008   0.001  44.417

                      1                      2                      3
                      A                      A                      A
 Frequencies --    142.8959               199.3763               363.9099
 Red. masses --      4.1207                 2.5033                 4.4880
 Frc consts  --      0.0496                 0.0586                 0.3502
 IR Inten    --      2.5552                16.9315                 7.4424

                      4                      5                      6
                      A                      A                      A
 Frequencies --    448.5616               524.3377               614.9836
 Red. masses --      2.5022                 1.1541                 1.4204
 Frc consts  --      0.2966                 0.1869                 0.3165
 IR Inten    --      3.2413                26.7363                13.1210

                      7                      8                      9
                      A                      A                      A
 Frequencies --    642.1446               670.2725               678.7316
 Red. masses --      2.8859                 1.4398                 1.2254
 Frc consts  --      0.7011                 0.3811                 0.3326
 IR Inten    --     14.6409                25.6034                47.6233

                     10                     11                     12
                      A                      A                      A
 Frequencies --    877.2634               958.3537               980.0895
 Red. masses --      1.6220                 1.5141                 3.9502
 Frc consts  --      0.7355                 0.8193                 2.2356
 IR Inten    --     11.4756                 0.3233                 4.2120

                     13                     14                     15
                      A                      A                      A
 Frequencies --   1102.6678              1228.0871              1401.9618
 Red. masses --      2.6479                 1.3368                 1.5995
 Frc consts  --      1.8969                 1.1879                 1.8523
 IR Inten    --     92.5499                38.1858               149.7145

                     16                     17                     18
                      A                      A                      A
 Frequencies --   1476.8073              2035.5147              3086.9887
 Red. masses --      4.2512                 6.9987                 1.0862
 Frc consts  --      5.4628                17.0850                 6.0984
 IR Inten    --    167.8921                17.9057                 8.5609

                     19                     20                     21
                      A                      A                      A
 Frequencies --   3187.3868              3229.8780              3381.3542
 Red. masses --      1.0900                 1.0940                 1.1407
 Frc consts  --      6.5246                 6.7241                 7.6842
 IR Inten    --     25.5630                59.8556               159.8693

 - Thermochemistry -
 -------------------
 Temperature   298.150 Kelvin.  Pressure   1.00000 Atm.
 Atom     1 has atomic number  6 and mass  12.00000

 Molecular mass:    64.03130 amu.
 Principal axes and moments of inertia in atomic units:
                           1         2         3
     Eigenvalues --   135.38897 490.65876 626.04773
           X            0.99990   0.01391  -0.00006
           Y           -0.01391   0.99990  -0.00002
           Z            0.00006   0.00002   1.00000
 This molecule is an asymmetric top.
 Rotational symmetry number  1.
 Rotational temperatures (Kelvin)      0.63974     0.17653     0.13835
 Rotational constants (GHZ):          13.33005     3.67820     2.88275
 Zero-point vibrational energy     162880.9 (Joules/Mol)
                                   38.92948 (Kcal/Mol)
 Warning -- explicit consideration of   6 degrees of freedom as
           vibrations may cause significant error
 Vibrational temperatures:    205.60   286.86   523.58   645.38   754.40
          (Kelvin)            884.82   923.90   964.37   976.54  1262.18
                             1378.86  1410.13  1586.49  1766.94  2017.11
                             2124.79  2928.65  4441.48  4585.93  4647.07
                             4865.01

 Zero-point correction=                           0.062038 (Hartree/Particle)
 Thermal correction to Energy=                    0.067638
 Thermal correction to Enthalpy=                  0.068582
 Thermal correction to Gibbs Free Energy=         0.032583
 Sum of electronic and zero-point Energies=           -192.381454
 Sum of electronic and thermal Energies=              -192.375854
 Sum of electronic and thermal Enthalpies=            -192.374910
 Sum of electronic and thermal Free Energies=         -192.410909

                     E (Thermal)             CV                S
                      KCal/Mol        Cal/Mol-Kelvin    Cal/Mol-Kelvin
 Total                   42.443             19.540             75.765
 Electronic               0.000              0.000              2.755
 Translational            0.889              2.981             38.389
 Rotational               0.889              2.981             25.234
 Vibrational             40.666             13.578              9.387
 Vibration     1          0.616              1.910              2.765
 Vibration     2          0.638              1.841              2.139
 Vibration     3          0.737              1.547              1.105
 Vibration     4          0.808              1.364              0.800
 Vibration     5          0.879              1.196              0.600
 Vibration     6          0.974              1.000              0.425

 Optimization completed.
    -- Stationary point found.
 Normal termination of Gaussian 09 at Wed Jul 20 11:28:46 2016.
