 Gaussian 09, Revision E.01,
 Gaussian 09:  EM64L-G09RevE.01 30-Nov-2015

 ---------------------------------------------
 #p b3lyp/6-311++G(3df,2p) freq symmetry=Loose
 ---------------------------------------------

 ---------
 b3lyp opt
 ---------
 Symbolic Z-matrix:
 Charge =  3 Multiplicity = 2

                         Standard orientation:
 ---------------------------------------------------------------------
 Center     Atomic      Atomic             Coordinates (Angstroms)
 Number     Number       Type             X           Y           Z
 ---------------------------------------------------------------------
      1          6           0       -0.000950    0.762522    0.000000
      2          6           0       -0.000643    2.079914    0.000000
      3          6           0       -0.000950   -0.331024    1.048811
      4          1           0       -0.005554   -0.285478    2.158115
      5          6           0       -0.000950   -0.331024   -1.048811
      6          1           0       -0.005554   -0.285478   -2.158115
      7          6           0        0.002873   -1.357248   -0.000000
      8          1           0        0.817506   -2.179721   -0.000000
      9          1           0       -0.802683   -2.188165   -0.000000
 ---------------------------------------------------------------------

 SCF Done:  E(UB3LYP) =  -191.027075965     A.U. after   18 cycles

 The electronic state is 2-A'.
 Alpha  occ. eigenvalues --  -11.13294 -11.02404 -11.02403 -10.97839 -10.91056
 Alpha  occ. eigenvalues --   -1.64111  -1.52317  -1.38108  -1.33358  -1.22855
 Alpha  occ. eigenvalues --   -1.17016  -1.15926  -1.13314  -1.10446  -1.10047
 Alpha  occ. eigenvalues --   -1.04772
 Alpha virt. eigenvalues --   -0.89050  -0.86275  -0.84050  -0.66331  -0.55298
 Alpha virt. eigenvalues --   -0.52251  -0.50946  -0.49972  -0.47662  -0.47456
 Alpha virt. eigenvalues --   -0.45285  -0.42717  -0.40758  -0.40259  -0.38959

  Beta  occ. eigenvalues --  -11.10691 -11.02397 -11.02396 -10.97739 -10.91098
  Beta  occ. eigenvalues --   -1.64028  -1.49767  -1.38154  -1.32895  -1.22898
  Beta  occ. eigenvalues --   -1.15711  -1.13637  -1.12625  -1.10032  -1.03331
  Beta virt. eigenvalues --   -0.91472  -0.85187  -0.84108  -0.84071  -0.64845
  Beta virt. eigenvalues --   -0.55272  -0.51589  -0.50955  -0.49962  -0.47929
  Beta virt. eigenvalues --   -0.47570  -0.45096  -0.42668  -0.40221  -0.40144

 Mulliken charges and spin densities:
               1          2
     1  C    0.405287  -0.041813
     2  C    0.468310   1.064710
     3  C    0.485407   0.024801
     4  H    0.433404  -0.001401
     5  C    0.485407   0.024801
     6  H    0.433404  -0.001401
     7  C   -0.368790  -0.022255
     8  H    0.328919  -0.023815
     9  H    0.328651  -0.023627
 Sum of Mulliken charges =   3.00000   1.00000

 Dipole moment (field-independent basis, Debye):
    X=              0.0047    Y=              0.5006    Z=             -0.0000  Tot=              0.5006
 Quadrupole moment (field-independent basis, Debye-Ang):
   XX=            -20.7491   YY=             14.3883   ZZ=             -3.9535
   XY=             -0.0430   XZ=              0.0000   YZ=              0.0000

  Exact polarizability:  24.969  -0.074  67.145   0.000  -0.000  37.606
 Approx polarizability:  38.076  -0.182 161.661   0.000   0.000  60.779

                      1                      2                      3
                     A'                     A"                     A'
 Frequencies --    128.8184               286.7285               345.4773
 Red. masses --      1.8784                 6.0278                 4.1308
 Frc consts  --      0.0184                 0.2920                 0.2905
 IR Inten    --      4.6644                 4.4506                17.5897

                      4                      5                      6
                     A'                     A'                     A"
 Frequencies --    503.6779               687.8932               760.8186
 Red. masses --      1.2820                 5.6016                 1.0239
 Frc consts  --      0.1916                 1.5617                 0.3492
 IR Inten    --     88.6347                40.4615                 0.0052

                      7                      8                      9
                     A"                     A'                     A"
 Frequencies --    794.6932               831.5398               862.0234
 Red. masses --      4.4073                 1.4310                 1.9485
 Frc consts  --      1.6399                 0.5830                 0.8531
 IR Inten    --     61.4964               687.9864                30.7985

                     10                     11                     12
                     A'                     A'                     A'
 Frequencies --    896.6147              1009.2583              1049.8214
 Red. masses --      2.2389                 2.0839                 1.9472
 Frc consts  --      1.0605                 1.2507                 1.2644
 IR Inten    --      1.0363                 1.4149                23.5456

                     13                     14                     15
                     A"                     A"                     A"
 Frequencies --   1091.9138              1161.3824              1236.0227
 Red. masses --      1.3414                 1.2496                 2.3935
 Frc consts  --      0.9423                 0.9930                 2.1545
 IR Inten    --      0.0011                 6.0577               183.3607

                     16                     17                     18
                     A'                     A'                     A'
 Frequencies --   1286.9859              1510.3386              2389.0885
 Red. masses --      2.0869                 9.4586                 1.0669
 Frc consts  --      2.0366                12.7124                 3.5879
 IR Inten    --      2.1762               294.9336               345.9637

                     19                     20                     21
                     A'                     A"                     A'
 Frequencies --   2539.0562              2965.3402              2966.3145
 Red. masses --      1.0848                 1.1054                 1.1102
 Frc consts  --      4.1203                 5.7267                 5.7555
 IR Inten    --   1234.8477               475.8800                 5.4000

 - Thermochemistry -
 -------------------
 Temperature   298.150 Kelvin.  Pressure   1.00000 Atm.
 Atom     1 has atomic number  6 and mass  12.00000

 Molecular mass:    64.03130 amu.
 Principal axes and moments of inertia in atomic units:
                           1         2         3
     Eigenvalues --   132.52544 336.93477 460.01114
           X           -0.00094   0.00000   1.00000
           Y            1.00000  -0.00000   0.00094
           Z            0.00000   1.00000  -0.00000
 This molecule is an asymmetric top.
 Rotational symmetry number  1.
 Rotational temperatures (Kelvin)      0.65356     0.25706     0.18829
 Rotational constants (GHZ):          13.61807     5.35635     3.92326
 Zero-point vibrational energy     151350.4 (Joules/Mol)
                                   36.17361 (Kcal/Mol)
 Warning -- explicit consideration of   4 degrees of freedom as
           vibrations may cause significant error
 Vibrational temperatures:    185.34   412.54   497.06   724.68   989.72
          (Kelvin)           1094.65  1143.38  1196.40  1240.26  1290.03
                             1452.10  1510.46  1571.02  1670.97  1778.36
                             1851.68  2173.04  3437.36  3653.13  4266.46
                             4267.86

 Zero-point correction=                           0.057646 (Hartree/Particle)
 Thermal correction to Energy=                    0.062802
 Thermal correction to Enthalpy=                  0.063746
 Thermal correction to Gibbs Free Energy=         0.029437
 Sum of electronic and zero-point Energies=           -190.969430
 Sum of electronic and thermal Energies=              -190.964274
 Sum of electronic and thermal Enthalpies=            -190.963330
 Sum of electronic and thermal Free Energies=         -190.997639

                     E (Thermal)             CV                S
                      KCal/Mol        Cal/Mol-Kelvin    Cal/Mol-Kelvin
 Total                   39.409             17.924             72.209
 Electronic               0.000              0.000              1.377
 Translational            0.889              2.981             38.389
 Rotational               0.889              2.981             24.533
 Vibrational             37.631             11.963              7.909
 Vibration     1          0.611              1.924              2.964
 Vibration     2          0.684              1.698              1.493
 Vibration     3          0.724              1.584              1.187
 Vibration     4          0.859              1.242              0.649

 Normal termination of Gaussian 09 at Wed Jul 20 03:58:58 2016.
