 Gaussian 09, Revision E.01,
 Gaussian 09:  EM64L-G09RevE.01 30-Nov-2015

 ---------------------------------------------
 #p b3lyp/6-311++G(3df,2p) freq symmetry=Loose
 ---------------------------------------------

 ---------
 b3lyp opt
 ---------
 Symbolic Z-matrix:
 Charge =  3 Multiplicity = 4

                         Standard orientation:
 ---------------------------------------------------------------------
 Center     Atomic      Atomic             Coordinates (Angstroms)
 Number     Number       Type             X           Y           Z
 ---------------------------------------------------------------------
      1          6           0        0.338895   -1.104546    0.249397
      2          6           0       -1.098698   -0.698388    0.016185
      3          1           0       -1.940784   -1.364957   -0.312309
      4          6           0       -1.011125    0.740833   -0.089047
      5          1           0       -1.807700    1.508775   -0.170322
      6          6           0        0.499003    0.969493    0.033595
      7          1           0        0.826315    1.750031    0.812152
      8          6           0        1.352804   -0.173281   -0.192029
      9          1           0        2.436899   -0.298512   -0.438127
 ---------------------------------------------------------------------

 SCF Done:  E(UB3LYP) =  -191.026852984     A.U. after   17 cycles

 The electronic state is 4-A.
 Alpha  occ. eigenvalues --  -11.09077 -11.04163 -11.01698 -11.01620 -11.01320
 Alpha  occ. eigenvalues --   -1.68203  -1.51436  -1.46099  -1.30294  -1.28862
 Alpha  occ. eigenvalues --   -1.23767  -1.18288  -1.17578  -1.14880  -1.10817
 Alpha  occ. eigenvalues --   -1.04542  -1.01163
 Alpha virt. eigenvalues --   -0.89252  -0.78590  -0.75335  -0.58082  -0.54939
 Alpha virt. eigenvalues --   -0.52566  -0.51266  -0.50048  -0.49503  -0.47257
 Alpha virt. eigenvalues --   -0.43273  -0.42512  -0.41754  -0.40613  -0.39998

  Beta  occ. eigenvalues --  -11.07005 -11.03533 -11.00908 -11.00734 -11.00464
  Beta  occ. eigenvalues --   -1.64600  -1.47832  -1.42322  -1.27626  -1.25956
  Beta  occ. eigenvalues --   -1.20563  -1.16484  -1.14632  -1.13221
  Beta virt. eigenvalues --   -0.98612  -0.88271  -0.88204  -0.82419  -0.71936
  Beta virt. eigenvalues --   -0.68116  -0.55459  -0.52738  -0.51613  -0.49571
  Beta virt. eigenvalues --   -0.48604  -0.47290  -0.46249  -0.42459  -0.41665

 Mulliken charges and spin densities:
               1          2
     1  C    0.577138   1.079491
     2  C    0.107989   0.564676
     3  H    0.365777   0.011597
     4  C    0.276085   0.522095
     5  H    0.381253  -0.000227
     6  C    0.271169   0.344305
     7  H    0.322170   0.048307
     8  C    0.300707   0.412530
     9  H    0.397712   0.017227
 Sum of Mulliken charges =   3.00000   3.00000

 Dipole moment (field-independent basis, Debye):
    X=              0.1797    Y=              0.6803    Z=              0.0702  Tot=              0.7072
 Quadrupole moment (field-independent basis, Debye-Ang):
   XX=              5.8272   YY=             -2.8631   ZZ=            -20.4803
   XY=              1.0072   XZ=              0.4165   YZ=              1.7934

  Exact polarizability:  48.270   1.011  48.890   0.157   0.229  23.186
 Approx polarizability:  76.443   2.542 101.718  -0.754  -3.590  36.540

                      1                      2                      3
                      A                      A                      A
 Frequencies --    227.0160               414.7775               454.1236
 Red. masses --      1.7280                 2.6114                 2.1567
 Frc consts  --      0.0525                 0.2647                 0.2620
 IR Inten    --     11.6897                 1.8296                26.0017

                      4                      5                      6
                      A                      A                      A
 Frequencies --    560.8494               704.2167               716.7333
 Red. masses --      3.5668                 2.4249                 2.1886
 Frc consts  --      0.6610                 0.7085                 0.6624
 IR Inten    --     20.6556                10.1933                14.2410

                      7                      8                      9
                      A                      A                      A
 Frequencies --    805.8458               827.7153               861.3538
 Red. masses --      1.9973                 1.7617                 2.4320
 Frc consts  --      0.7642                 0.7111                 1.0631
 IR Inten    --     50.6090                15.1812                 7.9568

                     10                     11                     12
                      A                      A                      A
 Frequencies --    927.3660               976.5498              1019.5752
 Red. masses --      2.0057                 1.3868                 1.7552
 Frc consts  --      1.0163                 0.7792                 1.0750
 IR Inten    --      7.3735                12.1724                22.6806

                     13                     14                     15
                      A                      A                      A
 Frequencies --   1058.9652              1077.3844              1160.9481
 Red. masses --      1.9231                 1.3118                 2.4610
 Frc consts  --      1.2706                 0.8972                 1.9543
 IR Inten    --     24.2846                19.1096                27.2405

                     16                     17                     18
                      A                      A                      A
 Frequencies --   1200.7360              1240.3736              2481.7521
 Red. masses --      2.7390                 2.5499                 1.0713
 Frc consts  --      2.3267                 2.3114                 3.8877
 IR Inten    --     55.5194                59.6184               759.1821

                     19                     20                     21
                      A                      A                      A
 Frequencies --   2744.3635              2841.5835              2954.8882
 Red. masses --      1.0841                 1.0992                 1.1043
 Frc consts  --      4.8105                 5.2295                 5.6808
 IR Inten    --    831.0525               511.1014               313.9116

 - Thermochemistry -
 -------------------
 Temperature   298.150 Kelvin.  Pressure   1.00000 Atm.
 Atom     1 has atomic number  6 and mass  12.00000

 Molecular mass:    64.03130 amu.
 Principal axes and moments of inertia in atomic units:
                           1         2         3
     Eigenvalues --   172.45383 246.68090 403.31182
           X            0.99954   0.02902   0.00833
           Y           -0.02932   0.99881   0.03901
           Z           -0.00718  -0.03924   0.99920
 This molecule is an asymmetric top.
 Rotational symmetry number  1.
 Rotational temperatures (Kelvin)      0.50224     0.35112     0.21476
 Rotational constants (GHZ):          10.46507     7.31610     4.47480
 Zero-point vibrational energy     151071.1 (Joules/Mol)
                                   36.10686 (Kcal/Mol)
 Warning -- explicit consideration of   4 degrees of freedom as
           vibrations may cause significant error
 Vibrational temperatures:    326.62   596.77   653.38   806.94  1013.21
          (Kelvin)           1031.22  1159.43  1190.90  1239.29  1334.27
                             1405.04  1466.94  1523.61  1550.11  1670.34
                             1727.59  1784.62  3570.68  3948.52  4088.40
                             4251.42

 Zero-point correction=                           0.057540 (Hartree/Particle)
 Thermal correction to Energy=                    0.062288
 Thermal correction to Enthalpy=                  0.063232
 Thermal correction to Gibbs Free Energy=         0.029338
 Sum of electronic and zero-point Energies=           -190.969313
 Sum of electronic and thermal Energies=              -190.964565
 Sum of electronic and thermal Enthalpies=            -190.963621
 Sum of electronic and thermal Free Energies=         -190.997515

                     E (Thermal)             CV                S
                      KCal/Mol        Cal/Mol-Kelvin    Cal/Mol-Kelvin
 Total                   39.086             17.548             71.337
 Electronic               0.000              0.000              2.755
 Translational            0.889              2.981             38.389
 Rotational               0.889              2.981             24.354
 Vibrational             37.309             11.586              5.839
 Vibration     1          0.651              1.800              1.902
 Vibration     2          0.778              1.438              0.910
 Vibration     3          0.813              1.352              0.783
 Vibration     4          0.917              1.116              0.522

 Normal termination of Gaussian 09 at Mon Jun 20 13:14:34 2016.
