 Gaussian 09, Revision E.01,
 Gaussian 09:  EM64L-G09RevE.01 30-Nov-2015

 ---------------------------------------------
 #p b3lyp/6-311++G(3df,2p) freq symmetry=Loose
 ---------------------------------------------

 ---------
 b3lyp opt
 ---------
 Symbolic Z-matrix:
 Charge =  1 Multiplicity = 2

                         Standard orientation:
 ---------------------------------------------------------------------
 Center     Atomic      Atomic             Coordinates (Angstroms)
 Number     Number       Type             X           Y           Z
 ---------------------------------------------------------------------
      1          6           0        0.669016   -1.049502    0.000440
      2          6           0       -1.196679    0.256783    0.000500
      3          1           0       -1.821015    0.436005    0.880108
      4          1           0       -1.825189    0.438492   -0.875450
      5          6           0        0.091376    1.086935   -0.000328
      6          1           0        0.127257    2.171949   -0.002365
      7          6           0       -0.577347   -1.120969   -0.001329
      8          6           0        1.223458    0.229998    0.000323
      9          1           0        2.259999    0.534082    0.000069
 ---------------------------------------------------------------------

 SCF Done:  E(UB3LYP) =  -192.468667757     A.U. after   21 cycles

 The electronic state is 2-A.
 Alpha  occ. eigenvalues --  -10.48217 -10.47842 -10.46433 -10.45417 -10.45009
 Alpha  occ. eigenvalues --   -1.15038  -0.97901  -0.96851  -0.82466  -0.74864
 Alpha  occ. eigenvalues --   -0.73707  -0.69817  -0.64794  -0.63929  -0.58706
 Alpha  occ. eigenvalues --   -0.51540  -0.51115
 Alpha virt. eigenvalues --   -0.36211  -0.30539  -0.17223  -0.15838  -0.12895
 Alpha virt. eigenvalues --   -0.12143  -0.11976  -0.10465  -0.08737  -0.08177
 Alpha virt. eigenvalues --   -0.07250  -0.06111  -0.05760  -0.03720  -0.02954

  Beta  occ. eigenvalues --  -10.47713 -10.47457 -10.46029 -10.45085 -10.45077
  Beta  occ. eigenvalues --   -1.13834  -0.96695  -0.95623  -0.81662  -0.74478
  Beta  occ. eigenvalues --   -0.73000  -0.68331  -0.64392  -0.63670  -0.56689
  Beta  occ. eigenvalues --   -0.50987
  Beta virt. eigenvalues --   -0.40793  -0.35499  -0.26773  -0.15753  -0.14642
  Beta virt. eigenvalues --   -0.12810  -0.11939  -0.11851  -0.10278  -0.08663
  Beta virt. eigenvalues --   -0.08014  -0.07110  -0.05821  -0.05242  -0.03644

 Mulliken charges and spin densities:
               1          2
     1  C    0.628126   0.232259
     2  C   -0.359751  -0.070252
     3  H    0.205376   0.001532
     4  H    0.204982   0.001524
     5  C   -0.017987   0.548778
     6  H    0.239839  -0.013931
     7  C   -0.089671   0.222022
     8  C   -0.065442   0.082664
     9  H    0.254528  -0.004596
 Sum of Mulliken charges =   1.00000   1.00000

 Dipole moment (field-independent basis, Debye):
    X=              0.1002    Y=              1.9951    Z=              0.0032  Tot=              1.9976
 Quadrupole moment (field-independent basis, Debye-Ang):
   XX=            -17.0281   YY=            -21.3578   ZZ=            -26.3408
   XY=             -0.2137   XZ=             -0.0051   YZ=             -0.0082

  Exact polarizability:  58.128   1.567  53.780   0.005  -0.016  31.863
 Approx polarizability: 123.209   6.235  92.582   0.055  -0.002  46.568

                      1                      2                      3
                      A                      A                      A
 Frequencies --    163.0125               328.8690               357.9862
 Red. masses --      2.0486                 3.0949                10.1930
 Frc consts  --      0.0321                 0.1972                 0.7696
 IR Inten    --      5.8748                 0.1050               112.9114

                      4                      5                      6
                      A                      A                      A
 Frequencies --    582.7743               766.6566               879.1568
 Red. masses --      1.1416                 5.9246                 2.6773
 Frc consts  --      0.2284                 2.0517                 1.2192
 IR Inten    --      8.6471                 5.6252                 3.6001

                      7                      8                      9
                      A                      A                      A
 Frequencies --    881.9792               942.7819               972.8398
 Red. masses --      1.5916                 4.9146                 1.6671
 Frc consts  --      0.7295                 2.5737                 0.9296
 IR Inten    --      0.0739                 5.2068                 1.5409

                     10                     11                     12
                      A                      A                      A
 Frequencies --   1078.7729              1131.0270              1201.7817
 Red. masses --      1.5387                 1.1073                 2.6263
 Frc consts  --      1.0551                 0.8346                 2.2349
 IR Inten    --      9.3747                 0.2606                14.4381

                     13                     14                     15
                      A                      A                      A
 Frequencies --   1237.7233              1336.8926              1369.9568
 Red. masses --      1.3657                 2.1557                 1.6924
 Frc consts  --      1.2327                 2.2701                 1.8714
 IR Inten    --     11.0968                34.6836                 0.5332

                     16                     17                     18
                      A                      A                      A
 Frequencies --   1411.5305              1927.4237              3047.1568
 Red. masses --      1.3428                11.3571                 1.0600
 Frc consts  --      1.5763                24.8582                 5.7991
 IR Inten    --     62.6280                60.2761                27.6352

                     19                     20                     21
                      A                      A                      A
 Frequencies --   3080.3234              3172.2746              3227.6534
 Red. masses --      1.1008                 1.0930                 1.0997
 Frc consts  --      6.1541                 6.4804                 6.7497
 IR Inten    --     20.9434                 7.4117                15.0539

 - Thermochemistry -
 -------------------
 Temperature   298.150 Kelvin.  Pressure   1.00000 Atm.
 Atom     1 has atomic number  6 and mass  12.00000

 Molecular mass:    64.03130 amu.
 Principal axes and moments of inertia in atomic units:
                           1         2         3
     Eigenvalues --   180.97509 207.17268 377.05537
           X            0.99970  -0.02445  -0.00009
           Y            0.02445   0.99970  -0.00011
           Z            0.00009   0.00010   1.00000
 This molecule is an asymmetric top.
 Rotational symmetry number  1.
 Rotational temperatures (Kelvin)      0.47860     0.41808     0.22971
 Rotational constants (GHZ):           9.97232     8.71129     4.78641
 Zero-point vibrational energy     174048.1 (Joules/Mol)
                                   41.59850 (Kcal/Mol)
 Warning -- explicit consideration of   4 degrees of freedom as
           vibrations may cause significant error
 Vibrational temperatures:    234.54   473.17   515.06   838.48  1103.05
          (Kelvin)           1264.91  1268.97  1356.45  1399.70  1552.11
                             1627.29  1729.09  1780.81  1923.49  1971.06
                             2030.88  2773.13  4384.17  4431.89  4564.19
                             4643.87

 Zero-point correction=                           0.066291 (Hartree/Particle)
 Thermal correction to Energy=                    0.071050
 Thermal correction to Enthalpy=                  0.071994
 Thermal correction to Gibbs Free Energy=         0.038573
 Sum of electronic and zero-point Energies=           -192.402376
 Sum of electronic and thermal Energies=              -192.397618
 Sum of electronic and thermal Enthalpies=            -192.396673
 Sum of electronic and thermal Free Energies=         -192.430095

                     E (Thermal)             CV                S
                      KCal/Mol        Cal/Mol-Kelvin    Cal/Mol-Kelvin
 Total                   44.585             16.013             70.342
 Electronic               0.000              0.000              1.377
 Translational            0.889              2.981             38.389
 Rotational               0.889              2.981             24.162
 Vibrational             42.807             10.051              6.413
 Vibration     1          0.623              1.888              2.515
 Vibration     2          0.712              1.618              1.266
 Vibration     3          0.733              1.559              1.131
 Vibration     4          0.940              1.069              0.480

 Normal termination of Gaussian 09 at Mon Jun 20 04:58:09 2016.
