 Gaussian 09, Revision E.01,
 Gaussian 09:  EM64L-G09RevE.01 30-Nov-2015

 ---------------------------------------------
 #p b3lyp/6-311++G(3df,2p) freq symmetry=Loose
 ---------------------------------------------

 ---------
 b3lyp opt
 ---------
 Symbolic Z-matrix:
 Charge =  0 Multiplicity = 1

                         Standard orientation:
 ---------------------------------------------------------------------
 Center     Atomic      Atomic             Coordinates (Angstroms)
 Number     Number       Type             X           Y           Z
 ---------------------------------------------------------------------
      1          6           0        1.287917    0.028850    0.000172
      2          1           0        1.944070   -0.018121    0.875247
      3          1           0        1.944304   -0.018104   -0.874728
      4          6           0        0.246840    1.071700    0.000044
      5          6           0       -0.981499    0.980977   -0.000121
      6          6           0        0.367030   -1.181859    0.000037
      7          6           0       -1.041101   -0.567560   -0.000145
      8          1           0       -1.581636   -0.978200   -0.862185
      9          1           0       -1.581866   -0.978217    0.861742
 ---------------------------------------------------------------------

 SCF Done:  E(RB3LYP) =  -192.684210530     A.U. after   14 cycles

 The electronic state is 1-A.
 Alpha  occ. eigenvalues --  -10.24482 -10.23484 -10.22888 -10.20801 -10.16661
 Alpha  occ. eigenvalues --   -0.89370  -0.75417  -0.71462  -0.57024  -0.51364
 Alpha  occ. eigenvalues --   -0.49234  -0.45126  -0.44167  -0.38227  -0.29392
 Alpha  occ. eigenvalues --   -0.28674  -0.22633
 Alpha virt. eigenvalues --   -0.11499  -0.11026  -0.01194   0.01144   0.01330
 Alpha virt. eigenvalues --    0.02584   0.04058   0.04642   0.05131   0.06190
 Alpha virt. eigenvalues --    0.06709   0.08837   0.10401   0.11027   0.11733

 Mulliken charges:
               1
     1  C   -0.176503
     2  H    0.175820
     3  H    0.175820
     4  C    0.545423
     5  C   -0.496917
     6  C   -0.425271
     7  C   -0.128039
     8  H    0.164834
     9  H    0.164833
 Sum of Mulliken charges =  -0.00000

 Dipole moment (field-independent basis, Debye):
    X=              1.5245    Y=             -0.2575    Z=              0.0002  Tot=              1.5461
 Quadrupole moment (field-independent basis, Debye-Ang):
   XX=            -27.8260   YY=            -38.3598   ZZ=            -28.9074
   XY=              5.9981   XZ=              0.0002   YZ=              0.0007

  Exact polarizability:  68.633  -4.329  65.029   0.003  -0.000  43.996
 Approx polarizability: 127.169  -4.683  95.353   0.008  -0.000  67.998

                      1                      2                      3
                      A                      A                      A
 Frequencies --    151.2926               180.4421               243.2354
 Red. masses --      1.5345                 9.8855                 2.8974
 Frc consts  --      0.0207                 0.1896                 0.1010
 IR Inten    --     39.1590               177.0926                 2.6180

                      4                      5                      6
                      A                      A                      A
 Frequencies --    532.3982               627.1857               774.0005
 Red. masses --      1.6229                 7.2678                 2.2412
 Frc consts  --      0.2710                 1.6844                 0.7911
 IR Inten    --      0.1791                 2.6763                16.8036

                      7                      8                      9
                      A                      A                      A
 Frequencies --    813.7865               892.3152               951.1778
 Red. masses --      3.8114                 4.7889                 5.3244
 Frc consts  --      1.4872                 2.2466                 2.8382
 IR Inten    --      7.0144                24.3944                31.6996

                     10                     11                     12
                      A                      A                      A
 Frequencies --   1004.6544              1062.1976              1110.5972
 Red. masses --      6.7716                 1.0763                 1.0807
 Frc consts  --      4.0269                 0.7155                 0.7853
 IR Inten    --     17.6329                 1.9552                 8.3790

                     13                     14                     15
                      A                      A                      A
 Frequencies --   1174.1491              1223.2864              1355.7990
 Red. masses --      1.3947                 1.4343                 1.0667
 Frc consts  --      1.1329                 1.2646                 1.1553
 IR Inten    --     25.8913                 3.2620                17.7282

                     16                     17                     18
                      A                      A                      A
 Frequencies --   1392.1471              1987.6816              2995.6800
 Red. masses --      1.0825                11.1613                 1.0596
 Frc consts  --      1.2360                25.9813                 5.6025
 IR Inten    --     18.3442                62.2674                 7.7329

                     19                     20                     21
                      A                      A                      A
 Frequencies --   3015.6483              3025.0245              3046.6835
 Red. masses --      1.0951                 1.0602                 1.0984
 Frc consts  --      5.8678                 5.7161                 6.0071
 IR Inten    --      0.2566                14.2889                 1.9286

 - Thermochemistry -
 -------------------
 Temperature   298.150 Kelvin.  Pressure   1.00000 Atm.
 Atom     1 has atomic number  6 and mass  12.00000

 Molecular mass:    64.03130 amu.
 Principal axes and moments of inertia in atomic units:
                           1         2         3
     Eigenvalues --   179.11921 225.80471 383.20629
           X            0.97216   0.23434  -0.00013
           Y           -0.23434   0.97216  -0.00001
           Z            0.00013   0.00004   1.00000
 This molecule is an asymmetric top.
 Rotational symmetry number  1.
 Rotational temperatures (Kelvin)      0.48355     0.38358     0.22602
 Rotational constants (GHZ):          10.07564     7.99249     4.70958
 Zero-point vibrational energy     164841.7 (Joules/Mol)
                                   39.39812 (Kcal/Mol)
 Warning -- explicit consideration of   4 degrees of freedom as
           vibrations may cause significant error
 Vibrational temperatures:    217.68   259.62   349.96   766.00   902.38
          (Kelvin)           1113.61  1170.86  1283.84  1368.53  1445.47
                             1528.26  1597.90  1689.34  1760.03  1950.69
                             2002.99  2859.83  4310.11  4338.84  4352.33
                             4383.49

 Zero-point correction=                           0.062785 (Hartree/Particle)
 Thermal correction to Energy=                    0.068094
 Thermal correction to Enthalpy=                  0.069039
 Thermal correction to Gibbs Free Energy=         0.035104
 Sum of electronic and zero-point Energies=           -192.621426
 Sum of electronic and thermal Energies=              -192.616116
 Sum of electronic and thermal Enthalpies=            -192.615172
 Sum of electronic and thermal Free Energies=         -192.649107

                     E (Thermal)             CV                S
                      KCal/Mol        Cal/Mol-Kelvin    Cal/Mol-Kelvin
 Total                   42.730             17.538             71.422
 Electronic               0.000              0.000              0.000
 Translational            0.889              2.981             38.389
 Rotational               0.889              2.981             24.253
 Vibrational             40.952             11.576              8.779
 Vibration     1          0.619              1.901              2.656
 Vibration     2          0.629              1.866              2.324
 Vibration     3          0.659              1.774              1.779
 Vibration     4          0.887              1.178              0.582

 Optimization completed.
    -- Stationary point found.
 Normal termination of Gaussian 09 at Wed Jul 20 01:58:58 2016.
