 Gaussian 09, Revision E.01,
 Gaussian 09:  EM64L-G09RevE.01 30-Nov-2015

 ---------------------------------------------
 #p b3lyp/6-311++G(3df,2p) freq symmetry=Loose
 ---------------------------------------------

 ---------
 b3lyp opt
 ---------
 Symbolic Z-matrix:
 Charge =  0 Multiplicity = 1

                         Standard orientation:
 ---------------------------------------------------------------------
 Center     Atomic      Atomic             Coordinates (Angstroms)
 Number     Number       Type             X           Y           Z
 ---------------------------------------------------------------------
      1          6           0       -0.857982    0.753353   -0.000030
      2          6           0        0.095774   -0.000104    0.828070
      3          6           0        1.366571    0.000094   -0.000194
      4          6           0        0.095675   -0.000194   -0.827525
      5          1           0       -1.477572    1.627786   -0.000773
      6          1           0        1.950833   -0.913480   -0.000294
      7          1           0        1.952153    0.913377   -0.000428
      8          6           0       -0.858066   -0.753217    0.000068
      9          1           0       -1.477252   -1.627271   -0.000845
 ---------------------------------------------------------------------

 SCF Done:  E(RB3LYP) =  -192.769416779     A.U. after   11 cycles

 The electronic state is 1-A.
 Alpha  occ. eigenvalues --  -10.22017 -10.21689 -10.21675 -10.20846 -10.20822
 Alpha  occ. eigenvalues --   -1.02531  -0.75154  -0.61609  -0.57469  -0.57279
 Alpha  occ. eigenvalues --   -0.48984  -0.47370  -0.39352  -0.36373  -0.29512
 Alpha  occ. eigenvalues --   -0.28089  -0.27664
 Alpha virt. eigenvalues --   -0.03959  -0.00008   0.01124   0.01240   0.02771
 Alpha virt. eigenvalues --    0.03627   0.05425   0.07306   0.07885   0.07923
 Alpha virt. eigenvalues --    0.08961   0.09201   0.09933   0.11127   0.11219

 Mulliken charges:
               1
     1  C    0.080934
     2  C   -0.243415
     3  C   -0.572622
     4  C   -0.242642
     5  H    0.277852
     6  H    0.169965
     7  H    0.169731
     8  C    0.081923
     9  H    0.278275
 Sum of Mulliken charges =  -0.00000

 Dipole moment (field-independent basis, Debye):
    X=              0.2272    Y=              0.0001    Z=             -0.0035  Tot=              0.2272
 Quadrupole moment (field-independent basis, Debye-Ang):
   XX=            -25.7525   YY=            -27.1116   ZZ=            -34.2138
   XY=              0.0012   XZ=              0.0014   YZ=             -0.0000

  Exact polarizability:  53.799  -0.003  47.869   0.002   0.000  50.098
 Approx polarizability:  76.939  -0.004  73.361   0.008   0.002 108.149

                      1                      2                      3
                      A                      A                      A
 Frequencies --    441.6445               584.1389               751.8830
 Red. masses --      1.9783                 5.3143                 3.6956
 Frc consts  --      0.2274                 1.0684                 1.2309
 IR Inten    --      3.5420               113.0070                 0.0001

                      4                      5                      6
                      A                      A                      A
 Frequencies --    768.5897               807.3446               864.0843
 Red. masses --      1.1965                 5.8202                 1.3481
 Frc consts  --      0.4164                 2.2352                 0.5930
 IR Inten    --     29.7527                 0.1219                 3.2814

                      7                      8                      9
                      A                      A                      A
 Frequencies --    898.7136               919.6259               950.3679
 Red. masses --      1.1236                 1.3761                 5.4899
 Frc consts  --      0.5347                 0.6857                 2.9215
 IR Inten    --      0.0266                25.4278                 0.0238

                     10                     11                     12
                      A                      A                      A
 Frequencies --   1047.7504              1055.6565              1083.4290
 Red. masses --      2.9113                 1.7263                 1.3607
 Frc consts  --      1.8830                 1.1335                 0.9410
 IR Inten    --     12.9834                 2.8403                 0.0005

                     13                     14                     15
                      A                      A                      A
 Frequencies --   1117.4358              1168.0196              1169.9598
 Red. masses --      4.8248                 1.4795                 4.8869
 Frc consts  --      3.5496                 1.1893                 3.9412
 IR Inten    --      6.7487                 0.1898                 1.1532

                     16                     17                     18
                      A                      A                      A
 Frequencies --   1409.2010              1494.6565              3104.2252
 Red. masses --      6.7493                 1.1726                 1.0551
 Frc consts  --      7.8968                 1.5434                 5.9904
 IR Inten    --      0.6846                 0.1341                24.5302

                     19                     20                     21
                      A                      A                      A
 Frequencies --   3186.7507              3290.4884              3305.6598
 Red. masses --      1.1163                 1.0954                 1.1114
 Frc consts  --      6.6793                 6.9879                 7.1555
 IR Inten    --      6.5904                 5.2204                 1.0984

 - Thermochemistry -
 -------------------
 Temperature   298.150 Kelvin.  Pressure   1.00000 Atm.
 Atom     1 has atomic number  6 and mass  12.00000

 Molecular mass:    64.03130 amu.
 Principal axes and moments of inertia in atomic units:
                           1         2         3
     Eigenvalues --   132.43439 245.71459 260.68971
           X            1.00000  -0.00001   0.00003
           Y            0.00001   1.00000  -0.00000
           Z           -0.00003   0.00000   1.00000
 This molecule is an asymmetric top.
 Rotational symmetry number  1.
 Rotational temperatures (Kelvin)      0.65401     0.35250     0.33225
 Rotational constants (GHZ):          13.62744     7.34487     6.92295
 Zero-point vibrational energy     175968.4 (Joules/Mol)
                                   42.05747 (Kcal/Mol)
 Warning -- explicit consideration of   2 degrees of freedom as
           vibrations may cause significant error
 Vibrational temperatures:    635.43   840.44  1081.79  1105.83  1161.59
          (Kelvin)           1243.22  1293.05  1323.13  1367.37  1507.48
                             1518.85  1558.81  1607.74  1680.52  1683.31
                             2027.52  2150.47  4466.28  4585.02  4734.27
                             4756.10

 Zero-point correction=                           0.067023 (Hartree/Particle)
 Thermal correction to Energy=                    0.070924
 Thermal correction to Enthalpy=                  0.071868
 Thermal correction to Gibbs Free Energy=         0.040997
 Sum of electronic and zero-point Energies=           -192.702394
 Sum of electronic and thermal Energies=              -192.698493
 Sum of electronic and thermal Enthalpies=            -192.697548
 Sum of electronic and thermal Free Energies=         -192.728419

                     E (Thermal)             CV                S
                      KCal/Mol        Cal/Mol-Kelvin    Cal/Mol-Kelvin
 Total                   44.506             14.283             64.974
 Electronic               0.000              0.000              0.000
 Translational            0.889              2.981             38.389
 Rotational               0.889              2.981             23.654
 Vibrational             42.728              8.321              2.930
 Vibration     1          0.801              1.379              0.821
 Vibration     2          0.941              1.066              0.478

 Optimization completed.
    -- Stationary point found.
 Normal termination of Gaussian 09 at Wed Jun 22 03:07:19 2016.
