 Gaussian 09, Revision E.01,
 Gaussian 09:  EM64L-G09RevE.01 30-Nov-2015

 ---------------------------------------------
 #p b3lyp/6-311++G(3df,2p) freq symmetry=Loose
 ---------------------------------------------

 ---------
 b3lyp opt
 ---------
 Symbolic Z-matrix:
 Charge =  0 Multiplicity = 1

                         Standard orientation:
 ---------------------------------------------------------------------
 Center     Atomic      Atomic             Coordinates (Angstroms)
 Number     Number       Type             X           Y           Z
 ---------------------------------------------------------------------
      1          6           0       -0.876078    0.645303   -0.256006
      2          1           0       -1.320215    1.452950   -0.810139
      3          6           0       -1.155865   -0.813465    0.189446
      4          6           0        0.001585   -0.476851   -0.554071
      5          1           0        1.847900    0.643822   -0.814713
      6          6           0        0.231040    0.492504    0.718618
      7          1           0        0.072412    0.045254    1.703131
      8          6           0        1.361544   -0.071180   -0.160391
      9          1           0        2.026547   -0.799891    0.296146
 ---------------------------------------------------------------------

 SCF Done:  E(RB3LYP) =  -192.725825829     A.U. after   13 cycles

 The electronic state is 1-A.
 Alpha  occ. eigenvalues --  -10.25037 -10.24277 -10.23422 -10.21727 -10.21158
 Alpha  occ. eigenvalues --   -1.01057  -0.78175  -0.63699  -0.60966  -0.56417
 Alpha  occ. eigenvalues --   -0.49034  -0.44283  -0.40939  -0.37919  -0.33926
 Alpha  occ. eigenvalues --   -0.29720  -0.23152
 Alpha virt. eigenvalues --   -0.04413  -0.02797  -0.00769   0.00635   0.01383
 Alpha virt. eigenvalues --    0.02824   0.04415   0.05635   0.06743   0.07324
 Alpha virt. eigenvalues --    0.07800   0.09055   0.10035   0.10756   0.10957

 Mulliken charges:
               1
     1  C    0.050506
     2  H    0.251370
     3  C   -0.537728
     4  C    0.473130
     5  H    0.199839
     6  C   -0.228486
     7  H    0.210273
     8  C   -0.575183
     9  H    0.156280
 Sum of Mulliken charges =  -0.00000

 Dipole moment (field-independent basis, Debye):
    X=              2.8921    Y=              1.7131    Z=             -0.7781  Tot=              3.4503
 Quadrupole moment (field-independent basis, Debye-Ang):
   XX=            -30.7424   YY=            -32.5636   ZZ=            -29.2109
   XY=             -3.8592   XZ=              1.9181   YZ=             -0.2781

  Exact polarizability:  59.200   2.689  50.804   1.080  -0.986  47.500
 Approx polarizability:  91.212   8.185  85.925   5.439   8.079  82.483

                      1                      2                      3
                      A                      A                      A
 Frequencies --    293.9752               444.1103               643.1152
 Red. masses --      3.6398                 4.0127                 2.4696
 Frc consts  --      0.1853                 0.4663                 0.6018
 IR Inten    --      4.5239                 3.7438                18.2857

                      4                      5                      6
                      A                      A                      A
 Frequencies --    680.9331               789.6148               888.5287
 Red. masses --      4.1044                 5.7065                 1.9218
 Frc consts  --      1.1213                 2.0963                 0.8939
 IR Inten    --     31.7212                 3.4961                14.6965

                      7                      8                      9
                      A                      A                      A
 Frequencies --    913.9164               938.2141              1006.7623
 Red. masses --      3.0573                 1.1216                 2.0389
 Frc consts  --      1.5045                 0.5817                 1.2176
 IR Inten    --     19.6618                23.7028                 4.1114

                     10                     11                     12
                      A                      A                      A
 Frequencies --   1032.4427              1057.1651              1104.5436
 Red. masses --      1.3385                 1.4864                 1.9142
 Frc consts  --      0.8406                 0.9788                 1.3760
 IR Inten    --      2.4899                 5.4992                 1.1977

                     13                     14                     15
                      A                      A                      A
 Frequencies --   1138.1090              1222.3471              1269.9539
 Red. masses --      1.2337                 2.1283                 1.9673
 Frc consts  --      0.9415                 1.8736                 1.8694
 IR Inten    --     10.2321                 7.8500                 3.0401

                     16                     17                     18
                      A                      A                      A
 Frequencies --   1448.0054              1495.5647              3059.0885
 Red. masses --      5.5929                 1.2321                 1.0841
 Frc consts  --      6.9092                 1.6238                 5.9771
 IR Inten    --     29.5999                 2.7626                 1.1380

                     19                     20                     21
                      A                      A                      A
 Frequencies --   3083.6592              3168.7167              3240.6045
 Red. masses --      1.0548                 1.1161                 1.0980
 Frc consts  --      5.9093                 6.6027                 6.7939
 IR Inten    --     31.3212                 5.2028                 0.5029

 - Thermochemistry -
 -------------------
 Temperature   298.150 Kelvin.  Pressure   1.00000 Atm.
 Atom     1 has atomic number  6 and mass  12.00000

 Molecular mass:    64.03130 amu.
 Principal axes and moments of inertia in atomic units:
                           1         2         3
     Eigenvalues --   133.57048 259.69806 284.62010
           X            0.99798  -0.05964   0.02172
           Y            0.06332   0.95916  -0.27569
           Z           -0.00439   0.27651   0.96100
 This molecule is an asymmetric top.
 Rotational symmetry number  1.
 Rotational temperatures (Kelvin)      0.64845     0.33352     0.30431
 Rotational constants (GHZ):          13.51153     6.94938     6.34088
 Zero-point vibrational energy     172976.2 (Joules/Mol)
                                   41.34232 (Kcal/Mol)
 Warning -- explicit consideration of   2 degrees of freedom as
           vibrations may cause significant error
 Vibrational temperatures:    422.96   638.97   925.30   979.71  1136.08
          (Kelvin)           1278.39  1314.92  1349.88  1448.50  1485.45
                             1521.02  1589.19  1637.48  1758.68  1827.18
                             2083.35  2151.78  4401.34  4436.69  4559.07
                             4662.50

 Zero-point correction=                           0.065883 (Hartree/Particle)
 Thermal correction to Energy=                    0.070089
 Thermal correction to Enthalpy=                  0.071033
 Thermal correction to Gibbs Free Energy=         0.039560
 Sum of electronic and zero-point Energies=           -192.659943
 Sum of electronic and thermal Energies=              -192.655737
 Sum of electronic and thermal Enthalpies=            -192.654792
 Sum of electronic and thermal Free Energies=         -192.686266

                     E (Thermal)             CV                S
                      KCal/Mol        Cal/Mol-Kelvin    Cal/Mol-Kelvin
 Total                   43.982             15.021             66.241
 Electronic               0.000              0.000              0.000
 Translational            0.889              2.981             38.389
 Rotational               0.889              2.981             23.805
 Vibrational             42.204              9.059              4.047
 Vibration     1          0.689              1.685              1.451
 Vibration     2          0.804              1.374              0.814

 Optimization completed.
    -- Stationary point found.
 Normal termination of Gaussian 09 at Wed Jun 22 03:26:44 2016.
