 Gaussian 09, Revision E.01,
 Gaussian 09:  EM64L-G09RevE.01 30-Nov-2015

 ---------------------------------------------
 #p b3lyp/6-311++G(3df,2p) freq symmetry=Loose
 ---------------------------------------------

 ---------
 b3lyp opt
 ---------
 Symbolic Z-matrix:
 Charge =  3 Multiplicity = 4

                         Standard orientation:
 ---------------------------------------------------------------------
 Center     Atomic      Atomic             Coordinates (Angstroms)
 Number     Number       Type             X           Y           Z
 ---------------------------------------------------------------------
      1          6           0       -0.326007    0.136508    0.000187
      2          6           0        0.980194    0.449516   -0.000354
      3          1           0        1.158685    1.570589   -0.000870
      4          6           0        2.224274   -0.348713   -0.000214
      5          1           0        2.492336   -0.766582   -1.030811
      6          1           0        3.376321    0.065999    0.001428
      7          1           0        2.492938   -0.764533    1.031517
      8          6           0       -1.595823   -0.044132    0.000269
      9          6           0       -2.869351   -0.210758   -0.000098
 ---------------------------------------------------------------------

 SCF Done:  E(UB3LYP) =  -191.034753679     A.U. after   17 cycles

 The electronic state is 4-A.
 Alpha  occ. eigenvalues --  -11.04219 -10.96838 -10.95503 -10.92988 -10.92280
 Alpha  occ. eigenvalues --   -1.53640  -1.49665  -1.41895  -1.34653  -1.19441
 Alpha  occ. eigenvalues --   -1.15541  -1.13315  -1.08852  -1.05820  -1.03102
 Alpha  occ. eigenvalues --   -1.00420  -0.96663
 Alpha virt. eigenvalues --   -0.82312  -0.76491  -0.60589  -0.56537  -0.56163
 Alpha virt. eigenvalues --   -0.50725  -0.50206  -0.45410  -0.43385  -0.43080
 Alpha virt. eigenvalues --   -0.40094  -0.38361  -0.38226  -0.37660  -0.36718

  Beta  occ. eigenvalues --  -11.00595 -10.96949 -10.94907 -10.92674 -10.91331
  Beta  occ. eigenvalues --   -1.52271  -1.46146  -1.38345  -1.32177  -1.17558
  Beta  occ. eigenvalues --   -1.13765  -1.10781  -1.02311  -1.00868
  Beta virt. eigenvalues --   -0.86665  -0.84825  -0.82883  -0.79205  -0.69994
  Beta virt. eigenvalues --   -0.57430  -0.52990  -0.51510  -0.49506  -0.48632
  Beta virt. eigenvalues --   -0.44882  -0.42665  -0.42466  -0.39233  -0.37598

 Mulliken charges and spin densities:
               1          2
     1  C    0.196185  -0.052132
     2  C    0.301064   0.323548
     3  H    0.322136   0.019618
     4  C   -0.299010   0.594701
     5  H    0.352642   0.068609
     6  H    0.386049   0.229612
     7  H    0.352524   0.069228
     8  C    0.812896   0.194667
     9  C    0.575515   1.552148
 Sum of Mulliken charges =   3.00000   3.00000

 Dipole moment (field-independent basis, Debye):
    X=              3.4098    Y=             -0.3195    Z=              0.0041  Tot=              3.4247
 Quadrupole moment (field-independent basis, Debye-Ang):
   XX=             60.5334   YY=            -16.7533   ZZ=            -19.9814
   XY=              0.1328   XZ=              0.0164   YZ=             -0.0011

  Exact polarizability: 108.571   3.528  29.952   0.002  -0.001  26.687
 Approx polarizability: 216.468  17.724  45.426  -0.002  -0.003  37.916

                      1                      2                      3
                      A                      A                      A
 Frequencies --     89.8538               157.6398               190.6194
 Red. masses --      1.0711                 4.5357                 3.5903
 Frc consts  --      0.0051                 0.0664                 0.0769
 IR Inten    --    173.7753                25.9524                 1.3300

                      4                      5                      6
                      A                      A                      A
 Frequencies --    313.9259               361.4229               497.8663
 Red. masses --      6.0929                 1.6103                 4.5402
 Frc consts  --      0.3538                 0.1239                 0.6631
 IR Inten    --      1.3308                93.4634                16.4575

                      7                      8                      9
                      A                      A                      A
 Frequencies --    559.0721               661.6220               698.1630
 Red. masses --      4.9086                 1.2982                 2.1462
 Frc consts  --      0.9040                 0.3348                 0.6164
 IR Inten    --     10.0260                18.4420                41.1260

                     10                     11                     12
                      A                      A                      A
 Frequencies --    815.3758               985.9694              1005.2327
 Red. masses --      2.1384                 1.5226                 1.3950
 Frc consts  --      0.8376                 0.8721                 0.8305
 IR Inten    --     45.9185                45.2370                37.6761

                     13                     14                     15
                      A                      A                      A
 Frequencies --   1070.6822              1176.5855              1218.7612
 Red. masses --      1.0503                 2.4837                 1.3343
 Frc consts  --      0.7094                 2.0258                 1.1677
 IR Inten    --      1.4148                11.4912               148.2948

                     16                     17                     18
                      A                      A                      A
 Frequencies --   1558.3469              1901.4772              2017.0999
 Red. masses --     10.0664                 1.0735                11.3221
 Frc consts  --     14.4030                 2.2868                27.1414
 IR Inten    --    171.6953               688.4330               171.4347

                     19                     20                     21
                      A                      A                      A
 Frequencies --   2569.8778              2627.1474              2664.7508
 Red. masses --      1.0434                 1.1098                 1.0754
 Frc consts  --      4.0601                 4.5129                 4.4994
 IR Inten    --    691.3762               439.2630               437.8006

 - Thermochemistry -
 -------------------
 Temperature   298.150 Kelvin.  Pressure   1.00000 Atm.
 Atom     1 has atomic number  6 and mass  12.00000

 Molecular mass:    64.03130 amu.
 Principal axes and moments of inertia in atomic units:
                           1         2         3
     Eigenvalues --    37.37058 812.99143 835.05467
           X            0.99997  -0.00803   0.00003
           Y            0.00803   0.99997   0.00004
           Z           -0.00003  -0.00004   1.00000
 This molecule is an asymmetric top.
 Rotational symmetry number  1.
 Rotational temperatures (Kelvin)      2.31770     0.10654     0.10372
 Rotational constants (GHZ):          48.29310     2.21988     2.16123
 Zero-point vibrational energy     138416.9 (Joules/Mol)
                                   33.08242 (Kcal/Mol)
 Warning -- explicit consideration of   7 degrees of freedom as
           vibrations may cause significant error
 Vibrational temperatures:    129.28   226.81   274.26   451.67   520.01
          (Kelvin)            716.32   804.38   951.93  1004.50  1173.14
                             1418.59  1446.30  1540.47  1692.84  1753.52
                             2242.11  2735.80  2902.15  3697.48  3779.87
                             3833.98

 Zero-point correction=                           0.052720 (Hartree/Particle)
 Thermal correction to Energy=                    0.059133
 Thermal correction to Enthalpy=                  0.060077
 Thermal correction to Gibbs Free Energy=         0.022441
 Sum of electronic and zero-point Energies=           -190.982033
 Sum of electronic and thermal Energies=              -190.975621
 Sum of electronic and thermal Enthalpies=            -190.974676
 Sum of electronic and thermal Free Energies=         -191.012313

                     E (Thermal)             CV                S
                      KCal/Mol        Cal/Mol-Kelvin    Cal/Mol-Kelvin
 Total                   37.107             21.178             79.213
 Electronic               0.000              0.000              2.755
 Translational            0.889              2.981             38.389
 Rotational               0.889              2.981             24.743
 Vibrational             35.329             15.216             13.326
 Vibration     1          0.602              1.956              3.663
 Vibration     2          0.621              1.894              2.578
 Vibration     3          0.634              1.853              2.222
 Vibration     4          0.702              1.647              1.342
 Vibration     5          0.736              1.552              1.116
 Vibration     6          0.853              1.255              0.663
 Vibration     7          0.915              1.120              0.526

 Normal termination of Gaussian 09 at Mon Jun 20 12:19:31 2016.
