 Gaussian 09, Revision E.01,
 Gaussian 09:  EM64L-G09RevE.01 30-Nov-2015

 ------------------------------------------------------
 #p b3lyp/6-311++G(3df,2p) freq IOp(2/17=3) IOp(2/18=3)
 ------------------------------------------------------

 ---------
 b3lyp opt
 ---------
 Symbolic Z-matrix:
 Charge =  1 Multiplicity = 4

                         Standard orientation:
 ---------------------------------------------------------------------
 Center     Atomic      Atomic             Coordinates (Angstroms)
 Number     Number       Type             X           Y           Z
 ---------------------------------------------------------------------
      1          6           0        0.483086   -1.399150   -0.000000
      2          1           0        0.041786   -2.390541   -0.000000
      3          1           0        1.570505   -1.406895   -0.000000
      4          6           0       -0.141229   -0.347234    0.864700
      5          6           0       -0.141229   -0.347234   -0.864700
      6          1           0       -0.879201   -0.475288   -1.649225
      7          6           0       -0.000000    0.768083    0.000000
      8          6           0       -0.176207    2.116880    0.000000
      9          1           0       -0.879201   -0.475288    1.649225
 ---------------------------------------------------------------------

 SCF Done:  E(UB3LYP) =  -192.392368321     A.U. after   14 cycles

 The electronic state is 4-A".
 Alpha  occ. eigenvalues --  -10.49710 -10.48478 -10.48471 -10.47908 -10.42615
 Alpha  occ. eigenvalues --   -1.18974  -1.00656  -0.88444  -0.87894  -0.78236
 Alpha  occ. eigenvalues --   -0.69946  -0.66652  -0.66202  -0.62527  -0.59937
 Alpha  occ. eigenvalues --   -0.58071  -0.48016  -0.47045
 Alpha virt. eigenvalues --   -0.27097  -0.23480  -0.14379  -0.13350  -0.13085
 Alpha virt. eigenvalues --   -0.12354  -0.08761  -0.07909  -0.07223  -0.06832
 Alpha virt. eigenvalues --   -0.06606  -0.05873  -0.04654  -0.03872  -0.02646

  Beta  occ. eigenvalues --  -10.47965 -10.47945 -10.47884 -10.45372 -10.42637
  Beta  occ. eigenvalues --   -1.18028  -0.96337  -0.86630  -0.84894  -0.77637
  Beta  occ. eigenvalues --   -0.67741  -0.65510  -0.64470  -0.59112  -0.55728
  Beta virt. eigenvalues --   -0.38659  -0.35357  -0.28354  -0.24283  -0.18809
  Beta virt. eigenvalues --   -0.13613  -0.12914  -0.12438  -0.11874  -0.08533
  Beta virt. eigenvalues --   -0.07679  -0.06530  -0.06326  -0.05650  -0.05372

 Mulliken charges and spin densities:
               1          2
     1  C   -0.550084  -0.038066
     2  H    0.187237   0.011376
     3  H    0.257546   0.046857
     4  C    0.077839   0.332056
     5  C    0.077839   0.332056
     6  H    0.260462  -0.005282
     7  C    0.436364  -0.187519
     8  C   -0.007663   2.513805
     9  H    0.260462  -0.005282
 Sum of Mulliken charges =   1.00000   3.00000

 Dipole moment (field-independent basis, Debye):
    X=             -0.7468    Y=             -0.7356    Z=             -0.0000  Tot=              1.0482
 Quadrupole moment (field-independent basis, Debye-Ang):
   XX=            -24.5503   YY=            -16.4527   ZZ=            -22.1752
   XY=             -0.8903   XZ=             -0.0000   YZ=             -0.0000

  Exact polarizability:  34.105  -5.324  67.233   0.000   0.000  42.671
 Approx polarizability:  49.279  -8.552 106.155   0.000  -0.000  73.132

                      1                      2                      3
                     A'                     A"                     A'
 Frequencies --    280.6358               410.5575               514.2919
 Red. masses --      3.4056                 5.5988                 2.9003
 Frc consts  --      0.1580                 0.5560                 0.4520
 IR Inten    --      1.0977                 1.3472                14.5892

                      4                      5                      6
                     A'                     A"                     A'
 Frequencies --    682.3139               758.0133               872.6461
 Red. masses --      3.2008                 2.7244                 1.6067
 Frc consts  --      0.8780                 0.9223                 0.7209
 IR Inten    --      0.6674                 0.0029                10.1423

                      7                      8                      9
                     A"                     A'                     A"
 Frequencies --    920.5909               995.9240              1026.9740
 Red. masses --      1.6382                 1.6466                 1.5925
 Frc consts  --      0.8180                 0.9623                 0.9896
 IR Inten    --     14.8387                 1.6685                 0.1516

                     10                     11                     12
                     A'                     A'                     A"
 Frequencies --   1030.4014              1113.9286              1120.5555
 Red. masses --      2.2137                 2.5118                 1.1669
 Frc consts  --      1.3848                 1.8363                 0.8632
 IR Inten    --     13.1349                 3.0975                 8.1368

                     13                     14                     15
                     A"                     A"                     A'
 Frequencies --   1133.7841              1249.2332              1297.4842
 Red. masses --      1.5271                 1.8315                 2.4222
 Frc consts  --      1.1566                 1.6840                 2.4025
 IR Inten    --      1.2428                24.5759                 5.8551

                     16                     17                     18
                     A'                     A'                     A'
 Frequencies --   1459.4277              1504.2958              3081.5090
 Red. masses --      2.2800                 1.7265                 1.0578
 Frc consts  --      2.8612                 2.3019                 5.9182
 IR Inten    --      3.9858                13.5097                23.5506

                     19                     20                     21
                     A'                     A"                     A'
 Frequencies --   3168.2934              3176.7451              3181.5609
 Red. masses --      1.1113                 1.0933                 1.0987
 Frc consts  --      6.5723                 6.5008                 6.5528
 IR Inten    --      0.9328                34.7682                26.0712

 - Thermochemistry -
 -------------------
 Temperature   298.150 Kelvin.  Pressure   1.00000 Atm.
 Atom     1 has atomic number  6 and mass  12.00000

 Molecular mass:    64.03130 amu.
 Principal axes and moments of inertia in atomic units:
                           1         2         3
     Eigenvalues --   104.48444 367.10116 429.93841
           X           -0.14308   0.00000   0.98971
           Y            0.98971   0.00000   0.14308
           Z           -0.00000   1.00000  -0.00000
 This molecule is an asymmetric top.
 Rotational symmetry number  1.
 Rotational temperatures (Kelvin)      0.82896     0.23594     0.20146
 Rotational constants (GHZ):          17.27282     4.91620     4.19767
 Zero-point vibrational energy     173333.9 (Joules/Mol)
                                   41.42780 (Kcal/Mol)
 Warning -- explicit consideration of   3 degrees of freedom as
           vibrations may cause significant error
 Vibrational temperatures:    403.77   590.70   739.95   981.70  1090.61
          (Kelvin)           1255.54  1324.52  1432.91  1477.58  1482.52
                             1602.69  1612.23  1631.26  1797.37  1866.79
                             2099.79  2164.34  4433.60  4558.46  4570.62
                             4577.55

 Zero-point correction=                           0.066019 (Hartree/Particle)
 Thermal correction to Energy=                    0.070339
 Thermal correction to Enthalpy=                  0.071283
 Thermal correction to Gibbs Free Energy=         0.038065
 Sum of electronic and zero-point Energies=           -192.326349
 Sum of electronic and thermal Energies=              -192.322030
 Sum of electronic and thermal Enthalpies=            -192.321086
 Sum of electronic and thermal Free Energies=         -192.354303

                     E (Thermal)             CV                S
                      KCal/Mol        Cal/Mol-Kelvin    Cal/Mol-Kelvin
 Total                   44.138             15.277             69.912
 Electronic               0.000              0.000              2.755
 Translational            0.889              2.981             38.389
 Rotational               0.889              2.981             24.315
 Vibrational             42.361              9.315              4.453
 Vibration     1          0.680              1.709              1.530
 Vibration     2          0.775              1.447              0.925
 Vibration     3          0.869              1.218              0.623

 Optimization completed.
    -- Stationary point found.
 Normal termination of Gaussian 09 at Thu Jan 31 07:32:40 2019.
