 Gaussian 09, Revision E.01,
 Gaussian 09:  EM64L-G09RevE.01 30-Nov-2015

 ---------------------------------------------
 #p b3lyp/6-311++G(3df,2p) freq symmetry=Loose
 ---------------------------------------------

 ---------
 b3lyp opt
 ---------
 Symbolic Z-matrix:
 Charge =  1 Multiplicity = 4

                         Standard orientation:
 ---------------------------------------------------------------------
 Center     Atomic      Atomic             Coordinates (Angstroms)
 Number     Number       Type             X           Y           Z
 ---------------------------------------------------------------------
      1          6           0        0.760363    0.017073    0.000018
      2          6           0       -0.633327    0.098465    0.000000
      3          6           0       -1.868783   -0.580198   -0.000120
      4          1           0       -2.793837   -0.021419   -0.000062
      5          1           0       -1.891811   -1.660143   -0.000272
      6          6           0        1.883027   -0.778569   -0.000069
      7          1           0        2.954756   -0.648694   -0.000028
      8          6           0        0.115619    1.244856    0.000176
      9          1           0        0.189495    2.320495    0.000328
 ---------------------------------------------------------------------

 SCF Done:  E(UB3LYP) =  -192.462396427     A.U. after   14 cycles

 The electronic state is 4-A.
 Alpha  occ. eigenvalues --  -10.47627 -10.47361 -10.45916 -10.45901 -10.43365
 Alpha  occ. eigenvalues --   -1.18070  -0.98773  -0.96714  -0.81128  -0.74980
 Alpha  occ. eigenvalues --   -0.72872  -0.67739  -0.66036  -0.63367  -0.58451
 Alpha  occ. eigenvalues --   -0.51917  -0.47924  -0.45497
 Alpha virt. eigenvalues --   -0.23812  -0.18743  -0.15196  -0.12453  -0.12339
 Alpha virt. eigenvalues --   -0.10214  -0.09705  -0.09203  -0.08743  -0.07656
 Alpha virt. eigenvalues --   -0.05437  -0.05234  -0.04625  -0.03134  -0.02920

  Beta  occ. eigenvalues --  -10.47565 -10.47189 -10.45185 -10.43278 -10.42190
  Beta  occ. eigenvalues --   -1.16778  -0.94753  -0.91939  -0.79748  -0.72841
  Beta  occ. eigenvalues --   -0.71250  -0.66767  -0.62270  -0.61042  -0.57457
  Beta virt. eigenvalues --   -0.38297  -0.31961  -0.30582  -0.19225  -0.14812
  Beta virt. eigenvalues --   -0.14070  -0.12135  -0.11771  -0.09926  -0.09211
  Beta virt. eigenvalues --   -0.08291  -0.08003  -0.06887  -0.05216  -0.03989

 Mulliken charges and spin densities:
               1          2
     1  C    0.316253   0.038545
     2  C    0.236560   0.116610
     3  C   -0.401225   0.786788
     4  H    0.238665  -0.019513
     5  H    0.227684  -0.024294
     6  C   -0.256729   1.619845
     7  H    0.270564   0.004198
     8  C    0.056391   0.478586
     9  H    0.311837  -0.000765
 Sum of Mulliken charges =   1.00000   3.00000

 Dipole moment (field-independent basis, Debye):
    X=              0.0761    Y=              0.6782    Z=              0.0001  Tot=              0.6825
 Quadrupole moment (field-independent basis, Debye-Ang):
   XX=             -9.5756   YY=            -19.5457   ZZ=            -27.7534
   XY=              0.6857   XZ=              0.0005   YZ=              0.0012

  Exact polarizability:  71.299  -1.328  50.974   0.001   0.003  29.541
 Approx polarizability:  96.416  -3.688  79.846   0.001   0.005  42.945

                      1                      2                      3
                      A                      A                      A
 Frequencies --    171.6791               224.0265               315.1120
 Red. masses --      1.0922                 3.0219                 2.0281
 Frc consts  --      0.0190                 0.0894                 0.1187
 IR Inten    --      0.4044                 3.5805                23.3095

                      4                      5                      6
                      A                      A                      A
 Frequencies --    450.2276               513.0858               600.2375
 Red. masses --      2.3214                 2.6022                 1.9259
 Frc consts  --      0.2772                 0.4036                 0.4088
 IR Inten    --      1.5524                 0.1530                 8.3035

                      7                      8                      9
                      A                      A                      A
 Frequencies --    763.4349               788.3194               836.5543
 Red. masses --      1.8212                 1.4066                 1.4448
 Frc consts  --      0.6254                 0.5150                 0.5957
 IR Inten    --     13.5921                10.3806                41.8199

                     10                     11                     12
                      A                      A                      A
 Frequencies --    855.1461               896.1460              1037.5220
 Red. masses --      2.2712                 2.5022                 1.6165
 Frc consts  --      0.9786                 1.1840                 1.0253
 IR Inten    --      2.7199                18.2152                24.7860

                     13                     14                     15
                      A                      A                      A
 Frequencies --   1073.7475              1240.6357              1445.4042
 Red. masses --      1.9536                 4.8085                 3.3336
 Frc consts  --      1.3271                 4.3606                 4.1034
 IR Inten    --      6.1815                 8.3734                39.5894

                     16                     17                     18
                      A                      A                      A
 Frequencies --   1473.0130              1764.3924              3153.4987
 Red. masses --      1.4630                 9.0913                 1.0504
 Frc consts  --      1.8703                16.6751                 6.1546
 IR Inten    --     28.1457                42.1970                19.3575

                     19                     20                     21
                      A                      A                      A
 Frequencies --   3238.4063              3256.4178              3271.3375
 Red. masses --      1.0956                 1.1120                 1.1232
 Frc consts  --      6.7699                 6.9478                 7.0818
 IR Inten    --     55.3726                76.8280                 9.6956

 - Thermochemistry -
 -------------------
 Temperature   298.150 Kelvin.  Pressure   1.00000 Atm.
 Atom     1 has atomic number  6 and mass  12.00000

 Molecular mass:    64.03130 amu.
 Principal axes and moments of inertia in atomic units:
                           1         2         3
     Eigenvalues --   137.91800 416.66746 554.58546
           X            0.99976   0.02192  -0.00002
           Y           -0.02192   0.99976  -0.00014
           Z            0.00002   0.00014   1.00000
 This molecule is an asymmetric top.
 Rotational symmetry number  1.
 Rotational temperatures (Kelvin)      0.62801     0.20787     0.15618
 Rotational constants (GHZ):          13.08561     4.33137     3.25422
 Zero-point vibrational energy     163699.0 (Joules/Mol)
                                   39.12501 (Kcal/Mol)
 Warning -- explicit consideration of   6 degrees of freedom as
           vibrations may cause significant error
 Vibrational temperatures:    247.01   322.32   453.38   647.78   738.22
          (Kelvin)            863.61  1098.41  1134.21  1203.61  1230.36
                             1289.35  1492.76  1544.88  1785.00  2079.61
                             2119.33  2538.56  4537.18  4659.34  4685.25
                             4706.72

 Zero-point correction=                           0.062350 (Hartree/Particle)
 Thermal correction to Energy=                    0.067798
 Thermal correction to Enthalpy=                  0.068742
 Thermal correction to Gibbs Free Energy=         0.033191
 Sum of electronic and zero-point Energies=           -192.400047
 Sum of electronic and thermal Energies=              -192.394598
 Sum of electronic and thermal Enthalpies=            -192.393654
 Sum of electronic and thermal Free Energies=         -192.429205

                     E (Thermal)             CV                S
                      KCal/Mol        Cal/Mol-Kelvin    Cal/Mol-Kelvin
 Total                   42.544             18.969             74.824
 Electronic               0.000              0.000              2.755
 Translational            0.889              2.981             38.389
 Rotational               0.889              2.981             24.970
 Vibrational             40.766             13.007              8.710
 Vibration     1          0.626              1.877              2.417
 Vibration     2          0.649              1.804              1.926
 Vibration     3          0.702              1.645              1.335
 Vibration     4          0.809              1.360              0.795
 Vibration     5          0.868              1.221              0.626
 Vibration     6          0.958              1.031              0.449

 Optimization completed.
    -- Stationary point found.
 Normal termination of Gaussian 09 at Wed Jul 20 15:29:11 2016.
