 Gaussian 09, Revision E.01,
 Gaussian 09:  EM64L-G09RevE.01 30-Nov-2015

 ---------------------------------------------
 #p b3lyp/6-311++G(3df,2p) freq symmetry=Loose
 ---------------------------------------------

 ---------
 b3lyp opt
 ---------
 Symbolic Z-matrix:
 Charge =  2 Multiplicity = 1

                         Standard orientation:
 ---------------------------------------------------------------------
 Center     Atomic      Atomic             Coordinates (Angstroms)
 Number     Number       Type             X           Y           Z
 ---------------------------------------------------------------------
      1          6           0        0.580377   -0.032032   -0.100331
      2          6           0        1.917845   -0.276913    0.243072
      3          6           0       -0.148972    1.145669   -0.260739
      4          1           0        0.039329    2.205470   -0.439937
      5          6           0       -1.118038    0.279206    0.323016
      6          1           0       -1.624973    0.466295    1.280715
      7          6           0       -0.696469   -1.038533   -0.207511
      8          1           0       -0.838932   -1.231337   -1.272840
      9          1           0       -0.783883   -1.904809    0.447018
 ---------------------------------------------------------------------

 SCF Done:  E(RB3LYP) =  -191.868609872     A.U. after   14 cycles

 The electronic state is 1-A.
 Alpha  occ. eigenvalues --  -10.82994 -10.76379 -10.76091 -10.74028 -10.69264
 Alpha  occ. eigenvalues --   -1.44263  -1.24920  -1.18442  -1.07399  -1.02312
 Alpha  occ. eigenvalues --   -0.94300  -0.90573  -0.90221  -0.87127  -0.81396
 Alpha  occ. eigenvalues --   -0.79254
 Alpha virt. eigenvalues --   -0.65484  -0.61199  -0.53303  -0.45394  -0.35604
 Alpha virt. eigenvalues --   -0.32735  -0.31597  -0.30968  -0.28550  -0.27761
 Alpha virt. eigenvalues --   -0.25169  -0.24606  -0.22816  -0.22437  -0.21527

 Mulliken charges:
               1
     1  C    0.706647
     2  C    0.024063
     3  C    0.191910
     4  H    0.376896
     5  C    0.243289
     6  H    0.274174
     7  C   -0.377110
     8  H    0.312924
     9  H    0.247207
 Sum of Mulliken charges =   2.00000

 Dipole moment (field-independent basis, Debye):
    X=             -0.9268    Y=              1.0862    Z=              0.4017  Tot=              1.4833
 Quadrupole moment (field-independent basis, Debye-Ang):
   XX=            -11.9523   YY=            -10.8131   ZZ=            -20.2721
   XY=              0.4784   XZ=             -1.5579   YZ=             -0.3556

  Exact polarizability:  56.479  -2.568  43.409   0.791  -0.481  31.447
 Approx polarizability: 125.429 -16.492  73.164   6.364  -3.046  49.077

                      1                      2                      3
                      A                      A                      A
 Frequencies --    162.6962               183.2621               398.2285
 Red. masses --      5.7512                 4.9897                 3.1209
 Frc consts  --      0.0897                 0.0987                 0.2916
 IR Inten    --      2.6014                 2.4260                 2.9362

                      4                      5                      6
                      A                      A                      A
 Frequencies --    519.2492               532.0398               889.1853
 Red. masses --      4.6749                 2.6604                 1.6773
 Frc consts  --      0.7426                 0.4437                 0.7813
 IR Inten    --     15.5976                 8.6026                78.2197

                      7                      8                      9
                      A                      A                      A
 Frequencies --    911.9866               976.6453               984.3829
 Red. masses --      1.4153                 1.5189                 1.4528
 Frc consts  --      0.6936                 0.8536                 0.8294
 IR Inten    --      2.9697                 7.7721                18.5982

                     10                     11                     12
                      A                      A                      A
 Frequencies --   1015.0919              1082.1469              1112.7491
 Red. masses --      1.4073                 1.8582                 1.7434
 Frc consts  --      0.8544                 1.2821                 1.2718
 IR Inten    --      9.8058                 3.4283                55.4800

                     13                     14                     15
                      A                      A                      A
 Frequencies --   1169.4689              1224.0522              1278.3724
 Red. masses --      1.5016                 1.8332                 2.6125
 Frc consts  --      1.2100                 1.6183                 2.5155
 IR Inten    --     36.3089                71.0013                49.4725

                     16                     17                     18
                      A                      A                      A
 Frequencies --   1461.9934              1483.1966              3037.9028
 Red. masses --      1.1581                 7.0591                 1.0881
 Frc consts  --      1.4585                 9.1495                 5.9168
 IR Inten    --     37.5114               566.3523               173.0455

                     19                     20                     21
                      A                      A                      A
 Frequencies --   3054.9126              3146.1994              3160.5016
 Red. masses --      1.0589                 1.1138                 1.1201
 Frc consts  --      5.8222                 6.4959                 6.5922
 IR Inten    --    108.7527               147.9440                82.2223

 - Thermochemistry -
 -------------------
 Temperature   298.150 Kelvin.  Pressure   1.00000 Atm.
 Atom     1 has atomic number  6 and mass  12.00000

 Molecular mass:    64.03130 amu.
 Principal axes and moments of inertia in atomic units:
                           1         2         3
     Eigenvalues --   170.78329 286.76379 407.08378
           X            0.99811   0.05785  -0.02050
           Y           -0.05768   0.99830   0.00892
           Z            0.02099  -0.00773   0.99975
 This molecule is an asymmetric top.
 Rotational symmetry number  1.
 Rotational temperatures (Kelvin)      0.50716     0.30204     0.21277
 Rotational constants (GHZ):          10.56743     6.29348     4.43334
 Zero-point vibrational energy     166186.8 (Joules/Mol)
                                   39.71960 (Kcal/Mol)
 Warning -- explicit consideration of   5 degrees of freedom as
           vibrations may cause significant error
 Vibrational temperatures:    234.08   263.67   572.96   747.08   765.49
          (Kelvin)           1279.34  1312.14  1405.17  1416.31  1460.49
                             1556.97  1601.00  1682.60  1761.14  1839.29
                             2103.48  2133.99  4370.86  4395.33  4526.67
                             4547.25

 Zero-point correction=                           0.063297 (Hartree/Particle)
 Thermal correction to Energy=                    0.068391
 Thermal correction to Enthalpy=                  0.069336
 Thermal correction to Gibbs Free Energy=         0.035741
 Sum of electronic and zero-point Energies=           -191.805313
 Sum of electronic and thermal Energies=              -191.800218
 Sum of electronic and thermal Enthalpies=            -191.799274
 Sum of electronic and thermal Free Energies=         -191.832869

                     E (Thermal)             CV                S
                      KCal/Mol        Cal/Mol-Kelvin    Cal/Mol-Kelvin
 Total                   42.916             17.036             70.706
 Electronic               0.000              0.000              0.000
 Translational            0.889              2.981             38.389
 Rotational               0.889              2.981             24.503
 Vibrational             41.139             11.074              7.813
 Vibration     1          0.623              1.888              2.518
 Vibration     2          0.631              1.863              2.295
 Vibration     3          0.765              1.474              0.969
 Vibration     4          0.874              1.207              0.612
 Vibration     5          0.887              1.179              0.583

 Normal termination of Gaussian 09 at Mon Jun 20 08:15:35 2016.
