 Gaussian 09, Revision E.01,
 Gaussian 09:  EM64L-G09RevE.01 30-Nov-2015

 ---------------------------------------------
 #p b3lyp/6-311++G(3df,2p) freq symmetry=Loose
 ---------------------------------------------

 ---------
 b3lyp opt
 ---------
 Symbolic Z-matrix:
 Charge =  2 Multiplicity = 1

                         Standard orientation:
 ---------------------------------------------------------------------
 Center     Atomic      Atomic             Coordinates (Angstroms)
 Number     Number       Type             X           Y           Z
 ---------------------------------------------------------------------
      1          6           0       -0.329618   -0.660690   -0.660581
      2          6           0        1.157678    0.278133   -0.079957
      3          1           0       -0.231452   -1.082556   -1.663540
      4          1           0        2.151988    0.310291   -0.527193
      5          6           0        0.000673    1.017025   -0.001770
      6          6           0       -1.156618    0.279773    0.079382
      7          1           0       -2.150416    0.314778    0.527959
      8          6           0        0.328108   -0.658603    0.662214
      9          1           0        0.228540   -1.076347    1.667047
 ---------------------------------------------------------------------

 SCF Done:  E(RB3LYP) =  -191.936573171     A.U. after   11 cycles

 The electronic state is 1-A.
 Alpha  occ. eigenvalues --  -10.78642 -10.77670 -10.77637 -10.76182 -10.76172
 Alpha  occ. eigenvalues --   -1.54193  -1.25264  -1.18368  -1.10984  -1.03946
 Alpha  occ. eigenvalues --   -0.98555  -0.96691  -0.96114  -0.89066  -0.86758
 Alpha  occ. eigenvalues --   -0.79275
 Alpha virt. eigenvalues --   -0.56848  -0.51529  -0.50856  -0.47944  -0.36278
 Alpha virt. eigenvalues --   -0.33914  -0.33676  -0.32422  -0.29057  -0.27446
 Alpha virt. eigenvalues --   -0.26843  -0.25777  -0.23696  -0.22888  -0.22485

 Mulliken charges:
               1
     1  C    0.074414
     2  C    0.132155
     3  H    0.373302
     4  H    0.351353
     5  C    0.139692
     6  C    0.131523
     7  H    0.351042
     8  C    0.073450
     9  H    0.373070
 Sum of Mulliken charges =   2.00000

 Dipole moment (field-independent basis, Debye):
    X=             -0.0001    Y=             -0.9847    Z=              0.0019  Tot=              0.9847
 Quadrupole moment (field-independent basis, Debye-Ang):
   XX=             -9.0613   YY=            -18.3933   ZZ=            -15.9343
   XY=             -0.0039   XZ=             -1.6621   YZ=              0.0103

  Exact polarizability:  42.331   0.007  38.616   0.271  -0.005  32.130
 Approx polarizability:  76.341   0.042  90.716   4.307  -0.047  51.753

                      1                      2                      3
                      A                      A                      A
 Frequencies --    302.5035               379.7460               541.8227
 Red. masses --      6.7485                 4.2748                 6.6710
 Frc consts  --      0.3638                 0.3632                 1.1539
 IR Inten    --      0.6831                 6.9661                10.8289

                      4                      5                      6
                      A                      A                      A
 Frequencies --    655.7628               785.9712               836.2103
 Red. masses --      3.1368                 3.3626                 1.2682
 Frc consts  --      0.7947                 1.2239                 0.5225
 IR Inten    --     27.0551                 1.8755                63.8104

                      7                      8                      9
                      A                      A                      A
 Frequencies --    847.8618               891.8386               941.8128
 Red. masses --      1.1775                 1.3155                 1.4084
 Frc consts  --      0.4987                 0.6165                 0.7360
 IR Inten    --     23.9259                 5.9360                18.8958

                     10                     11                     12
                      A                      A                      A
 Frequencies --   1035.5970              1042.6002              1055.2004
 Red. masses --      1.1919                 1.2962                 1.2101
 Frc consts  --      0.7531                 0.8301                 0.7939
 IR Inten    --     18.3995                17.7024                 1.4860

                     13                     14                     15
                      A                      A                      A
 Frequencies --   1060.7596              1094.6604              1252.4174
 Red. masses --      1.4018                 3.2722                 3.5277
 Frc consts  --      0.9293                 2.3102                 3.2602
 IR Inten    --      2.0075                37.6786                53.8655

                     16                     17                     18
                      A                      A                      A
 Frequencies --   1329.1668              1538.8514              3115.1457
 Red. masses --      5.6863                 6.7909                 1.0947
 Frc consts  --      5.9189                 9.4748                 6.2590
 IR Inten    --      0.0678                64.4038               354.7490

                     19                     20                     21
                      A                      A                      A
 Frequencies --   3131.8609              3144.4873              3158.9237
 Red. masses --      1.1142                 1.1159                 1.1223
 Frc consts  --      6.4390                 6.5010                 6.5984
 IR Inten    --     86.9938               383.0650                 6.2895

 - Thermochemistry -
 -------------------
 Temperature   298.150 Kelvin.  Pressure   1.00000 Atm.
 Atom     1 has atomic number  6 and mass  12.00000

 Molecular mass:    64.03130 amu.
 Principal axes and moments of inertia in atomic units:
                           1         2         3
     Eigenvalues --   156.95946 217.71989 255.25704
           X            0.99853  -0.00019  -0.05428
           Y            0.00024   1.00000   0.00088
           Z            0.05428  -0.00089   0.99853
 This molecule is an asymmetric top.
 Rotational symmetry number  1.
 Rotational temperatures (Kelvin)      0.55182     0.39782     0.33932
 Rotational constants (GHZ):          11.49814     8.28928     7.07029
 Zero-point vibrational energy     168333.7 (Joules/Mol)
                                   40.23272 (Kcal/Mol)
 Warning -- explicit consideration of   3 degrees of freedom as
           vibrations may cause significant error
 Vibrational temperatures:    435.23   546.37   779.56   943.50  1130.84
          (Kelvin)           1203.12  1219.88  1283.16  1355.06  1489.99
                             1500.07  1518.20  1526.19  1574.97  1801.95
                             1912.37  2214.06  4481.99  4506.04  4524.21
                             4544.98

 Zero-point correction=                           0.064115 (Hartree/Particle)
 Thermal correction to Energy=                    0.068515
 Thermal correction to Enthalpy=                  0.069459
 Thermal correction to Gibbs Free Energy=         0.037762
 Sum of electronic and zero-point Energies=           -191.872458
 Sum of electronic and thermal Energies=              -191.868058
 Sum of electronic and thermal Enthalpies=            -191.867114
 Sum of electronic and thermal Free Energies=         -191.898811

                     E (Thermal)             CV                S
                      KCal/Mol        Cal/Mol-Kelvin    Cal/Mol-Kelvin
 Total                   42.994             15.983             66.711
 Electronic               0.000              0.000              0.000
 Translational            0.889              2.981             38.389
 Rotational               0.889              2.981             23.682
 Vibrational             41.216             10.021              4.639
 Vibration     1          0.694              1.669              1.403
 Vibration     2          0.750              1.513              1.040
 Vibration     3          0.897              1.158              0.561

 Normal termination of Gaussian 09 at Mon Jun 20 08:38:21 2016.
