 Gaussian 09, Revision E.01,
 Gaussian 09:  EM64L-G09RevE.01 30-Nov-2015

 ---------------------------------------------
 #p b3lyp/6-311++G(3df,2p) freq symmetry=Loose
 ---------------------------------------------

 ---------
 b3lyp opt
 ---------
 Symbolic Z-matrix:
 Charge =  0 Multiplicity = 3

                         Standard orientation:
 ---------------------------------------------------------------------
 Center     Atomic      Atomic             Coordinates (Angstroms)
 Number     Number       Type             X           Y           Z
 ---------------------------------------------------------------------
      1          6           0        0.534475   -0.165527    0.436106
      2          6           0       -1.802858   -0.118195   -0.082050
      3          6           0       -0.643805   -0.754043   -0.285770
      4          1           0        0.581685   -0.440213    1.483290
      5          6           0        1.810302    0.019741   -0.225934
      6          1           0        2.728561    0.032958    0.340785
      7          1           0        1.857603    0.170906   -1.294469
      8          6           0       -0.668887    0.768923    0.129729
      9          1           0       -0.543209    1.730957   -0.362082
 ---------------------------------------------------------------------

 SCF Done:  E(UB3LYP) =  -192.703649159     A.U. after   17 cycles

 The electronic state is 3-A.
 Alpha  occ. eigenvalues --  -10.25922 -10.24817 -10.24101 -10.21548 -10.19839
 Alpha  occ. eigenvalues --   -0.96928  -0.79000  -0.65974  -0.62589  -0.54660
 Alpha  occ. eigenvalues --   -0.48974  -0.44654  -0.43584  -0.41177  -0.35183
 Alpha  occ. eigenvalues --   -0.27804  -0.24761  -0.23822
 Alpha virt. eigenvalues --   -0.03673  -0.01868  -0.00052   0.00664   0.01864
 Alpha virt. eigenvalues --    0.03415   0.05648   0.05990   0.06703   0.07022
 Alpha virt. eigenvalues --    0.07459   0.09066   0.10574   0.11308   0.11392

  Beta  occ. eigenvalues --  -10.25069 -10.24891 -10.22960 -10.20253 -10.19602
  Beta  occ. eigenvalues --   -0.95840  -0.77186  -0.63851  -0.60520  -0.53641
  Beta  occ. eigenvalues --   -0.47294  -0.42806  -0.41826  -0.39256  -0.33179
  Beta  occ. eigenvalues --   -0.25690
  Beta virt. eigenvalues --   -0.12344  -0.11176  -0.02565  -0.00734   0.00489
  Beta virt. eigenvalues --    0.00903   0.02354   0.04276   0.06130   0.06251
  Beta virt. eigenvalues --    0.06856   0.07841   0.08201   0.09252   0.10875

 Mulliken charges and spin densities:
               1          2
     1  C    0.293043  -0.282038
     2  C   -0.522954   0.023411
     3  C    0.194765   0.706535
     4  H    0.218042  -0.004796
     5  C   -0.760709   1.065025
     6  H    0.169485  -0.029649
     7  H    0.198244  -0.028209
     8  C    0.023304   0.512011
     9  H    0.186779   0.037711
 Sum of Mulliken charges =  -0.00000   2.00000

 Dipole moment (field-independent basis, Debye):
    X=              3.7671    Y=              0.8971    Z=              0.6185  Tot=              3.9216
 Quadrupole moment (field-independent basis, Debye-Ang):
   XX=            -36.8006   YY=            -30.0244   ZZ=            -29.2359
   XY=             -0.6294   XZ=             -0.4263   YZ=             -1.5782

  Exact polarizability:  77.980   0.527  50.537   0.296   1.445  44.503
 Approx polarizability: 111.811  -0.931  86.893  -0.037   6.505  66.241

                      1                      2                      3
                      A                      A                      A
 Frequencies --    222.1763               280.9768               337.1842
 Red. masses --      1.1217                 3.8902                 3.0877
 Frc consts  --      0.0326                 0.1810                 0.2068
 IR Inten    --      3.2972                 9.8195                 0.4425

                      4                      5                      6
                      A                      A                      A
 Frequencies --    487.3132               572.2673               660.8078
 Red. masses --      4.0484                 2.6588                 2.1315
 Frc consts  --      0.5664                 0.5130                 0.5484
 IR Inten    --     16.5462                23.1576                35.4979

                      7                      8                      9
                      A                      A                      A
 Frequencies --    707.7752               793.9295               917.6614
 Red. masses --      3.2055                 2.7975                 1.7411
 Frc consts  --      0.9461                 1.0389                 0.8639
 IR Inten    --     10.1650                14.4666                 6.5109

                     10                     11                     12
                      A                      A                      A
 Frequencies --    991.4872              1059.7993              1102.0984
 Red. masses --      2.4283                 1.2276                 1.2334
 Frc consts  --      1.4064                 0.8124                 0.8827
 IR Inten    --      2.0688                 5.4316                 0.1853

                     13                     14                     15
                      A                      A                      A
 Frequencies --   1130.1062              1159.5656              1365.7176
 Red. masses --      2.4307                 2.9140                 1.3799
 Frc consts  --      1.8290                 2.3085                 1.5164
 IR Inten    --      8.3474                 4.8839                 3.1809

                     16                     17                     18
                      A                      A                      A
 Frequencies --   1456.4258              1477.0586              3093.8170
 Red. masses --      4.1551                 1.3806                 1.0896
 Frc consts  --      5.1929                 1.7746                 6.1450
 IR Inten    --      9.5920                12.1609                 2.9798

                     19                     20                     21
                      A                      A                      A
 Frequencies --   3138.5713              3151.3025              3258.8664
 Red. masses --      1.0873                 1.0515                 1.1199
 Frc consts  --      6.3108                 6.1525                 7.0073
 IR Inten    --      1.4893                 3.2422                 2.6579

 - Thermochemistry -
 -------------------
 Temperature   298.150 Kelvin.  Pressure   1.00000 Atm.
 Atom     1 has atomic number  6 and mass  12.00000

 Molecular mass:    64.03130 amu.
 Principal axes and moments of inertia in atomic units:
                           1         2         3
     Eigenvalues --    92.61706 398.10983 432.99116
           X            0.99996  -0.00853  -0.00307
           Y            0.00796   0.98829  -0.15240
           Z            0.00433   0.15237   0.98831
 This molecule is an asymmetric top.
 Rotational symmetry number  1.
 Rotational temperatures (Kelvin)      0.93518     0.21756     0.20004
 Rotational constants (GHZ):          19.48606     4.53327     4.16808
 Zero-point vibrational energy     163678.5 (Joules/Mol)
                                   39.12010 (Kcal/Mol)
 Warning -- explicit consideration of   5 degrees of freedom as
           vibrations may cause significant error
 Vibrational temperatures:    319.66   404.26   485.13   701.13   823.36
          (Kelvin)            950.75  1018.33  1142.29  1320.31  1426.53
                             1524.81  1585.67  1625.97  1668.35  1964.96
                             2095.47  2125.16  4451.31  4515.70  4534.02
                             4688.78

 Zero-point correction=                           0.062342 (Hartree/Particle)
 Thermal correction to Energy=                    0.067454
 Thermal correction to Enthalpy=                  0.068398
 Thermal correction to Gibbs Free Energy=         0.034132
 Sum of electronic and zero-point Energies=           -192.641307
 Sum of electronic and thermal Energies=              -192.636195
 Sum of electronic and thermal Enthalpies=            -192.635251
 Sum of electronic and thermal Free Energies=         -192.669517

                     E (Thermal)             CV                S
                      KCal/Mol        Cal/Mol-Kelvin    Cal/Mol-Kelvin
 Total                   42.328             18.063             72.120
 Electronic               0.000              0.000              2.183
 Translational            0.889              2.981             38.389
 Rotational               0.889              2.981             24.283
 Vibrational             40.551             12.101              7.264
 Vibration     1          0.648              1.807              1.941
 Vibration     2          0.681              1.709              1.528
 Vibration     3          0.718              1.601              1.225
 Vibration     4          0.843              1.278              0.691
 Vibration     5          0.928              1.091              0.500

 Optimization completed.
    -- Stationary point found.
 Normal termination of Gaussian 09 at Mon Jun 20 02:30:11 2016.
