 Gaussian 09, Revision E.01,
 Gaussian 09:  EM64L-G09RevE.01 30-Nov-2015

 ---------------------------------------------
 #p b3lyp/6-311++G(3df,2p) freq symmetry=Loose
 ---------------------------------------------

 ---------
 b3lyp opt
 ---------
 Symbolic Z-matrix:
 Charge =  0 Multiplicity = 1

                         Standard orientation:
 ---------------------------------------------------------------------
 Center     Atomic      Atomic             Coordinates (Angstroms)
 Number     Number       Type             X           Y           Z
 ---------------------------------------------------------------------
      1          6           0       -1.678527    1.013880   -0.196738
      2          6           0       -0.258863   -0.738552   -0.245723
      3          1           0       -0.359520   -1.612118   -0.882865
      4          6           0        0.917576   -0.195583   -0.070397
      5          6           0        2.099622    0.303613    0.117099
      6          1           0        2.498391    1.069618   -0.536705
      7          1           0        2.722354   -0.023821    0.941111
      8          6           0       -1.524726   -0.167754    0.315797
      9          1           0       -2.191717   -0.727303    0.958236
 ---------------------------------------------------------------------

 SCF Done:  E(RB3LYP) =  -192.793076188     A.U. after   14 cycles

 The electronic state is 1-A.
 Alpha  occ. eigenvalues --  -10.22693 -10.22238 -10.21637 -10.19561 -10.18849
 Alpha  occ. eigenvalues --   -0.85075  -0.78587  -0.70781  -0.56929  -0.52384
 Alpha  occ. eigenvalues --   -0.48321  -0.47346  -0.46509  -0.32028  -0.30341
 Alpha  occ. eigenvalues --   -0.28812  -0.27287
 Alpha virt. eigenvalues --   -0.09627  -0.02253  -0.01809  -0.00108   0.00599
 Alpha virt. eigenvalues --    0.00966   0.02077   0.03381   0.05787   0.06088
 Alpha virt. eigenvalues --    0.07154   0.08048   0.09088   0.10209   0.10424

 Mulliken charges:
               1
     1  C   -0.514087
     2  C   -0.574629
     3  H    0.167972
     4  C    0.616169
     5  C   -0.470185
     6  H    0.184157
     7  H    0.171219
     8  C    0.238329
     9  H    0.181054
 Sum of Mulliken charges =  -0.00000

 Dipole moment (field-independent basis, Debye):
    X=              1.2349    Y=             -2.2395    Z=              0.8597  Tot=              2.6980
 Quadrupole moment (field-independent basis, Debye-Ang):
   XX=            -26.9914   YY=            -32.3904   ZZ=            -30.4623
   XY=              5.3413   XZ=             -2.0931   YZ=              0.5054

  Exact polarizability:  91.120   2.731  54.902   2.292  -0.546  43.933
 Approx polarizability: 135.180   7.677  89.791   4.240  -2.325  64.758

                      1                      2                      3
                      A                      A                      A
 Frequencies --     82.8316               146.8294               227.5515
 Red. masses --      5.3745                 3.1246                 3.2409
 Frc consts  --      0.0217                 0.0397                 0.0989
 IR Inten    --      1.1694                21.5221                 6.4964

                      4                      5                      6
                      A                      A                      A
 Frequencies --    355.4731               544.1510               558.0732
 Red. masses --      2.2917                 1.3652                 3.2589
 Frc consts  --      0.1706                 0.2382                 0.5980
 IR Inten    --      6.8149                14.2462                 3.6523

                      7                      8                      9
                      A                      A                      A
 Frequencies --    726.5541               879.3752               889.9348
 Red. masses --      1.8732                 1.2164                 1.3094
 Frc consts  --      0.5826                 0.5542                 0.6110
 IR Inten    --     37.6465                25.2797                53.8091

                     10                     11                     12
                      A                      A                      A
 Frequencies --    948.2557              1006.3358              1048.5156
 Red. masses --      2.6030                 1.5371                 1.4268
 Frc consts  --      1.3790                 0.9171                 0.9242
 IR Inten    --      2.8907                 0.7466                 9.5927

                     13                     14                     15
                      A                      A                      A
 Frequencies --   1146.5035              1314.5711              1460.0860
 Red. masses --      1.7029                 1.5544                 1.3856
 Frc consts  --      1.3189                 1.5826                 1.7403
 IR Inten    --      0.0097                11.9763                 4.9215

                     16                     17                     18
                      A                      A                      A
 Frequencies --   1687.4247              2029.2567              3120.0390
 Red. masses --      7.7660                 9.9847                 1.0713
 Frc consts  --     13.0286                24.2246                 6.1442
 IR Inten    --     33.1021                81.6485                 0.7075

                     19                     20                     21
                      A                      A                      A
 Frequencies --   3122.5134              3182.3594              3194.2345
 Red. masses --      1.0738                 1.0967                 1.1147
 Frc consts  --      6.1688                 6.5440                 6.7007
 IR Inten    --      1.1703                11.0872                 0.0357

 - Thermochemistry -
 -------------------
 Temperature   298.150 Kelvin.  Pressure   1.00000 Atm.
 Atom     1 has atomic number  6 and mass  12.00000

 Molecular mass:    64.03130 amu.
 Principal axes and moments of inertia in atomic units:
                           1         2         3
     Eigenvalues --   108.48041 535.02179 604.23830
           X            0.99922   0.03932  -0.00370
           Y           -0.03930   0.99921   0.00521
           Z            0.00390  -0.00506   0.99998
 This molecule is an asymmetric top.
 Rotational symmetry number  1.
 Rotational temperatures (Kelvin)      0.79843     0.16189     0.14334
 Rotational constants (GHZ):          16.63656     3.37321     2.98680
 Zero-point vibrational energy     165508.6 (Joules/Mol)
                                   39.55749 (Kcal/Mol)
 Warning -- explicit consideration of   6 degrees of freedom as
           vibrations may cause significant error
 Vibrational temperatures:    119.18   211.25   327.40   511.45   782.91
          (Kelvin)            802.94  1045.35  1265.22  1280.42  1364.33
                             1447.89  1508.58  1649.56  1891.37  2100.74
                             2427.82  2919.64  4489.03  4492.59  4578.70
                             4595.79

 Zero-point correction=                           0.063039 (Hartree/Particle)
 Thermal correction to Energy=                    0.068909
 Thermal correction to Enthalpy=                  0.069853
 Thermal correction to Gibbs Free Energy=         0.034186
 Sum of electronic and zero-point Energies=           -192.730037
 Sum of electronic and thermal Energies=              -192.724168
 Sum of electronic and thermal Enthalpies=            -192.723223
 Sum of electronic and thermal Free Energies=         -192.758890

                     E (Thermal)             CV                S
                      KCal/Mol        Cal/Mol-Kelvin    Cal/Mol-Kelvin
 Total                   43.241             18.942             75.068
 Electronic               0.000              0.000              0.000
 Translational            0.889              2.981             38.389
 Rotational               0.889              2.981             25.065
 Vibrational             41.463             12.981             11.614
 Vibration     1          0.600              1.961              3.823
 Vibration     2          0.617              1.906              2.713
 Vibration     3          0.651              1.799              1.898
 Vibration     4          0.731              1.564              1.142
 Vibration     5          0.899              1.152              0.556
 Vibration     6          0.914              1.122              0.528

 Normal termination of Gaussian 09 at Wed Jun 22 03:26:10 2016.
