 Gaussian 09, Revision E.01,
 Gaussian 09:  EM64L-G09RevE.01 30-Nov-2015

 ------------------------------------------------------
 #p b3lyp/6-311++G(3df,2p) freq IOp(2/17=3) IOp(2/18=3)
 ------------------------------------------------------

 ---------
 b3lyp opt
 ---------
 Symbolic Z-matrix:
 Charge =  3 Multiplicity = 2

                         Standard orientation:
 ---------------------------------------------------------------------
 Center     Atomic      Atomic             Coordinates (Angstroms)
 Number     Number       Type             X           Y           Z
 ---------------------------------------------------------------------
      1          6           0       -0.304406   -0.631767   -0.000000
      2          1           0       -1.453373   -0.896759   -0.000000
      3          6           0        0.048512   -2.097313   -0.000000
      4          1           0       -0.200642    2.552794    0.000000
      5          6           0        0.159515    0.435580    0.998848
      6          1           0        0.637350    0.372557    1.999152
      7          6           0       -0.000000    1.457733    0.000000
      8          6           0        0.159515    0.435580   -0.998848
      9          1           0        0.637350    0.372557   -1.999152
 ---------------------------------------------------------------------

 SCF Done:  E(UB3LYP) =  -191.022313725     A.U. after   19 cycles

 The electronic state is 2-A'.
 Alpha  occ. eigenvalues --  -11.14557 -11.01140 -11.01140 -10.98850 -10.97358
 Alpha  occ. eigenvalues --   -1.66704  -1.50995  -1.37702  -1.31810  -1.24525
 Alpha  occ. eigenvalues --   -1.20596  -1.15365  -1.14073  -1.10662  -1.08686
 Alpha  occ. eigenvalues --   -1.02669
 Alpha virt. eigenvalues --   -0.88245  -0.85610  -0.81801  -0.74249  -0.56633
 Alpha virt. eigenvalues --   -0.55266  -0.54227  -0.50416  -0.48736  -0.47815
 Alpha virt. eigenvalues --   -0.47770  -0.44209  -0.43266  -0.42230  -0.41752

  Beta  occ. eigenvalues --  -11.13962 -11.00886 -11.00885 -10.98784 -10.96889
  Beta  occ. eigenvalues --   -1.65536  -1.49390  -1.36837  -1.30377  -1.23717
  Beta  occ. eigenvalues --   -1.19837  -1.14905  -1.12604  -1.10314  -1.05272
  Beta virt. eigenvalues --   -0.93101  -0.87511  -0.84552  -0.79575  -0.71201
  Beta virt. eigenvalues --   -0.55999  -0.54770  -0.53487  -0.49589  -0.47987
  Beta virt. eigenvalues --   -0.47489  -0.47232  -0.43656  -0.43133  -0.41741

 Mulliken charges and spin densities:
               1          2
     1  C    0.180131  -0.066702
     2  H    0.355079   0.072602
     3  C    0.457134   0.363973
     4  H    0.409419   0.014007
     5  C    0.179401   0.172806
     6  H    0.392086  -0.003073
     7  C    0.455262   0.276654
     8  C    0.179401   0.172806
     9  H    0.392086  -0.003073
 Sum of Mulliken charges =   3.00000   1.00000

 Dipole moment (field-independent basis, Debye):
    X=             -0.3567    Y=             -1.1974    Z=             -0.0000  Tot=              1.2494
 Quadrupole moment (field-independent basis, Debye-Ang):
   XX=            -17.3669   YY=              8.7479   ZZ=             -7.0262
   XY=              2.1314   XZ=              0.0000   YZ=             -0.0000

  Exact polarizability:  27.667   2.449  77.269   0.000   0.000  39.883
 Approx polarizability:  45.585  -1.684 167.820  -0.000   0.000  70.357

                      1                      2                      3
                     A'                     A"                     A'
 Frequencies --    228.5900               232.4646               384.8263
 Red. masses --      2.6904                 4.3601                 2.8487
 Frc consts  --      0.0828                 0.1388                 0.2486
 IR Inten    --      2.9816                 0.8211                12.0746

                      4                      5                      6
                     A'                     A"                     A'
 Frequencies --    564.3530               670.5212               706.5475
 Red. masses --      3.9202                 1.6370                 2.0616
 Frc consts  --      0.7356                 0.4336                 0.6064
 IR Inten    --     42.7971                 4.9241                 5.8826

                      7                      8                      9
                     A"                     A'                     A'
 Frequencies --    840.5387               902.5800               919.2997
 Red. masses --      2.4818                 1.8178                 1.3243
 Frc consts  --      1.0331                 0.8725                 0.6594
 IR Inten    --     36.1409                18.3478                41.2061

                     10                     11                     12
                     A'                     A"                     A'
 Frequencies --    953.6632               958.4307               975.7656
 Red. masses --      2.2282                 1.2531                 2.8544
 Frc consts  --      1.1940                 0.6782                 1.6012
 IR Inten    --     45.4026                 0.1036               303.7783

                     13                     14                     15
                     A"                     A'                     A"
 Frequencies --   1001.9628              1104.8472              1139.8109
 Red. masses --      1.4957                 1.8445                 1.2976
 Frc consts  --      0.8847                 1.3266                 0.9932
 IR Inten    --      0.0311                 7.8046                 1.0653

                     16                     17                     18
                     A"                     A'                     A'
 Frequencies --   1182.2168              1267.8192              2297.5543
 Red. masses --      2.6207                 2.6095                 1.0743
 Frc consts  --      2.1580                 2.4713                 3.3413
 IR Inten    --    136.2756               233.6974               508.2406

                     19                     20                     21
                     A'                     A"                     A'
 Frequencies --   2890.9556              2950.9088              2962.4370
 Red. masses --      1.0985                 1.1042                 1.1125
 Frc consts  --      5.4091                 5.6653                 5.7525
 IR Inten    --    496.1828               532.6150                99.0560

 - Thermochemistry -
 -------------------
 Temperature   298.150 Kelvin.  Pressure   1.00000 Atm.
 Atom     1 has atomic number  6 and mass  12.00000

 Molecular mass:    64.03130 amu.
 Principal axes and moments of inertia in atomic units:
                           1         2         3
     Eigenvalues --   130.54714 356.86997 454.87463
           X            0.04457   0.00000   0.99901
           Y            0.99901   0.00000  -0.04457
           Z            0.00000   1.00000  -0.00000
 This molecule is an asymmetric top.
 Rotational symmetry number  1.
 Rotational temperatures (Kelvin)      0.66347     0.24270     0.19041
 Rotational constants (GHZ):          13.82444     5.05714     3.96756
 Zero-point vibrational energy     150347.2 (Joules/Mol)
                                   35.93385 (Kcal/Mol)
 Warning -- explicit consideration of   4 degrees of freedom as
           vibrations may cause significant error
 Vibrational temperatures:    328.89   334.46   553.68   811.98   964.73
          (Kelvin)           1016.56  1209.35  1298.61  1322.67  1372.11
                             1378.97  1403.91  1441.60  1589.63  1639.93
                             1700.94  1824.11  3305.66  4159.44  4245.69
                             4262.28

 Zero-point correction=                           0.057264 (Hartree/Particle)
 Thermal correction to Energy=                    0.062278
 Thermal correction to Enthalpy=                  0.063222
 Thermal correction to Gibbs Free Energy=         0.029340
 Sum of electronic and zero-point Energies=           -190.965049
 Sum of electronic and thermal Energies=              -190.960036
 Sum of electronic and thermal Enthalpies=            -190.959092
 Sum of electronic and thermal Free Energies=         -190.992974

                     E (Thermal)             CV                S
                      KCal/Mol        Cal/Mol-Kelvin    Cal/Mol-Kelvin
 Total                   39.080             17.967             71.311
 Electronic               0.000              0.000              1.377
 Translational            0.889              2.981             38.389
 Rotational               0.889              2.981             24.564
 Vibrational             37.303             12.005              6.980
 Vibration     1          0.651              1.797              1.890
 Vibration     2          0.653              1.791              1.860
 Vibration     3          0.754              1.503              1.020
 Vibration     4          0.920              1.108              0.515

 Normal termination of Gaussian 09 at Thu Jan 31 08:22:22 2019.
