 Gaussian 09, Revision E.01,
 Gaussian 09:  EM64L-G09RevE.01 30-Nov-2015

 ---------------------------------------------
 #p b3lyp/6-311++G(3df,2p) freq symmetry=Loose
 ---------------------------------------------

 ---------
 b3lyp opt
 ---------
 Symbolic Z-matrix:
 Charge =  2 Multiplicity = 1

                         Standard orientation:
 ---------------------------------------------------------------------
 Center     Atomic      Atomic             Coordinates (Angstroms)
 Number     Number       Type             X           Y           Z
 ---------------------------------------------------------------------
      1          6           0        1.093061    0.510060   -0.000000
      2          1           0        0.982566   -0.713969    1.886309
      3          6           0        0.497990   -0.180757    1.058841
      4          6           0       -0.920485    0.006740   -0.691854
      5          1           0       -1.726781    0.227931   -1.390686
      6          6           0        0.497990   -0.180757   -1.058841
      7          1           0        0.982566   -0.713969   -1.886309
      8          6           0       -0.920485    0.006740    0.691854
      9          1           0       -1.726781    0.227931    1.390686
 ---------------------------------------------------------------------

 SCF Done:  E(RB3LYP) =  -191.954117976     A.U. after   11 cycles

 The electronic state is 1-A'.
 Alpha  occ. eigenvalues --  -10.77568 -10.77568 -10.77061 -10.72011 -10.71957
 Alpha  occ. eigenvalues --   -1.44497  -1.22649  -1.22363  -1.04760  -1.04019
 Alpha  occ. eigenvalues --   -0.99235  -0.93906  -0.93476  -0.87726  -0.86095
 Alpha  occ. eigenvalues --   -0.76389
 Alpha virt. eigenvalues --   -0.62140  -0.60639  -0.53827  -0.46173  -0.33225
 Alpha virt. eigenvalues --   -0.30050  -0.29644  -0.29455  -0.28607  -0.27987
 Alpha virt. eigenvalues --   -0.25610  -0.24800  -0.23160  -0.21984  -0.21525

 Mulliken charges:
               1
     1  C    0.263372
     2  H    0.333246
     3  C    0.190390
     4  C    0.053153
     5  H    0.291524
     6  C    0.190390
     7  H    0.333246
     8  C    0.053153
     9  H    0.291524
 Sum of Mulliken charges =   2.00000

 Dipole moment (field-independent basis, Debye):
    X=              0.0206    Y=             -1.2503    Z=             -0.0000  Tot=              1.2505
 Quadrupole moment (field-independent basis, Debye-Ang):
   XX=            -11.6083   YY=            -23.4895   ZZ=             -6.5339
   XY=             -2.9463   XZ=             -0.0000   YZ=             -0.0000

  Exact polarizability:  50.992   2.422  27.717   0.000  -0.000  48.253
 Approx polarizability: 113.451  15.503  48.721  -0.000   0.000  91.748

                      1                      2                      3
                     A"                     A'                     A'
 Frequencies --    310.5166               368.1623               502.5356
 Red. masses --      2.0857                 2.5903                 2.9818
 Frc consts  --      0.1185                 0.2069                 0.4437
 IR Inten    --      3.6538                21.4611                13.3449

                      4                      5                      6
                     A"                     A"                     A'
 Frequencies --    718.1708               874.1448               887.0611
 Red. masses --      6.4040                 1.7293                 1.7565
 Frc consts  --      1.9461                 0.7785                 0.8144
 IR Inten    --      0.4995                 4.5459                66.9894

                      7                      8                      9
                     A'                     A'                     A"
 Frequencies --    938.4987              1010.3940              1011.2837
 Red. masses --      1.7206                 1.6115                 1.3156
 Frc consts  --      0.8929                 0.9693                 0.7927
 IR Inten    --     64.0529                 6.0541                 0.2603

                     10                     11                     12
                     A"                     A'                     A'
 Frequencies --   1028.3821              1104.9663              1162.1140
 Red. masses --      1.6835                 1.2131                 2.1751
 Frc consts  --      1.0490                 0.8726                 1.7307
 IR Inten    --      0.1737                 1.5578                 2.7849

                     13                     14                     15
                     A"                     A'                     A"
 Frequencies --   1165.9694              1207.2914              1237.7172
 Red. masses --      1.4674                 3.6554                 4.0340
 Frc consts  --      1.1754                 3.1391                 3.6411
 IR Inten    --     14.3559                14.8736                 0.3335

                     16                     17                     18
                     A"                     A'                     A"
 Frequencies --   1331.7452              1485.3174              3074.5235
 Red. masses --      1.8918                 4.2111                 1.1016
 Frc consts  --      1.9769                 5.4737                 6.1353
 IR Inten    --    121.6418               152.6486               266.9187

                     19                     20                     21
                     A'                     A"                     A'
 Frequencies --   3078.2553              3136.7674              3151.0359
 Red. masses --      1.0990                 1.0956                 1.1084
 Frc consts  --      6.1356                 6.3514                 6.4841
 IR Inten    --    161.6511               109.5696               122.6803

 - Thermochemistry -
 -------------------
 Temperature   298.150 Kelvin.  Pressure   1.00000 Atm.
 Atom     1 has atomic number  6 and mass  12.00000

 Molecular mass:    64.03130 amu.
 Principal axes and moments of inertia in atomic units:
                           1         2         3
     Eigenvalues --   191.30633 194.21024 350.38622
           X           -0.00000   0.99879  -0.04925
           Y           -0.00000   0.04925   0.99879
           Z            1.00000   0.00000  -0.00000
 This molecule is an asymmetric top.
 Rotational symmetry number  1.
 Rotational temperatures (Kelvin)      0.45275     0.44598     0.24720
 Rotational constants (GHZ):           9.43378     9.29272     5.15072
 Zero-point vibrational energy     172171.7 (Joules/Mol)
                                   41.15001 (Kcal/Mol)
 Warning -- explicit consideration of   3 degrees of freedom as
           vibrations may cause significant error
 Vibrational temperatures:    446.76   529.70   723.04  1033.29  1257.70
          (Kelvin)           1276.28  1350.29  1453.73  1455.01  1479.61
                             1589.80  1672.02  1677.57  1737.02  1780.80
                             1916.08  2137.04  4423.55  4428.92  4513.10
                             4533.63

 Zero-point correction=                           0.065577 (Hartree/Particle)
 Thermal correction to Energy=                    0.069861
 Thermal correction to Enthalpy=                  0.070806
 Thermal correction to Gibbs Free Energy=         0.039064
 Sum of electronic and zero-point Energies=           -191.888541
 Sum of electronic and thermal Energies=              -191.884257
 Sum of electronic and thermal Enthalpies=            -191.883312
 Sum of electronic and thermal Free Energies=         -191.915054

                     E (Thermal)             CV                S
                      KCal/Mol        Cal/Mol-Kelvin    Cal/Mol-Kelvin
 Total                   43.839             15.103             66.806
 Electronic               0.000              0.000              0.000
 Translational            0.889              2.981             38.389
 Rotational               0.889              2.981             24.080
 Vibrational             42.061              9.142              4.337
 Vibration     1          0.699              1.654              1.360
 Vibration     2          0.741              1.538              1.087
 Vibration     3          0.858              1.244              0.652

 Optimization completed.
    -- Stationary point found.
 Normal termination of Gaussian 09 at Tue Jul 19 22:59:17 2016.
