 Gaussian 09, Revision E.01,
 Gaussian 09:  EM64L-G09RevE.01 30-Nov-2015

 ---------------------------------------------
 #p b3lyp/6-311++G(3df,2p) freq symmetry=Loose
 ---------------------------------------------

 ---------
 b3lyp opt
 ---------
 Symbolic Z-matrix:
 Charge =  2 Multiplicity = 1

                         Standard orientation:
 ---------------------------------------------------------------------
 Center     Atomic      Atomic             Coordinates (Angstroms)
 Number     Number       Type             X           Y           Z
 ---------------------------------------------------------------------
      1          6           0        1.306163    0.070617   -0.000132
      2          6           0        0.101541    0.676602   -0.000074
      3          1           0        0.032202    1.787129   -0.000174
      4          6           0        2.438731   -0.401999   -0.000196
      5          1           0        3.434954   -0.824658   -0.000252
      6          6           0       -1.136396    0.078489    0.000102
      7          1           0       -3.212362    0.285299    0.000282
      8          6           0       -2.328389   -0.386146    0.000261
      9          1           0       -2.544700   -1.473153    0.000385
 ---------------------------------------------------------------------

 SCF Done:  E(RB3LYP) =  -191.996982850     A.U. after   15 cycles

 The electronic state is 1-A.
 Alpha  occ. eigenvalues --  -10.75787 -10.72864 -10.68966 -10.67126 -10.63853
 Alpha  occ. eigenvalues --   -1.31951  -1.24891  -1.18451  -1.05794  -0.97565
 Alpha  occ. eigenvalues --   -0.95151  -0.93665  -0.90223  -0.83899  -0.74756
 Alpha  occ. eigenvalues --   -0.72486
 Alpha virt. eigenvalues --   -0.59626  -0.58217  -0.43205  -0.40578  -0.33517
 Alpha virt. eigenvalues --   -0.31652  -0.28032  -0.27556  -0.25327  -0.25293
 Alpha virt. eigenvalues --   -0.24094  -0.23199  -0.22447  -0.20759  -0.20089

 Mulliken charges:
               1
     1  C    0.345140
     2  C   -0.304540
     3  H    0.266549
     4  C    0.147717
     5  H    0.405241
     6  C    0.714381
     7  H    0.340487
     8  C   -0.242751
     9  H    0.327776
 Sum of Mulliken charges =   2.00000

 Dipole moment (field-independent basis, Debye):
    X=             -2.3975    Y=             -0.3992    Z=              0.0003  Tot=              2.4305
 Quadrupole moment (field-independent basis, Debye-Ang):
   XX=             27.4389   YY=            -15.9699   ZZ=            -25.6700
   XY=             -1.2827   XZ=             -0.0050   YZ=             -0.0008

  Exact polarizability: 109.271  -1.834  37.371  -0.008  -0.001  25.737
 Approx polarizability: 232.587 -11.944  61.670  -0.018  -0.001  36.361

                      1                      2                      3
                      A                      A                      A
 Frequencies --    109.8858               233.2157               293.3195
 Red. masses --      3.5166                 1.8044                 4.7097
 Frc consts  --      0.0250                 0.0578                 0.2387
 IR Inten    --      7.2267                33.1705                 1.0000

                      4                      5                      6
                      A                      A                      A
 Frequencies --    300.4681               425.4887               427.7358
 Red. masses --      2.4124                 2.2740                 1.2871
 Frc consts  --      0.1283                 0.2426                 0.1387
 IR Inten    --      5.4307                19.8464                14.6247

                      7                      8                      9
                      A                      A                      A
 Frequencies --    719.4973               738.5192               838.7650
 Red. masses --      1.2576                 3.0893                 1.7155
 Frc consts  --      0.3836                 0.9928                 0.7111
 IR Inten    --     40.3363                 4.3767                 3.1323

                     10                     11                     12
                      A                      A                      A
 Frequencies --    896.0954               914.1974               929.8598
 Red. masses --      1.3997                 1.3420                 4.4662
 Frc consts  --      0.6622                 0.6608                 2.2752
 IR Inten    --      9.8933                49.5326                 2.6682

                     13                     14                     15
                      A                      A                      A
 Frequencies --   1114.0591              1215.0514              1380.7005
 Red. masses --      1.4188                 1.1149                 3.5632
 Frc consts  --      1.0375                 0.9698                 4.0021
 IR Inten    --      3.5376               151.0913                 1.1628

                     16                     17                     18
                      A                      A                      A
 Frequencies --   1754.7781              2123.2360              2879.4595
 Red. masses --      9.4185                 6.1623                 1.0726
 Frc consts  --     17.0874                16.3677                 5.2398
 IR Inten    --    182.8229               870.6024               457.1104

                     19                     20                     21
                      A                      A                      A
 Frequencies --   2915.7538              2956.5694              3278.7673
 Red. masses --      1.0699                 1.1061                 1.1680
 Frc consts  --      5.3593                 5.6969                 7.3983
 IR Inten    --    360.7405               273.5749               179.7423

 - Thermochemistry -
 -------------------
 Temperature   298.150 Kelvin.  Pressure   1.00000 Atm.
 Atom     1 has atomic number  6 and mass  12.00000

 Molecular mass:    64.03130 amu.
 Principal axes and moments of inertia in atomic units:
                           1         2         3
     Eigenvalues --    55.45291 718.70081 774.15371
           X            1.00000   0.00035   0.00010
           Y           -0.00035   1.00000   0.00010
           Z           -0.00010  -0.00010   1.00000
 This molecule is an asymmetric top.
 Rotational symmetry number  1.
 Rotational temperatures (Kelvin)      1.56193     0.12051     0.11188
 Rotational constants (GHZ):          32.54547     2.51112     2.33124
 Zero-point vibrational energy     158178.8 (Joules/Mol)
                                   37.80563 (Kcal/Mol)
 Warning -- explicit consideration of   6 degrees of freedom as
           vibrations may cause significant error
 Vibrational temperatures:    158.10   335.54   422.02   432.31   612.18
          (Kelvin)            615.42  1035.19  1062.56  1206.79  1289.28
                             1315.32  1337.86  1602.88  1748.19  1986.52
                             2524.73  3054.86  4142.89  4195.11  4253.84
                             4717.41

 Zero-point correction=                           0.060247 (Hartree/Particle)
 Thermal correction to Energy=                    0.066198
 Thermal correction to Enthalpy=                  0.067142
 Thermal correction to Gibbs Free Energy=         0.031837
 Sum of electronic and zero-point Energies=           -191.936736
 Sum of electronic and thermal Energies=              -191.930785
 Sum of electronic and thermal Enthalpies=            -191.929841
 Sum of electronic and thermal Free Energies=         -191.965146

                     E (Thermal)             CV                S
                      KCal/Mol        Cal/Mol-Kelvin    Cal/Mol-Kelvin
 Total                   41.540             20.077             74.305
 Electronic               0.000              0.000              0.000
 Translational            0.889              2.981             38.389
 Rotational               0.889              2.981             24.937
 Vibrational             39.762             14.115             10.979
 Vibration     1          0.606              1.941              3.271
 Vibration     2          0.654              1.790              1.854
 Vibration     3          0.688              1.686              1.455
 Vibration     4          0.693              1.673              1.414
 Vibration     5          0.787              1.415              0.874
 Vibration     6          0.789              1.410              0.866

 Optimization completed.
    -- Stationary point found.
 Normal termination of Gaussian 09 at Tue Jul 19 21:08:11 2016.
