 Gaussian 09, Revision E.01,
 Gaussian 09:  EM64L-G09RevE.01 30-Nov-2015

 ---------------------------------------------
 #p b3lyp/6-311++G(3df,2p) freq symmetry=Loose
 ---------------------------------------------

 ---------
 b3lyp opt
 ---------
 Symbolic Z-matrix:
 Charge =  0 Multiplicity = 3

                         Standard orientation:
 ---------------------------------------------------------------------
 Center     Atomic      Atomic             Coordinates (Angstroms)
 Number     Number       Type             X           Y           Z
 ---------------------------------------------------------------------
      1          6           0        1.392544    0.612601   -0.000000
      2          6           0       -1.895591   -0.919708    0.000000
      3          1           0        2.046403    1.491415   -0.000000
      4          1           0       -2.296414   -1.316798    0.926709
      5          1           0       -2.296414   -1.316798   -0.926709
      6          6           0        1.938103   -0.689101    0.000000
      7          6           0       -0.957199   -0.036368    0.000000
      8          6           0        0.000000    0.899786   -0.000000
      9          1           0       -0.320716    1.938920   -0.000000
 ---------------------------------------------------------------------

 SCF Done:  E(UB3LYP) =  -192.733286878     A.U. after   17 cycles

 The electronic state is 3-A".
 Alpha  occ. eigenvalues --  -10.24891 -10.23190 -10.21645 -10.21298 -10.19155
 Alpha  occ. eigenvalues --   -0.86315  -0.79645  -0.71598  -0.60099  -0.52930
 Alpha  occ. eigenvalues --   -0.50088  -0.49052  -0.45848  -0.36958  -0.32070
 Alpha  occ. eigenvalues --   -0.27680  -0.26193  -0.19036
 Alpha virt. eigenvalues --   -0.07627  -0.03638  -0.01130   0.00440   0.01462
 Alpha virt. eigenvalues --    0.02329   0.04577   0.04952   0.06403   0.06687
 Alpha virt. eigenvalues --    0.07395   0.09278   0.09890   0.10245   0.10500

  Beta  occ. eigenvalues --  -10.24293 -10.23145 -10.21383 -10.21167 -10.17420
  Beta  occ. eigenvalues --   -0.84980  -0.78427  -0.69099  -0.58066  -0.51988
  Beta  occ. eigenvalues --   -0.48902  -0.48029  -0.44327  -0.34056  -0.31651
  Beta  occ. eigenvalues --   -0.24824
  Beta virt. eigenvalues --   -0.16474  -0.04456  -0.04202  -0.02773  -0.00795
  Beta virt. eigenvalues --    0.00563   0.01983   0.02409   0.05113   0.06538
  Beta virt. eigenvalues --    0.06790   0.06986   0.07641   0.09488   0.10384

 Mulliken charges and spin densities:
               1          2
     1  C    0.150380   0.475981
     2  C   -0.419268  -0.071335
     3  H    0.147940   0.048045
     4  H    0.180572   0.030665
     5  H    0.180572   0.030665
     6  C   -0.712806   1.180646
     7  C    0.633964   0.376876
     8  C   -0.313842  -0.083068
     9  H    0.152489   0.011526
 Sum of Mulliken charges =  -0.00000   2.00000

 Dipole moment (field-independent basis, Debye):
    X=             -3.8993    Y=              2.4501    Z=             -0.0000  Tot=              4.6051
 Quadrupole moment (field-independent basis, Debye-Ang):
   XX=            -33.9062   YY=            -30.1427   ZZ=            -29.8166
   XY=              8.4789   XZ=              0.0000   YZ=              0.0000

  Exact polarizability: 101.998  10.540  66.938  -0.000   0.000  47.360
 Approx polarizability: 140.779  19.244 101.367   0.000   0.000  63.345

                      1                      2                      3
                     A'                     A"                     A"
 Frequencies --    159.1621               174.1250               298.2958
 Red. masses --      4.9646                 2.9569                 1.7904
 Frc consts  --      0.0741                 0.0528                 0.0939
 IR Inten    --     10.0052                29.8324                 0.3909

                      4                      5                      6
                     A'                     A"                     A"
 Frequencies --    354.1152               434.2507               587.9759
 Red. masses --      7.1855                 1.2674                 1.3303
 Frc consts  --      0.5309                 0.1408                 0.2710
 IR Inten    --      7.0633                10.7308                 5.7523

                      7                      8                      9
                     A'                     A'                     A'
 Frequencies --    677.9983               875.0492               945.3791
 Red. masses --      6.6724                 1.3172                 3.9848
 Frc consts  --      1.8071                 0.5942                 2.0983
 IR Inten    --     16.9544                50.1358                10.4197

                     10                     11                     12
                     A"                     A"                     A'
 Frequencies --    950.8710               955.3716              1091.5147
 Red. masses --      1.3082                 1.5553                 2.1860
 Frc consts  --      0.6969                 0.8364                 1.5345
 IR Inten    --      7.2229                 6.3595                44.8673

                     13                     14                     15
                     A'                     A'                     A'
 Frequencies --   1204.9445              1363.5865              1408.2245
 Red. masses --      1.2841                 1.6680                 2.3076
 Frc consts  --      1.0984                 1.8273                 2.6962
 IR Inten    --      9.9000                 9.1001                30.7316

                     16                     17                     18
                     A'                     A'                     A'
 Frequencies --   1440.7663              1951.5324              3003.7034
 Red. masses --      1.5941                 9.8803                 1.0818
 Frc consts  --      1.9497                22.1703                 5.7507
 IR Inten    --     13.8061               190.7803                44.3172

                     19                     20                     21
                     A'                     A'                     A"
 Frequencies --   3105.3392              3109.5872              3175.3751
 Red. masses --      1.0601                 1.0853                 1.1130
 Frc consts  --      6.0229                 6.1832                 6.6120
 IR Inten    --      5.6773                 7.0941                 1.9642

 - Thermochemistry -
 -------------------
 Temperature   298.150 Kelvin.  Pressure   1.00000 Atm.
 Atom     1 has atomic number  6 and mass  12.00000

 Molecular mass:    64.03130 amu.
 Principal axes and moments of inertia in atomic units:
                           1         2         3
     Eigenvalues --   127.47128 516.56168 631.66979
           X            0.97380  -0.22741   0.00000
           Y            0.22741   0.97380   0.00000
           Z            0.00000  -0.00000   1.00000
 This molecule is an asymmetric top.
 Rotational symmetry number  1.
 Rotational temperatures (Kelvin)      0.67948     0.16767     0.13712
 Rotational constants (GHZ):          14.15802     3.49376     2.85710
 Zero-point vibrational energy     163093.9 (Joules/Mol)
                                   38.98037 (Kcal/Mol)
 Warning -- explicit consideration of   6 degrees of freedom as
           vibrations may cause significant error
 Vibrational temperatures:    229.00   250.53   429.18   509.49   624.79
          (Kelvin)            845.97   975.49  1259.00  1360.19  1368.09
                             1374.56  1570.44  1733.64  1961.89  2026.12
                             2072.94  2807.82  4321.65  4467.88  4474.00
                             4568.65

 Zero-point correction=                           0.062119 (Hartree/Particle)
 Thermal correction to Energy=                    0.067785
 Thermal correction to Enthalpy=                  0.068729
 Thermal correction to Gibbs Free Energy=         0.032792
 Sum of electronic and zero-point Energies=           -192.671168
 Sum of electronic and thermal Energies=              -192.665502
 Sum of electronic and thermal Enthalpies=            -192.664558
 Sum of electronic and thermal Free Energies=         -192.700495

                     E (Thermal)             CV                S
                      KCal/Mol        Cal/Mol-Kelvin    Cal/Mol-Kelvin
 Total                   42.536             18.954             75.637
 Electronic               0.000              0.000              2.183
 Translational            0.889              2.981             38.389
 Rotational               0.889              2.981             25.234
 Vibrational             40.758             12.993              9.830
 Vibration     1          0.621              1.892              2.560
 Vibration     2          0.627              1.874              2.390
 Vibration     3          0.691              1.677              1.426
 Vibration     4          0.730              1.567              1.148
 Vibration     5          0.795              1.396              0.845
 Vibration     6          0.945              1.057              0.471

 Optimization completed.
    -- Stationary point found.
 Normal termination of Gaussian 09 at Wed Jul 20 04:09:34 2016.
