 Gaussian 09, Revision E.01,
 Gaussian 09:  EM64L-G09RevE.01 30-Nov-2015

 ---------------------------------------------
 #p b3lyp/6-311++G(3df,2p) freq symmetry=Loose
 ---------------------------------------------

 ---------
 b3lyp opt
 ---------
 Symbolic Z-matrix:
 Charge =  3 Multiplicity = 4

                         Standard orientation:
 ---------------------------------------------------------------------
 Center     Atomic      Atomic             Coordinates (Angstroms)
 Number     Number       Type             X           Y           Z
 ---------------------------------------------------------------------
      1          6           0       -2.594965    0.484256    0.000000
      2          6           0       -0.000000    0.458208    0.000000
      3          1           0       -1.362947   -0.941259    0.910825
      4          1           0        0.038829    1.578320    0.000000
      5          6           0        1.254140   -0.076680    0.000000
      6          6           0        2.491093   -0.422946   -0.000000
      7          1           0        3.560852   -0.733644   -0.000000
      8          6           0       -1.295899   -0.269864   -0.000000
      9          1           0       -1.362947   -0.941259   -0.910825
 ---------------------------------------------------------------------

 SCF Done:  E(UB3LYP) =  -191.021701603     A.U. after   18 cycles

 The electronic state is 4-A'.
 Alpha  occ. eigenvalues --  -11.02219 -11.00743 -10.97933 -10.96655 -10.90977
 Alpha  occ. eigenvalues --   -1.55157  -1.49390  -1.41255  -1.26182  -1.21708
 Alpha  occ. eigenvalues --   -1.18908  -1.12527  -1.11591  -1.03713  -1.03214
 Alpha  occ. eigenvalues --   -1.02617  -0.91882
 Alpha virt. eigenvalues --   -0.83467  -0.78262  -0.71284  -0.62489  -0.52942
 Alpha virt. eigenvalues --   -0.50611  -0.49604  -0.45262  -0.45003  -0.44169
 Alpha virt. eigenvalues --   -0.41111  -0.40125  -0.38944  -0.37814  -0.36162

  Beta  occ. eigenvalues --  -10.99752 -10.98575 -10.97874 -10.95977 -10.90579
  Beta  occ. eigenvalues --   -1.53120  -1.46028  -1.38446  -1.21652  -1.19761
  Beta  occ. eigenvalues --   -1.17875  -1.11212  -1.08763  -1.02167
  Beta virt. eigenvalues --   -0.88883  -0.82623  -0.82476  -0.73576  -0.70651
  Beta virt. eigenvalues --   -0.64841  -0.61618  -0.51048  -0.49686  -0.48577
  Beta virt. eigenvalues --   -0.44651  -0.43790  -0.42372  -0.40434  -0.39408

 Mulliken charges and spin densities:
               1          2
     1  C    0.480413   1.752625
     2  C    0.198295   0.004490
     3  H    0.330079   0.011851
     4  H    0.297632   0.039371
     5  C    0.527298   0.472776
     6  C    0.438111   0.470103
     7  H    0.494758  -0.016757
     8  C   -0.096665   0.253691
     9  H    0.330079   0.011851
 Sum of Mulliken charges =   3.00000   3.00000

 Dipole moment (field-independent basis, Debye):
    X=              1.6377    Y=             -0.3722    Z=              0.0000  Tot=              1.6795
 Quadrupole moment (field-independent basis, Debye-Ang):
   XX=             47.9099   YY=            -14.4526   ZZ=            -20.3235
   XY=             -9.0012   XZ=              0.0000   YZ=              0.0000

  Exact polarizability:  80.937 -10.599  32.882  -0.000   0.000  26.425
 Approx polarizability: 134.872 -24.868  51.804   0.000  -0.000  39.463

                      1                      2                      3
                     A"                     A'                     A"
 Frequencies --     98.8895               171.2383               266.2734
 Red. masses --      2.5516                 4.0281                 2.4502
 Frc consts  --      0.0147                 0.0696                 0.1024
 IR Inten    --      0.8482                 9.0644                70.3193

                      4                      5                      6
                     A'                     A"                     A'
 Frequencies --    410.4239               426.3947               486.2274
 Red. masses --      5.3948                 1.9723                 5.0031
 Frc consts  --      0.5354                 0.2113                 0.6969
 IR Inten    --      3.1667                31.1395                 6.3297

                      7                      8                      9
                     A'                     A"                     A'
 Frequencies --    694.0328               706.8242               797.8819
 Red. masses --      1.3914                 1.3406                 5.9028
 Frc consts  --      0.3949                 0.3946                 2.2140
 IR Inten    --     21.3349                 0.0076                36.9017

                     10                     11                     12
                     A"                     A'                     A'
 Frequencies --    830.8551               904.2843              1042.1371
 Red. masses --      1.3554                 5.6033                 1.9325
 Frc consts  --      0.5513                 2.6996                 1.2366
 IR Inten    --     16.0092                19.5779                51.8146

                     13                     14                     15
                     A"                     A'                     A'
 Frequencies --   1115.8691              1153.4852              1223.7728
 Red. masses --      1.3012                 1.0634                 1.3854
 Frc consts  --      0.9546                 0.8336                 1.2224
 IR Inten    --      2.6238                30.6458                26.2530

                     16                     17                     18
                     A'                     A'                     A'
 Frequencies --   1314.0018              1820.1623              2673.7673
 Red. masses --      1.8027                 6.0930                 1.0578
 Frc consts  --      1.8339                11.8933                 4.4557
 IR Inten    --     18.4718               681.2891               280.1070

                     19                     20                     21
                     A"                     A'                     A'
 Frequencies --   2677.2822              2799.0655              2966.0617
 Red. masses --      1.0848                 1.0809                 1.1647
 Frc consts  --      4.5813                 4.9896                 6.0372
 IR Inten    --    268.7313               349.8769               490.2023

 - Thermochemistry -
 -------------------
 Temperature   298.150 Kelvin.  Pressure   1.00000 Atm.
 Atom     1 has atomic number  6 and mass  12.00000

 Molecular mass:    64.03130 amu.
 Principal axes and moments of inertia in atomic units:
                           1         2         3
     Eigenvalues --    42.45849 769.61425 800.12977
           X            0.99253   0.12197   0.00000
           Y           -0.12197   0.99253   0.00000
           Z            0.00000  -0.00000   1.00000
 This molecule is an asymmetric top.
 Rotational symmetry number  1.
 Rotational temperatures (Kelvin)      2.03996     0.11254     0.10825
 Rotational constants (GHZ):          42.50601     2.34499     2.25556
 Zero-point vibrational energy     147014.6 (Joules/Mol)
                                   35.13734 (Kcal/Mol)
 Warning -- explicit consideration of   6 degrees of freedom as
           vibrations may cause significant error
 Vibrational temperatures:    142.28   246.37   383.11   590.51   613.49
          (Kelvin)            699.57   998.56  1016.96  1147.97  1195.41
                             1301.06  1499.40  1605.48  1659.61  1760.73
                             1890.55  2618.80  3846.95  3852.01  4027.23
                             4267.50

 Zero-point correction=                           0.055995 (Hartree/Particle)
 Thermal correction to Energy=                    0.061983
 Thermal correction to Enthalpy=                  0.062927
 Thermal correction to Gibbs Free Energy=         0.026190
 Sum of electronic and zero-point Energies=           -190.965707
 Sum of electronic and thermal Energies=              -190.959719
 Sum of electronic and thermal Enthalpies=            -190.958774
 Sum of electronic and thermal Free Energies=         -190.995511

                     E (Thermal)             CV                S
                      KCal/Mol        Cal/Mol-Kelvin    Cal/Mol-Kelvin
 Total                   38.895             20.266             77.319
 Electronic               0.000              0.000              2.755
 Translational            0.889              2.981             38.389
 Rotational               0.889              2.981             24.773
 Vibrational             37.117             14.305             11.402
 Vibration     1          0.604              1.950              3.476
 Vibration     2          0.626              1.878              2.422
 Vibration     3          0.672              1.735              1.620
 Vibration     4          0.775              1.448              0.925
 Vibration     5          0.788              1.413              0.871
 Vibration     6          0.842              1.281              0.693

 Normal termination of Gaussian 09 at Wed Jul 20 09:03:13 2016.
