 Gaussian 09, Revision E.01,
 Gaussian 09:  EM64L-G09RevE.01 30-Nov-2015

 ------------------------------------------------------
 #p b3lyp/6-311++G(3df,2p) freq IOp(2/17=3) IOp(2/18=3)
 ------------------------------------------------------

 ---------
 b3lyp opt
 ---------
 Symbolic Z-matrix:
 Charge =  0 Multiplicity = 1

                         Standard orientation:
 ---------------------------------------------------------------------
 Center     Atomic      Atomic             Coordinates (Angstroms)
 Number     Number       Type             X           Y           Z
 ---------------------------------------------------------------------
      1          6           0        0.000000    1.248121    0.000000
      2          6           0       -0.561836   -0.874236    0.000000
      3          1           0       -0.641126   -1.482949   -0.894266
      4          1           0       -0.641126   -1.482949    0.894266
      5          1           0       -1.912456    0.680388   -0.877045
      6          6           0       -1.300198    0.457642    0.000000
      7          1           0       -1.912456    0.680388    0.877045
      8          6           0        0.785242    0.022882    0.000000
      9          6           0        1.927888   -0.586906    0.000000
 ---------------------------------------------------------------------

 SCF Done:  E(RB3LYP) =  -192.700593334     A.U. after   15 cycles

 The electronic state is 1-A'.
 Alpha  occ. eigenvalues --  -10.24845 -10.23965 -10.23845 -10.20587 -10.19883
 Alpha  occ. eigenvalues --   -0.89906  -0.76373  -0.68506  -0.62842  -0.50833
 Alpha  occ. eigenvalues --   -0.46263  -0.42623  -0.40887  -0.39507  -0.32410
 Alpha  occ. eigenvalues --   -0.30791  -0.23691
 Alpha virt. eigenvalues --   -0.13099  -0.11883  -0.01542   0.00647   0.01051
 Alpha virt. eigenvalues --    0.03307   0.03834   0.05263   0.05492   0.06478
 Alpha virt. eigenvalues --    0.06771   0.08393   0.09458   0.10484   0.11271

 Mulliken charges:
               1
     1  C   -0.454809
     2  C   -0.525936
     3  H    0.188686
     4  H    0.188686
     5  H    0.151631
     6  C   -0.060264
     7  H    0.151631
     8  C    0.837630
     9  C   -0.477253
 Sum of Mulliken charges =  -0.00000

 Dipole moment (field-independent basis, Debye):
    X=             -3.5463    Y=             -1.5651    Z=             -0.0000  Tot=              3.8763
 Quadrupole moment (field-independent basis, Debye-Ang):
   XX=            -33.5852   YY=            -35.2478   ZZ=            -29.0234
   XY=              1.7485   XZ=              0.0000   YZ=              0.0000

  Exact polarizability:  76.733 -12.805  63.980   0.000  -0.000  44.751
 Approx polarizability: 151.605 -49.085 118.615   0.000  -0.000  68.483

                      1                      2                      3
                     A"                     A'                     A"
 Frequencies --     53.6856               106.1473               275.0285
 Red. masses --      2.3094                 7.7641                 3.7712
 Frc consts  --      0.0039                 0.0515                 0.1681
 IR Inten    --      0.7465                 3.4430                13.9380

                      4                      5                      6
                     A'                     A"                     A'
 Frequencies --    561.8164               665.6730               712.8084
 Red. masses --      7.7357                 1.3092                 7.0437
 Frc consts  --      1.4386                 0.3418                 2.1086
 IR Inten    --     57.7135                 0.0023                25.0246

                      7                      8                      9
                     A"                     A'                     A'
 Frequencies --    858.1924               909.6300               924.1360
 Red. masses --      1.3085                 4.9453                 3.5529
 Frc consts  --      0.5678                 2.4109                 1.7878
 IR Inten    --     12.1339                 0.6690                30.7806

                     10                     11                     12
                     A'                     A"                     A"
 Frequencies --   1003.4837              1036.0241              1195.1344
 Red. masses --      2.9816                 1.1399                 1.2099
 Frc consts  --      1.7690                 0.7209                 1.0182
 IR Inten    --      3.9755                 0.1490                 1.6503

                     13                     14                     15
                     A'                     A'                     A'
 Frequencies --   1225.3782              1239.1979              1403.5980
 Red. masses --      1.5055                 1.5325                 1.1018
 Frc consts  --      1.3319                 1.3865                 1.2789
 IR Inten    --     34.9763                 7.8279                26.9522

                     16                     17                     18
                     A'                     A'                     A'
 Frequencies --   1479.4142              1753.4859              3035.1274
 Red. masses --      1.1172                11.6005                 1.0596
 Frc consts  --      1.4407                21.0151                 5.7509
 IR Inten    --      4.4987               415.0325                 3.3298

                     19                     20                     21
                     A"                     A'                     A"
 Frequencies --   3068.0081              3095.2256              3165.1794
 Red. masses --      1.1011                 1.0556                 1.1138
 Frc consts  --      6.1065                 5.9587                 6.5747
 IR Inten    --      0.0898                13.4955                 3.3745

 - Thermochemistry -
 -------------------
 Temperature   298.150 Kelvin.  Pressure   1.00000 Atm.
 Atom     1 has atomic number  6 and mass  12.00000

 Molecular mass:    64.03130 amu.
 Principal axes and moments of inertia in atomic units:
                           1         2         3
     Eigenvalues --   136.17045 328.22314 441.80737
           X            0.95360   0.30108   0.00000
           Y           -0.30108   0.95360   0.00000
           Z            0.00000  -0.00000   1.00000
 This molecule is an asymmetric top.
 Rotational symmetry number  1.
 Rotational temperatures (Kelvin)      0.63607     0.26389     0.19604
 Rotational constants (GHZ):          13.25354     5.49852     4.08491
 Zero-point vibrational energy     166079.8 (Joules/Mol)
                                   39.69403 (Kcal/Mol)
 Warning -- explicit consideration of   4 degrees of freedom as
           vibrations may cause significant error
 Vibrational temperatures:     77.24   152.72   395.70   808.33   957.75
          (Kelvin)           1025.57  1234.75  1308.75  1329.62  1443.79
                             1490.61  1719.53  1763.04  1782.93  2019.46
                             2128.54  2522.87  4366.87  4414.17  4453.33
                             4553.98

 Zero-point correction=                           0.063256 (Hartree/Particle)
 Thermal correction to Energy=                    0.068802
 Thermal correction to Enthalpy=                  0.069747
 Thermal correction to Gibbs Free Energy=         0.034410
 Sum of electronic and zero-point Energies=           -192.637337
 Sum of electronic and thermal Energies=              -192.631791
 Sum of electronic and thermal Enthalpies=            -192.630847
 Sum of electronic and thermal Free Energies=         -192.666183

                     E (Thermal)             CV                S
                      KCal/Mol        Cal/Mol-Kelvin    Cal/Mol-Kelvin
 Total                   43.174             17.437             74.372
 Electronic               0.000              0.000              0.000
 Translational            0.889              2.981             38.389
 Rotational               0.889              2.981             24.494
 Vibrational             41.397             11.476             11.489
 Vibration     1          0.596              1.976              4.677
 Vibration     2          0.605              1.944              3.338
 Vibration     3          0.677              1.720              1.564
 Vibration     4          0.918              1.114              0.520

 Normal termination of Gaussian 09 at Thu Jan 31 06:37:13 2019.
