 Gaussian 09, Revision E.01,
 Gaussian 09:  EM64L-G09RevE.01 30-Nov-2015

 ---------------------------------------------
 #p b3lyp/6-311++G(3df,2p) freq symmetry=Loose
 ---------------------------------------------

 ---------
 b3lyp opt
 ---------
 Symbolic Z-matrix:
 Charge =  1 Multiplicity = 4

                         Standard orientation:
 ---------------------------------------------------------------------
 Center     Atomic      Atomic             Coordinates (Angstroms)
 Number     Number       Type             X           Y           Z
 ---------------------------------------------------------------------
      1          6           0        0.000000   -0.000000    0.391459
      2          6           0       -0.000000    0.000000   -1.547170
      3          6           0        0.000000    1.064195   -0.601751
      4          1           0        0.000000    2.139724   -0.613999
      5          6           0       -0.000000   -1.064195   -0.601751
      6          1           0       -0.000000   -2.139724   -0.613999
      7          6           0        0.000000   -0.000000    1.785173
      8          1           0       -0.000000   -0.931633    2.336122
      9          1           0        0.000000    0.931633    2.336122
 ---------------------------------------------------------------------

 SCF Done:  E(UB3LYP) =  -192.457195460     A.U. after   14 cycles

 The electronic state is 4-B2.
 Alpha  occ. eigenvalues --  -10.50200 -10.48043 -10.45940 -10.44206 -10.44201
 Alpha  occ. eigenvalues --   -1.17010  -1.00644  -0.91364  -0.82190  -0.76278
 Alpha  occ. eigenvalues --   -0.70843  -0.70453  -0.65688  -0.64803  -0.61514
 Alpha  occ. eigenvalues --   -0.51659  -0.50620  -0.44160
 Alpha virt. eigenvalues --   -0.30458  -0.16942  -0.15166  -0.12534  -0.12109
 Alpha virt. eigenvalues --   -0.11249  -0.10879  -0.10130  -0.09235  -0.05762
 Alpha virt. eigenvalues --   -0.05445  -0.05190  -0.04676  -0.03415  -0.02635

  Beta  occ. eigenvalues --  -10.48349 -10.47920 -10.44965 -10.43103 -10.43100
  Beta  occ. eigenvalues --   -1.14102  -0.97437  -0.88099  -0.79217  -0.74711
  Beta  occ. eigenvalues --   -0.69714  -0.67085  -0.63229  -0.60504  -0.59884
  Beta virt. eigenvalues --   -0.40096  -0.33603  -0.31164  -0.24569  -0.14820
  Beta virt. eigenvalues --   -0.12684  -0.12071  -0.11917  -0.10425  -0.10364
  Beta virt. eigenvalues --   -0.09749  -0.07143  -0.04840  -0.04555  -0.04484

 Mulliken charges and spin densities:
               1          2
     1  C    0.611583  -0.001220
     2  C    0.278652   1.045599
     3  C   -0.217947   0.728098
     4  H    0.305186  -0.019052
     5  C   -0.217947   0.728098
     6  H    0.305186  -0.019052
     7  C   -0.535569   0.569035
     8  H    0.235428  -0.015752
     9  H    0.235428  -0.015752
 Sum of Mulliken charges =   1.00000   3.00000

 Dipole moment (field-independent basis, Debye):
    X=             -0.0000    Y=              0.0000    Z=              1.6628  Tot=              1.6628
 Quadrupole moment (field-independent basis, Debye-Ang):
   XX=            -28.1298   YY=            -17.8198   ZZ=            -15.4465
   XY=              0.0000   XZ=              0.0000   YZ=              0.0000

  Exact polarizability:  29.908  -0.000  51.015   0.000   0.000  69.551
 Approx polarizability:  44.816   0.000  80.545  -0.000   0.000 117.472

                      1                      2                      3
                     B1                     B2                     A2
 Frequencies --    188.9264               348.2020               370.1909
 Red. masses --      5.8941                 2.4245                 1.0150
 Frc consts  --      0.1240                 0.1732                 0.0820
 IR Inten    --      2.9079                 1.9113                 0.0000

                      4                      5                      6
                     B1                     A2                     B1
 Frequencies --    556.0505               596.7290               672.7476
 Red. masses --      1.3590                 1.3554                 2.8884
 Frc consts  --      0.2476                 0.2844                 0.7702
 IR Inten    --     40.3980                 0.0000                20.5924

                      7                      8                      9
                     A1                     B2                     A1
 Frequencies --    715.0841               873.0062               914.9393
 Red. masses --      4.3335                 2.9750                 2.4092
 Frc consts  --      1.3056                 1.3359                 1.1882
 IR Inten    --      2.3951                23.1509                 0.3538

                     10                     11                     12
                     B1                     B2                     B2
 Frequencies --    987.7169              1012.8298              1121.3200
 Red. masses --      1.3921                 2.4009                 1.3707
 Frc consts  --      0.8002                 1.4511                 1.0155
 IR Inten    --     20.6144                31.2287                 1.5269

                     13                     14                     15
                     A1                     B2                     A1
 Frequencies --   1125.1354              1229.8323              1284.3049
 Red. masses --      2.2108                 3.3662                 3.5869
 Frc consts  --      1.6490                 2.9998                 3.4858
 IR Inten    --     16.1404                 0.4549                80.9224

                     16                     17                     18
                     A1                     A1                     A1
 Frequencies --   1450.5382              1534.2843              3143.1623
 Red. masses --      1.4569                 3.0415                 1.0537
 Frc consts  --      1.8061                 4.2185                 6.1334
 IR Inten    --      0.8614                 5.8591                20.0869

                     19                     20                     21
                     B2                     B2                     A1
 Frequencies --   3255.1230              3274.5940              3281.6072
 Red. masses --      1.1223                 1.0943                 1.1063
 Frc consts  --      7.0062                 6.9138                 7.0193
 IR Inten    --     15.1991                96.6970                 0.2975

 - Thermochemistry -
 -------------------
 Temperature   298.150 Kelvin.  Pressure   1.00000 Atm.
 Atom     1 has atomic number  6 and mass  12.00000

 Molecular mass:    64.03130 amu.
 Principal axes and moments of inertia in atomic units:
                           1         2         3
     Eigenvalues --   136.26546 318.08962 454.35508
           X            0.00000   0.00000   1.00000
           Y            0.00000   1.00000  -0.00000
           Z            1.00000  -0.00000  -0.00000
 This molecule is an asymmetric top.
 Rotational symmetry number  2.
 Rotational temperatures (Kelvin)      0.63563     0.27229     0.19063
 Rotational constants (GHZ):          13.24430     5.67369     3.97209
 Zero-point vibrational energy     167096.3 (Joules/Mol)
                                   39.93698 (Kcal/Mol)
 Warning -- explicit consideration of   5 degrees of freedom as
           vibrations may cause significant error
 Vibrational temperatures:    271.82   500.98   532.62   800.03   858.56
          (Kelvin)            967.93  1028.85  1256.06  1316.39  1421.10
                             1457.23  1613.33  1618.82  1769.45  1847.83
                             2087.00  2207.49  4522.30  4683.39  4711.40
                             4721.49

 Zero-point correction=                           0.063644 (Hartree/Particle)
 Thermal correction to Energy=                    0.068603
 Thermal correction to Enthalpy=                  0.069547
 Thermal correction to Gibbs Free Energy=         0.035792
 Sum of electronic and zero-point Energies=           -192.393552
 Sum of electronic and thermal Energies=              -192.388593
 Sum of electronic and thermal Enthalpies=            -192.387648
 Sum of electronic and thermal Free Energies=         -192.421403

                     E (Thermal)             CV                S
                      KCal/Mol        Cal/Mol-Kelvin    Cal/Mol-Kelvin
 Total                   43.049             17.569             71.043
 Electronic               0.000              0.000              2.755
 Translational            0.889              2.981             38.389
 Rotational               0.889              2.981             23.114
 Vibrational             41.271             11.607              6.785
 Vibration     1          0.633              1.855              2.238
 Vibration     2          0.726              1.579              1.174
 Vibration     3          0.742              1.533              1.079
 Vibration     4          0.912              1.126              0.532
 Vibration     5          0.955              1.039              0.455

 Optimization completed.
    -- Stationary point found.
 Normal termination of Gaussian 09 at Wed Jul 20 16:46:01 2016.
