 Gaussian 09, Revision E.01,
 Gaussian 09:  EM64L-G09RevE.01 30-Nov-2015

 ------------------------------------------------------
 #p b3lyp/6-311++G(3df,2p) freq IOp(2/17=3) IOp(2/18=3)
 ------------------------------------------------------

 ---------
 b3lyp opt
 ---------
 Symbolic Z-matrix:
 Charge =  3 Multiplicity = 2

                         Standard orientation:
 ---------------------------------------------------------------------
 Center     Atomic      Atomic             Coordinates (Angstroms)
 Number     Number       Type             X           Y           Z
 ---------------------------------------------------------------------
      1          6           0        0.000000   -0.000000   -0.363703
      2          6           0        0.000000    0.000000    0.976442
      3          6           0       -0.000000   -0.679392   -1.622503
      4          1           0       -0.000000   -1.697839   -2.069915
      5          6           0        0.000000    0.679392   -1.622503
      6          1           0        0.000000    1.697839   -2.069915
      7          6           0        0.000000    0.000000    2.342930
      8          1           0       -0.000000   -0.962938    2.937499
      9          1           0        0.000000    0.962938    2.937499
 ---------------------------------------------------------------------

 SCF Done:  E(UB3LYP) =  -191.184805269     A.U. after   14 cycles

 The electronic state is 2-B1.
 Alpha  occ. eigenvalues --  -11.05770 -10.98806 -10.97426 -10.97076 -10.97007
 Alpha  occ. eigenvalues --   -1.65360  -1.54915  -1.42555  -1.26422  -1.21553
 Alpha  occ. eigenvalues --   -1.19931  -1.14850  -1.12370  -1.10114  -1.05875
 Alpha  occ. eigenvalues --   -1.03781
 Alpha virt. eigenvalues --   -0.84050  -0.81127  -0.70647  -0.63723  -0.55325
 Alpha virt. eigenvalues --   -0.50655  -0.50009  -0.48712  -0.46662  -0.45162
 Alpha virt. eigenvalues --   -0.42474  -0.41727  -0.41610  -0.39561  -0.37411

  Beta  occ. eigenvalues --  -11.04876 -10.98364 -10.97651 -10.96810 -10.96743
  Beta  occ. eigenvalues --   -1.64591  -1.52123  -1.41625  -1.25969  -1.20909
  Beta  occ. eigenvalues --   -1.19479  -1.14340  -1.09732  -1.09093  -1.05920
  Beta virt. eigenvalues --   -0.93180  -0.82995  -0.77759  -0.68406  -0.60427
  Beta virt. eigenvalues --   -0.54117  -0.50463  -0.49833  -0.48361  -0.46344
  Beta virt. eigenvalues --   -0.44810  -0.42369  -0.41202  -0.41099  -0.39008

 Mulliken charges and spin densities:
               1          2
     1  C    0.086941   0.000578
     2  C    0.657380   0.521139
     3  C    0.230354   0.141932
     4  H    0.421137  -0.005123
     5  C    0.230354   0.141932
     6  H    0.421137  -0.005123
     7  C    0.177211   0.223762
     8  H    0.387744  -0.009548
     9  H    0.387744  -0.009548
 Sum of Mulliken charges =   3.00000   1.00000

 Dipole moment (field-independent basis, Debye):
    X=              0.0000    Y=              0.0000    Z=              3.2167  Tot=              3.2167
 Quadrupole moment (field-independent basis, Debye-Ang):
   XX=            -22.1742   YY=             -8.5749   ZZ=             39.1626
   XY=              0.0000   XZ=             -0.0000   YZ=             -0.0000

  Exact polarizability:  21.604   0.000  33.282  -0.000  -0.000  90.066
 Approx polarizability:  32.098   0.000  50.836  -0.000   0.000 174.316

                      1                      2                      3
                     B2                     B1                     A2
 Frequencies --    176.3338               205.5850               226.2467
 Red. masses --      2.9624                 4.4392                 1.0572
 Frc consts  --      0.0543                 0.1105                 0.0319
 IR Inten    --     18.8230                23.8803                 0.0000

                      4                      5                      6
                     B2                     B1                     A1
 Frequencies --    446.3936               490.4270               654.4682
 Red. masses --      2.1942                 5.4561                 5.0900
 Frc consts  --      0.2576                 0.7732                 1.2845
 IR Inten    --      3.2831                 3.8417                 1.3668

                      7                      8                      9
                     B1                     B2                     A2
 Frequencies --    807.2963               814.0630               825.1712
 Red. masses --      1.2288                 2.7170                 1.5006
 Frc consts  --      0.4718                 1.0608                 0.6020
 IR Inten    --     54.6886                20.3287                 0.0000

                     10                     11                     12
                     A1                     B2                     B1
 Frequencies --    905.0808               939.2293               988.3066
 Red. masses --      1.1355                 2.3776                 1.3694
 Frc consts  --      0.5480                 1.2358                 0.7880
 IR Inten    --      0.0113                93.0265                34.3084

                     13                     14                     15
                     B2                     A1                     A1
 Frequencies --   1011.7148              1145.2308              1230.0070
 Red. masses --      1.6445                 3.1420                 1.4432
 Frc consts  --      0.9917                 2.4280                 1.2864
 IR Inten    --      6.1067               442.8213                18.3608

                     16                     17                     18
                     A1                     A1                     A1
 Frequencies --   1384.1879              1654.5545              2681.5271
 Red. masses --      5.1811                 6.9313                 1.0469
 Frc consts  --      5.8487                11.1796                 4.4352
 IR Inten    --    180.2890               485.0109              1082.6643

                     19                     20                     21
                     B2                     B2                     A1
 Frequencies --   2747.8701              2917.6191              2967.8038
 Red. masses --      1.1164                 1.0972                 1.1571
 Frc consts  --      4.9665                 5.5028                 6.0046
 IR Inten    --    441.1026               575.8236               256.8853

 - Thermochemistry -
 -------------------
 Temperature   298.150 Kelvin.  Pressure   1.00000 Atm.
 Atom     1 has atomic number  6 and mass  12.00000

 Molecular mass:    64.03130 amu.
 Principal axes and moments of inertia in atomic units:
                           1         2         3
     Eigenvalues --    66.98325 600.16544 667.14868
           X            0.00000  -0.00000   1.00000
           Y            0.00000   1.00000   0.00000
           Z            1.00000   0.00000  -0.00000
 This molecule is an asymmetric top.
 Rotational symmetry number  2.
 Rotational temperatures (Kelvin)      1.29307     0.14432     0.12983
 Rotational constants (GHZ):          26.94317     3.00707     2.70516
 Zero-point vibrational energy     150843.8 (Joules/Mol)
                                   36.05254 (Kcal/Mol)
 Warning -- explicit consideration of   5 degrees of freedom as
           vibrations may cause significant error
 Vibrational temperatures:    253.70   295.79   325.52   642.26   705.61
          (Kelvin)            941.63  1161.52  1171.25  1187.24  1302.21
                             1351.34  1421.95  1455.63  1647.73  1769.70
                             1991.54  2380.53  3858.11  3953.57  4197.80
                             4270.00

 Zero-point correction=                           0.057453 (Hartree/Particle)
 Thermal correction to Energy=                    0.063030
 Thermal correction to Enthalpy=                  0.063974
 Thermal correction to Gibbs Free Energy=         0.029507
 Sum of electronic and zero-point Energies=           -191.127352
 Sum of electronic and thermal Energies=              -191.121776
 Sum of electronic and thermal Enthalpies=            -191.120831
 Sum of electronic and thermal Free Energies=         -191.155298

                     E (Thermal)             CV                S
                      KCal/Mol        Cal/Mol-Kelvin    Cal/Mol-Kelvin
 Total                   39.552             19.185             72.542
 Electronic               0.000              0.000              1.377
 Translational            0.889              2.981             38.389
 Rotational               0.889              2.981             23.421
 Vibrational             37.774             13.223              9.355
 Vibration     1          0.628              1.872              2.367
 Vibration     2          0.640              1.832              2.083
 Vibration     3          0.650              1.801              1.909
 Vibration     4          0.806              1.369              0.807
 Vibration     5          0.846              1.271              0.682

 Optimization completed.
    -- Stationary point found.
 Normal termination of Gaussian 09 at Thu Jan 31 08:17:03 2019.
