 Gaussian 09, Revision E.01,
 Gaussian 09:  EM64L-G09RevE.01 30-Nov-2015

 ---------------------------------------------
 #p b3lyp/6-311++G(3df,2p) freq symmetry=Loose
 ---------------------------------------------

 ---------
 b3lyp opt
 ---------
 Symbolic Z-matrix:
 Charge =  1 Multiplicity = 2

                         Standard orientation:
 ---------------------------------------------------------------------
 Center     Atomic      Atomic             Coordinates (Angstroms)
 Number     Number       Type             X           Y           Z
 ---------------------------------------------------------------------
      1          6           0        0.544512   -0.909389    0.210943
      2          6           0       -0.597187   -0.050920    0.011686
      3          6           0       -1.910378   -0.009031   -0.070819
      4          1           0       -2.432636    0.924959   -0.226553
      5          1           0       -2.493181   -0.918283   -0.008245
      6          6           0        0.616871    0.828115    0.035904
      7          1           0        0.718487    1.786972    0.547518
      8          6           0        1.601386   -0.128584   -0.200662
      9          1           0        2.676111   -0.174793   -0.235033
 ---------------------------------------------------------------------

 SCF Done:  E(UB3LYP) =  -192.508896213     A.U. after   17 cycles

 The electronic state is 2-A.
 Alpha  occ. eigenvalues --  -10.51879 -10.50355 -10.46751 -10.44897 -10.40352
 Alpha  occ. eigenvalues --   -1.20622  -0.99449  -0.88134  -0.87788  -0.74348
 Alpha  occ. eigenvalues --   -0.72170  -0.69329  -0.67127  -0.64142  -0.60537
 Alpha  occ. eigenvalues --   -0.50530  -0.49016
 Alpha virt. eigenvalues --   -0.30620  -0.29019  -0.16773  -0.14192  -0.13276
 Alpha virt. eigenvalues --   -0.12501  -0.10457  -0.09868  -0.09571  -0.08051
 Alpha virt. eigenvalues --   -0.06999  -0.05455  -0.05075  -0.04789  -0.02944

  Beta  occ. eigenvalues --  -10.50521 -10.49978 -10.46757 -10.44828 -10.40323
  Beta  occ. eigenvalues --   -1.19504  -0.99232  -0.87635  -0.86125  -0.74012
  Beta  occ. eigenvalues --   -0.69374  -0.68550  -0.66853  -0.63089  -0.59525
  Beta  occ. eigenvalues --   -0.49063
  Beta virt. eigenvalues --   -0.36713  -0.28591  -0.28355  -0.15932  -0.13786
  Beta virt. eigenvalues --   -0.13165  -0.12174  -0.10169  -0.09603  -0.09333
  Beta virt. eigenvalues --   -0.07933  -0.06803  -0.05186  -0.04957  -0.04303

 Mulliken charges and spin densities:
               1          2
     1  C    0.289920   0.766481
     2  C    0.360681  -0.014335
     3  C   -0.468392   0.054958
     4  H    0.223005   0.001010
     5  H    0.224835   0.005754
     6  C    0.071365   0.199929
     7  H    0.253716   0.044290
     8  C   -0.244997  -0.061621
     9  H    0.289866   0.003533
 Sum of Mulliken charges =   1.00000   1.00000

 Dipole moment (field-independent basis, Debye):
    X=              1.2054    Y=              1.0343    Z=              0.1883  Tot=              1.5994
 Quadrupole moment (field-independent basis, Debye-Ang):
   XX=            -10.2457   YY=            -21.3831   ZZ=            -27.9982
   XY=              0.5669   XZ=              0.0851   YZ=              0.8073

  Exact polarizability:  76.549  -0.891  44.978  -0.897  -0.328  30.250
 Approx polarizability: 134.031  -3.666  82.713  -5.401  -2.566  45.711

                      1                      2                      3
                      A                      A                      A
 Frequencies --    256.3732               347.6790               547.0492
 Red. masses --      3.5520                 2.4669                 2.9401
 Frc consts  --      0.1376                 0.1757                 0.5184
 IR Inten    --     10.3200                 4.4667                10.9973

                      4                      5                      6
                      A                      A                      A
 Frequencies --    639.4608               691.3311               762.5014
 Red. masses --      1.6413                 2.9411                 2.4206
 Frc consts  --      0.3954                 0.8282                 0.8292
 IR Inten    --      2.8948                11.1678                 2.8030

                      7                      8                      9
                      A                      A                      A
 Frequencies --    831.4297               876.7885               974.9850
 Red. masses --      1.5855                 1.9771                 1.4757
 Frc consts  --      0.6457                 0.8955                 0.8265
 IR Inten    --     36.3709                10.1321                17.8890

                     10                     11                     12
                      A                      A                      A
 Frequencies --    996.9028              1002.2434              1046.9667
 Red. masses --      1.3860                 1.6663                 1.8286
 Frc consts  --      0.8115                 0.9862                 1.1810
 IR Inten    --     22.7027                 9.6242                12.9940

                     13                     14                     15
                      A                      A                      A
 Frequencies --   1135.7954              1222.7767              1445.4085
 Red. masses --      1.5502                 2.4221                 1.1463
 Frc consts  --      1.1782                 2.1338                 1.4110
 IR Inten    --     13.3837                23.3572                21.6684

                     16                     17                     18
                      A                      A                      A
 Frequencies --   1459.2848              1760.1006              3100.1611
 Red. masses --      6.1919                 8.2179                 1.0934
 Frc consts  --      7.7688                14.9999                 6.1916
 IR Inten    --      1.4068                 4.1483                46.2739

                     19                     20                     21
                      A                      A                      A
 Frequencies --   3153.0941              3247.0637              3281.8346
 Red. masses --      1.0599                 1.1188                 1.1104
 Frc consts  --      6.2086                 6.9502                 7.0463
 IR Inten    --     26.2468                14.0025                98.5115

 - Thermochemistry -
 -------------------
 Temperature   298.150 Kelvin.  Pressure   1.00000 Atm.
 Atom     1 has atomic number  6 and mass  12.00000

 Molecular mass:    64.03130 amu.
 Principal axes and moments of inertia in atomic units:
                           1         2         3
     Eigenvalues --    88.56090 387.04399 465.08870
           X            0.99995   0.00954   0.00343
           Y           -0.00967   0.99926   0.03734
           Z           -0.00307  -0.03737   0.99930
 This molecule is an asymmetric top.
 Rotational symmetry number  1.
 Rotational temperatures (Kelvin)      0.97801     0.22378     0.18623
 Rotational constants (GHZ):          20.37853     4.66288     3.88042
 Zero-point vibrational energy     172138.0 (Joules/Mol)
                                   41.14197 (Kcal/Mol)
 Warning -- explicit consideration of   3 degrees of freedom as
           vibrations may cause significant error
 Vibrational temperatures:    368.86   500.23   787.08   920.04   994.67
          (Kelvin)           1097.07  1196.24  1261.50  1402.78  1434.32
                             1442.00  1506.35  1634.15  1759.30  2079.62
                             2099.58  2532.39  4460.43  4536.59  4671.79
                             4721.82

 Zero-point correction=                           0.065564 (Hartree/Particle)
 Thermal correction to Energy=                    0.070100
 Thermal correction to Enthalpy=                  0.071044
 Thermal correction to Gibbs Free Energy=         0.038149
 Sum of electronic and zero-point Energies=           -192.443332
 Sum of electronic and thermal Energies=              -192.438797
 Sum of electronic and thermal Enthalpies=            -192.437853
 Sum of electronic and thermal Free Energies=         -192.470747

                     E (Thermal)             CV                S
                      KCal/Mol        Cal/Mol-Kelvin    Cal/Mol-Kelvin
 Total                   43.988             16.220             69.233
 Electronic               0.000              0.000              1.377
 Translational            0.889              2.981             38.389
 Rotational               0.889              2.981             24.281
 Vibrational             42.211             10.258              5.185
 Vibration     1          0.666              1.752              1.686
 Vibration     2          0.725              1.580              1.177
 Vibration     3          0.902              1.146              0.550

 Optimization completed.
    -- Stationary point found.
 Normal termination of Gaussian 09 at Mon Jun 20 04:39:13 2016.
