 Gaussian 09, Revision E.01,
 Gaussian 09:  EM64L-G09RevE.01 30-Nov-2015

 ---------------------------------------------
 #p b3lyp/6-311++G(3df,2p) freq symmetry=Loose
 ---------------------------------------------

 ---------
 b3lyp opt
 ---------
 Symbolic Z-matrix:
 Charge =  0 Multiplicity = 3

                         Standard orientation:
 ---------------------------------------------------------------------
 Center     Atomic      Atomic             Coordinates (Angstroms)
 Number     Number       Type             X           Y           Z
 ---------------------------------------------------------------------
      1          6           0        1.132455   -0.532112   -0.000126
      2          1           0        1.163504   -1.616085   -0.000239
      3          1           0        2.090850   -0.033828   -0.000137
      4          1           0       -1.163504   -1.616085   -0.000090
      5          6           0        0.000050    0.125691    0.790579
      6          6           0       -0.000050    0.125852   -0.790554
      7          6           0        0.000000    1.362653    0.000139
      8          6           0       -1.132454   -0.532112    0.000018
      9          1           0       -2.090850   -0.033828    0.000130
 ---------------------------------------------------------------------

 SCF Done:  E(UB3LYP) =  -192.686106663     A.U. after   13 cycles

 The electronic state is 3-A.
 Alpha  occ. eigenvalues --  -10.23739 -10.23715 -10.23590 -10.21723 -10.21721
 Alpha  occ. eigenvalues --   -1.00616  -0.72134  -0.70231  -0.55778  -0.55485
 Alpha  occ. eigenvalues --   -0.48311  -0.45659  -0.39976  -0.35517  -0.34518
 Alpha  occ. eigenvalues --   -0.34378  -0.28737  -0.22114
 Alpha virt. eigenvalues --   -0.02338  -0.00440   0.01513   0.02313   0.02319
 Alpha virt. eigenvalues --    0.04484   0.05053   0.07447   0.07495   0.08411
 Alpha virt. eigenvalues --    0.08519   0.11175   0.11205   0.11230   0.12021

  Beta  occ. eigenvalues --  -10.23475 -10.23456 -10.21538 -10.21536 -10.20714
  Beta  occ. eigenvalues --   -0.99331  -0.71466  -0.67747  -0.54526  -0.53841
  Beta  occ. eigenvalues --   -0.46933  -0.42871  -0.39598  -0.34173  -0.33927
  Beta  occ. eigenvalues --   -0.29616
  Beta virt. eigenvalues --   -0.15567  -0.05182  -0.00849  -0.00402   0.01990
  Beta virt. eigenvalues --    0.02402   0.02575   0.04625   0.05522   0.07513
  Beta virt. eigenvalues --    0.07674   0.08554   0.08587   0.11346   0.11649

 Mulliken charges and spin densities:
               1          2
     1  C   -0.488320   0.051356
     2  H    0.166994   0.032167
     3  H    0.173128   0.003035
     4  H    0.166994   0.032167
     5  C    0.345174  -0.009644
     6  C    0.345174  -0.009644
     7  C   -0.393953   1.846172
     8  C   -0.488320   0.051356
     9  H    0.173128   0.003035
 Sum of Mulliken charges =  -0.00000   2.00000

 Dipole moment (field-independent basis, Debye):
    X=              0.0000    Y=             -1.6410    Z=             -0.0002  Tot=              1.6410
 Quadrupole moment (field-independent basis, Debye-Ang):
   XX=            -26.9045   YY=            -29.9578   ZZ=            -33.9065
   XY=              0.0000   XZ=             -0.0004   YZ=              0.0004

  Exact polarizability:  53.294  -0.001  58.042  -0.001   0.001  46.585
 Approx polarizability:  74.559  -0.000  86.939   0.001  -0.000  90.421

                      1                      2                      3
                      A                      A                      A
 Frequencies --    526.2676               594.5008               617.4908
 Red. masses --      1.9122                 4.5110                 3.6411
 Frc consts  --      0.3120                 0.9394                 0.8180
 IR Inten    --      0.8657                53.5981                 4.0168

                      4                      5                      6
                      A                      A                      A
 Frequencies --    695.4539               752.6043               860.8219
 Red. masses --      4.3226                 4.2166                 7.6495
 Frc consts  --      1.2318                 1.4072                 3.3397
 IR Inten    --      0.0000                48.1482                12.2297

                      7                      8                      9
                      A                      A                      A
 Frequencies --    979.3822               992.0379              1071.4393
 Red. masses --      1.1867                 1.5386                 2.6918
 Frc consts  --      0.6707                 0.8922                 1.8206
 IR Inten    --      0.0000                 0.1994                 0.1974

                     10                     11                     12
                      A                      A                      A
 Frequencies --   1078.3928              1100.0133              1128.0339
 Red. masses --      1.2333                 1.2137                 1.4122
 Frc consts  --      0.8451                 0.8653                 1.0587
 IR Inten    --      0.0000                15.9844                 0.0984

                     13                     14                     15
                      A                      A                      A
 Frequencies --   1137.0142              1164.2248              1209.4838
 Red. masses --      4.7172                 2.4467                 9.5617
 Frc consts  --      3.5931                 1.9539                 8.2411
 IR Inten    --      0.3725                 0.2106                 4.4112

                     16                     17                     18
                      A                      A                      A
 Frequencies --   1467.0076              1503.4098              3109.9117
 Red. masses --      1.1179                 1.1576                 1.0571
 Frc consts  --      1.4175                 1.5416                 6.0238
 IR Inten    --      3.6174                 1.2182                 9.6301

                     19                     20                     21
                      A                      A                      A
 Frequencies --   3112.6422              3217.1777              3217.8589
 Red. masses --      1.0568                 1.1130                 1.1155
 Frc consts  --      6.0324                 6.7875                 6.8055
 IR Inten    --     13.6037                 1.5117                 2.0713

 - Thermochemistry -
 -------------------
 Temperature   298.150 Kelvin.  Pressure   1.00000 Atm.
 Atom     1 has atomic number  6 and mass  12.00000

 Molecular mass:    64.03130 amu.
 Principal axes and moments of inertia in atomic units:
                           1         2         3
     Eigenvalues --   176.96804 204.69042 274.52731
           X            1.00000  -0.00000   0.00006
           Y            0.00000   1.00000  -0.00010
           Z           -0.00006   0.00010   1.00000
 This molecule is an asymmetric top.
 Rotational symmetry number  1.
 Rotational temperatures (Kelvin)      0.48943     0.42315     0.31550
 Rotational constants (GHZ):          10.19812     8.81693     6.57400
 Zero-point vibrational energy     176659.5 (Joules/Mol)
                                   42.22264 (Kcal/Mol)
 Warning -- explicit consideration of   3 degrees of freedom as
           vibrations may cause significant error
 Vibrational temperatures:    757.18   855.35   888.43  1000.60  1082.83
          (Kelvin)           1238.53  1409.11  1427.32  1541.56  1551.56
                             1582.67  1622.99  1635.91  1675.06  1740.18
                             2110.69  2163.07  4474.46  4478.39  4628.80
                             4629.78

 Zero-point correction=                           0.067286 (Hartree/Particle)
 Thermal correction to Energy=                    0.071156
 Thermal correction to Enthalpy=                  0.072100
 Thermal correction to Gibbs Free Energy=         0.040169
 Sum of electronic and zero-point Energies=           -192.618821
 Sum of electronic and thermal Energies=              -192.614951
 Sum of electronic and thermal Enthalpies=            -192.614007
 Sum of electronic and thermal Free Energies=         -192.645938

                     E (Thermal)             CV                S
                      KCal/Mol        Cal/Mol-Kelvin    Cal/Mol-Kelvin
 Total                   44.651             14.082             67.205
 Electronic               0.000              0.000              2.183
 Translational            0.889              2.981             38.389
 Rotational               0.889              2.981             23.812
 Vibrational             42.873              8.120              2.820
 Vibration     1          0.881              1.192              0.596
 Vibration     2          0.952              1.043              0.459
 Vibration     3          0.977              0.995              0.421

 Optimization completed.
    -- Stationary point found.
 Normal termination of Gaussian 09 at Wed Jul 20 15:00:56 2016.
