 Gaussian 09, Revision E.01,
 Gaussian 09:  EM64L-G09RevE.01 30-Nov-2015

 ---------------------------------------------
 #p b3lyp/6-311++G(3df,2p) freq symmetry=Loose
 ---------------------------------------------

 ---------
 b3lyp opt
 ---------
 Symbolic Z-matrix:
 Charge =  3 Multiplicity = 4

                         Standard orientation:
 ---------------------------------------------------------------------
 Center     Atomic      Atomic             Coordinates (Angstroms)
 Number     Number       Type             X           Y           Z
 ---------------------------------------------------------------------
      1          6           0        1.118213   -0.295518    0.000583
      2          1           0       -0.088993    1.279160    0.872740
      3          1           0        1.128118   -1.440485    0.002504
      4          6           0       -1.436905   -0.004668   -0.000556
      5          6           0       -2.691999   -0.334654   -0.000363
      6          6           0        2.389888   -0.074271   -0.000729
      7          1           0        3.503064   -0.045481   -0.001680
      8          6           0       -0.121489    0.530057    0.000424
      9          1           0       -0.088434    1.281136   -0.869719
 ---------------------------------------------------------------------

 SCF Done:  E(UB3LYP) =  -191.024656426     A.U. after   22 cycles

 The electronic state is 4-A.
 Alpha  occ. eigenvalues --  -11.05233 -11.00711 -10.98367 -10.92636 -10.91446
 Alpha  occ. eigenvalues --   -1.55784  -1.51205  -1.43907  -1.25523  -1.20872
 Alpha  occ. eigenvalues --   -1.16669  -1.13501  -1.11228  -1.09362  -1.04190
 Alpha  occ. eigenvalues --   -1.02604  -0.97839
 Alpha virt. eigenvalues --   -0.78151  -0.72875  -0.70538  -0.67574  -0.53133
 Alpha virt. eigenvalues --   -0.51613  -0.49369  -0.46416  -0.44810  -0.43721
 Alpha virt. eigenvalues --   -0.40784  -0.40038  -0.39086  -0.37631  -0.36513

  Beta  occ. eigenvalues --  -11.01340 -10.99651 -10.97841 -10.92463 -10.91322
  Beta  occ. eigenvalues --   -1.52753  -1.47457  -1.40433  -1.24246  -1.19546
  Beta  occ. eigenvalues --   -1.15634  -1.10874  -1.08918  -0.96210
  Beta virt. eigenvalues --   -0.88536  -0.88480  -0.84217  -0.77191  -0.65221
  Beta virt. eigenvalues --   -0.63490  -0.63100  -0.51516  -0.51055  -0.48569
  Beta virt. eigenvalues --   -0.45009  -0.44075  -0.43002  -0.40279  -0.39618

 Mulliken charges and spin densities:
               1          2
     1  C   -0.008993   0.072349
     2  H    0.348788   0.095156
     3  H    0.280523  -0.006294
     4  C    0.710677   0.572767
     5  C    0.586822   1.800001
     6  C    0.349031   0.307593
     7  H    0.489198  -0.006627
     8  C   -0.104441   0.070287
     9  H    0.348394   0.094768
 Sum of Mulliken charges =   3.00000   3.00000

 Dipole moment (field-independent basis, Debye):
    X=              0.6767    Y=             -0.0991    Z=              0.0015  Tot=              0.6839
 Quadrupole moment (field-independent basis, Debye-Ang):
   XX=             47.7850   YY=            -13.3695   ZZ=            -21.7969
   XY=              0.5038   XZ=             -0.0056   YZ=             -0.0028

  Exact polarizability: 139.792  -0.441  32.777   0.003   0.000  26.312
 Approx polarizability: 328.512  10.923  52.310  -0.005  -0.001  37.916

                      1                      2                      3
                      A                      A                      A
 Frequencies --    127.1508               181.1090               300.0711
 Red. masses --      2.1705                 4.3693                 2.6560
 Frc consts  --      0.0207                 0.0844                 0.1409
 IR Inten    --      0.0086                 9.6462                41.9400

                      4                      5                      6
                      A                      A                      A
 Frequencies --    303.7709               508.7374               524.0980
 Red. masses --      3.2419                 1.6521                 7.4724
 Frc consts  --      0.1763                 0.2519                 1.2093
 IR Inten    --     14.8737                86.4008                 4.4266

                      7                      8                      9
                      A                      A                      A
 Frequencies --    694.6017               740.6669               763.4466
 Red. masses --      1.3029                 2.7407                 2.2659
 Frc consts  --      0.3704                 0.8858                 0.7781
 IR Inten    --     34.5750                 4.5763                 1.3095

                     10                     11                     12
                      A                      A                      A
 Frequencies --    926.8225              1010.3711              1037.0919
 Red. masses --      1.7515                 1.6648                 1.3636
 Frc consts  --      0.8864                 1.0013                 0.8641
 IR Inten    --     44.7196               112.5011                42.7198

                     13                     14                     15
                      A                      A                      A
 Frequencies --   1045.9720              1071.1392              1203.8682
 Red. masses --      1.0859                 1.0914                 2.3434
 Frc consts  --      0.7000                 0.7378                 2.0011
 IR Inten    --      1.1468               127.3196               558.4305

                     16                     17                     18
                      A                      A                      A
 Frequencies --   1609.5629              1804.2963              2461.9345
 Red. masses --      5.2958                 8.5157                 1.0755
 Frc consts  --      8.0835                16.3338                 3.8407
 IR Inten    --   2132.6625                70.9450               326.8753

                     19                     20                     21
                      A                      A                      A
 Frequencies --   2534.2885              2623.0632              2964.2353
 Red. masses --      1.0618                 1.0758                 1.1474
 Frc consts  --      4.0179                 4.3613                 5.9399
 IR Inten    --    488.8063               304.9008               551.8677

 - Thermochemistry -
 -------------------
 Temperature   298.150 Kelvin.  Pressure   1.00000 Atm.
 Atom     1 has atomic number  6 and mass  12.00000

 Molecular mass:    64.03130 amu.
 Principal axes and moments of inertia in atomic units:
                           1         2         3
     Eigenvalues --    45.42377 751.24171 785.73808
           X            0.99995  -0.00973  -0.00002
           Y            0.00973   0.99995  -0.00013
           Z            0.00002   0.00013   1.00000
 This molecule is an asymmetric top.
 Rotational symmetry number  1.
 Rotational temperatures (Kelvin)      1.90679     0.11529     0.11023
 Rotational constants (GHZ):          39.73120     2.40234     2.29687
 Zero-point vibrational energy     146161.5 (Joules/Mol)
                                   34.93344 (Kcal/Mol)
 Warning -- explicit consideration of   6 degrees of freedom as
           vibrations may cause significant error
 Vibrational temperatures:    182.94   260.58   431.73   437.06   731.96
          (Kelvin)            754.06   999.38  1065.65  1098.43  1333.49
                             1453.70  1492.14  1504.92  1541.13  1732.10
                             2315.80  2595.98  3542.17  3646.27  3774.00
                             4264.87

 Zero-point correction=                           0.055670 (Hartree/Particle)
 Thermal correction to Energy=                    0.061535
 Thermal correction to Enthalpy=                  0.062480
 Thermal correction to Gibbs Free Energy=         0.026082
 Sum of electronic and zero-point Energies=           -190.968986
 Sum of electronic and thermal Energies=              -190.963121
 Sum of electronic and thermal Enthalpies=            -190.962177
 Sum of electronic and thermal Free Energies=         -190.998575

                     E (Thermal)             CV                S
                      KCal/Mol        Cal/Mol-Kelvin    Cal/Mol-Kelvin
 Total                   38.614             19.913             76.606
 Electronic               0.000              0.000              2.755
 Translational            0.889              2.981             38.389
 Rotational               0.889              2.981             24.798
 Vibrational             36.837             13.951             10.664
 Vibration     1          0.611              1.926              2.989
 Vibration     2          0.630              1.865              2.317
 Vibration     3          0.693              1.674              1.417
 Vibration     4          0.695              1.667              1.396
 Vibration     5          0.864              1.231              0.637
 Vibration     6          0.879              1.197              0.601

 Normal termination of Gaussian 09 at Mon Jun 20 12:19:54 2016.
