 Gaussian 09, Revision E.01,
 Gaussian 09:  EM64L-G09RevE.01 30-Nov-2015

 ---------------------------------------------
 #p b3lyp/6-311++G(3df,2p) freq symmetry=Loose
 ---------------------------------------------

 ---------
 b3lyp opt
 ---------
 Symbolic Z-matrix:
 Charge =  3 Multiplicity = 4

                         Standard orientation:
 ---------------------------------------------------------------------
 Center     Atomic      Atomic             Coordinates (Angstroms)
 Number     Number       Type             X           Y           Z
 ---------------------------------------------------------------------
      1          6           0       -1.595826   -0.000012   -0.199222
      2          6           0       -0.644350    1.043875    0.067761
      3          1           0       -0.676392    2.126814    0.293753
      4          6           0        1.793404   -0.000002   -0.031861
      5          1           0        2.726015    0.780326   -0.137348
      6          6           0       -0.644350   -1.043867    0.067884
      7          1           0       -0.676392   -2.126780    0.294005
      8          6           0        0.407914    0.000003    0.043246
      9          1           0        2.726015   -0.780343   -0.137255
 ---------------------------------------------------------------------

 SCF Done:  E(UB3LYP) =  -191.024073934     A.U. after   15 cycles

 The electronic state is 4-A.
 Alpha  occ. eigenvalues --  -11.02057 -10.99396 -10.99281 -10.98555 -10.98552
 Alpha  occ. eigenvalues --   -1.65582  -1.51089  -1.37612  -1.34096  -1.23614
 Alpha  occ. eigenvalues --   -1.21261  -1.17614  -1.11445  -1.10981  -1.07865
 Alpha  occ. eigenvalues --   -1.01216  -0.97978
 Alpha virt. eigenvalues --   -0.82040  -0.78152  -0.63711  -0.62654  -0.59047
 Alpha virt. eigenvalues --   -0.53600  -0.49516  -0.48087  -0.47008  -0.42521
 Alpha virt. eigenvalues --   -0.41932  -0.41711  -0.40613  -0.39064  -0.38462

  Beta  occ. eigenvalues --  -11.00003 -10.99300 -10.98283 -10.98282 -10.96957
  Beta  occ. eigenvalues --   -1.63673  -1.45688  -1.36453  -1.28916  -1.20729
  Beta  occ. eigenvalues --   -1.19535  -1.14146  -1.09104  -1.08372
  Beta virt. eigenvalues --   -0.94441  -0.87991  -0.81123  -0.78302  -0.71361
  Beta virt. eigenvalues --   -0.60461  -0.58317  -0.55049  -0.52516  -0.48867
  Beta virt. eigenvalues --   -0.47628  -0.45041  -0.41557  -0.41058  -0.40523

 Mulliken charges and spin densities:
               1          2
     1  C    0.432990   1.191167
     2  C    0.176430   0.099076
     3  H    0.402712   0.004812
     4  C   -0.284741   1.155201
     5  H    0.423773   0.189439
     6  C    0.176430   0.099076
     7  H    0.402712   0.004812
     8  C    0.845921   0.066977
     9  H    0.423773   0.189439
 Sum of Mulliken charges =   3.00000   3.00000

 Dipole moment (field-independent basis, Debye):
    X=              6.0835    Y=             -0.0000    Z=             -0.0442  Tot=              6.0836
 Quadrupole moment (field-independent basis, Debye-Ang):
   XX=             21.7322   YY=             -2.9536   ZZ=            -22.4019
   XY=             -0.0001   XZ=             -1.5194   YZ=             -0.0012

  Exact polarizability:  66.973  -0.000  42.447  -0.179  -0.001  22.603
 Approx polarizability: 122.030   0.000  72.894   2.042  -0.002  34.634

                      1                      2                      3
                      A                      A                      A
 Frequencies --    117.0226               332.1436               409.2445
 Red. masses --      2.8913                 2.0291                 2.1013
 Frc consts  --      0.0233                 0.1319                 0.2073
 IR Inten    --      3.3863                25.1419                92.9837

                      4                      5                      6
                      A                      A                      A
 Frequencies --    446.0481               553.0896               580.0755
 Red. masses --      1.0591                 1.7116                 1.7164
 Frc consts  --      0.1242                 0.3085                 0.3403
 IR Inten    --      6.9585                91.9559                96.5204

                      7                      8                      9
                      A                      A                      A
 Frequencies --    683.1322               849.5061               944.3846
 Red. masses --      5.8690                 2.3708                 1.8487
 Frc consts  --      1.6137                 1.0080                 0.9714
 IR Inten    --     12.0157                35.4637                15.7897

                     10                     11                     12
                      A                      A                      A
 Frequencies --    977.8610              1000.8758              1035.8678
 Red. masses --      1.7831                 1.3647                 3.0713
 Frc consts  --      1.0046                 0.8055                 1.9417
 IR Inten    --     15.0418               131.2797                14.6829

                     13                     14                     15
                      A                      A                      A
 Frequencies --   1107.3862              1124.3749              1236.0786
 Red. masses --      2.0269                 1.3225                 5.3624
 Frc consts  --      1.4645                 0.9851                 4.8273
 IR Inten    --      8.0264                17.9513                60.7358

                     16                     17                     18
                      A                      A                      A
 Frequencies --   1260.6836              1335.1491              1630.0497
 Red. masses --      2.5732                 3.5282                 1.0480
 Frc consts  --      2.4096                 3.7056                 1.6407
 IR Inten    --    133.4283                77.1860               744.9294

                     19                     20                     21
                      A                      A                      A
 Frequencies --   2315.3788              2991.5698              2992.1649
 Red. masses --      1.1817                 1.1074                 1.1107
 Frc consts  --      3.7325                 5.8393                 5.8590
 IR Inten    --   1135.4168               507.0366                34.2792

 - Thermochemistry -
 -------------------
 Temperature   298.150 Kelvin.  Pressure   1.00000 Atm.
 Atom     1 has atomic number  6 and mass  12.00000

 Molecular mass:    64.03130 amu.
 Principal axes and moments of inertia in atomic units:
                           1         2         3
     Eigenvalues --   133.25623 348.50383 475.91172
           X            0.99993   0.00000  -0.01165
           Y            0.00000   1.00000   0.00006
           Z            0.01165  -0.00006   0.99993
 This molecule is an asymmetric top.
 Rotational symmetry number  1.
 Rotational temperatures (Kelvin)      0.64998     0.24853     0.18200
 Rotational constants (GHZ):          13.54339     5.17854     3.79218
 Zero-point vibrational energy     143085.9 (Joules/Mol)
                                   34.19834 (Kcal/Mol)
 Warning -- explicit consideration of   6 degrees of freedom as
           vibrations may cause significant error
 Vibrational temperatures:    168.37   477.88   588.81   641.76   795.77
          (Kelvin)            834.60   982.87  1222.25  1358.76  1406.92
                             1440.04  1490.38  1593.28  1617.72  1778.44
                             1813.84  1920.98  2345.28  3331.31  4304.20
                             4305.05

 Zero-point correction=                           0.054499 (Hartree/Particle)
 Thermal correction to Energy=                    0.059768
 Thermal correction to Enthalpy=                  0.060713
 Thermal correction to Gibbs Free Energy=         0.025546
 Sum of electronic and zero-point Energies=           -190.969575
 Sum of electronic and thermal Energies=              -190.964306
 Sum of electronic and thermal Enthalpies=            -190.963361
 Sum of electronic and thermal Free Energies=         -190.998528

                     E (Thermal)             CV                S
                      KCal/Mol        Cal/Mol-Kelvin    Cal/Mol-Kelvin
 Total                   37.505             18.597             74.015
 Electronic               0.000              0.000              2.755
 Translational            0.889              2.981             38.389
 Rotational               0.889              2.981             24.606
 Vibrational             35.728             12.635              8.265
 Vibration     1          0.608              1.935              3.149
 Vibration     2          0.714              1.611              1.250
 Vibration     3          0.774              1.450              0.929
 Vibration     4          0.805              1.370              0.808
 Vibration     5          0.908              1.133              0.538
 Vibration     6          0.937              1.074              0.485

 Optimization completed.
    -- Stationary point found.
 Normal termination of Gaussian 09 at Wed Jul 20 15:49:56 2016.
