 Gaussian 09, Revision E.01,
 Gaussian 09:  EM64L-G09RevE.01 30-Nov-2015

 ---------------------------------------------
 #p b3lyp/6-311++G(3df,2p) freq symmetry=Loose
 ---------------------------------------------

 ---------
 b3lyp opt
 ---------
 Symbolic Z-matrix:
 Charge =  2 Multiplicity = 3

                         Standard orientation:
 ---------------------------------------------------------------------
 Center     Atomic      Atomic             Coordinates (Angstroms)
 Number     Number       Type             X           Y           Z
 ---------------------------------------------------------------------
      1          6           0       -0.708177   -0.826572    0.000000
      2          6           0        0.533228   -1.268695    0.000000
      3          6           0        1.208097    0.086618    0.000000
      4          1           0        1.831002    0.219892    0.903664
      5          1           0        1.831002    0.219892   -0.903664
      6          6           0        0.000000    1.052949    0.000000
      7          1           0        0.109432    2.144715    0.000000
      8          6           0       -1.279132    0.393619    0.000000
      9          1           0       -2.295533    0.787991    0.000000
 ---------------------------------------------------------------------

 SCF Done:  E(UB3LYP) =  -191.883978386     A.U. after   15 cycles

 The electronic state is 3-A".
 Alpha  occ. eigenvalues --  -10.80589 -10.78704 -10.75617 -10.73627 -10.69318
 Alpha  occ. eigenvalues --   -1.44075  -1.27286  -1.21075  -1.07754  -1.01781
 Alpha  occ. eigenvalues --   -0.97978  -0.94902  -0.90893  -0.88081  -0.84036
 Alpha  occ. eigenvalues --   -0.82470  -0.76769
 Alpha virt. eigenvalues --   -0.61781  -0.56543  -0.44505  -0.33824  -0.31901
 Alpha virt. eigenvalues --   -0.30841  -0.29359  -0.28656  -0.27542  -0.25757
 Alpha virt. eigenvalues --   -0.24666  -0.24388  -0.23706  -0.21256  -0.20954

  Beta  occ. eigenvalues --  -10.80427 -10.76174 -10.74745 -10.73365 -10.69381
  Beta  occ. eigenvalues --   -1.41821  -1.24536  -1.19447  -1.06436  -1.00114
  Beta  occ. eigenvalues --   -0.97064  -0.92523  -0.88591  -0.87078  -0.82956
  Beta virt. eigenvalues --   -0.66082  -0.64990  -0.58034  -0.51182  -0.40541
  Beta virt. eigenvalues --   -0.33608  -0.31033  -0.30147  -0.28469  -0.27889
  Beta virt. eigenvalues --   -0.27065  -0.25530  -0.23886  -0.23751  -0.23371

 Mulliken charges and spin densities:
               1          2
     1  C    0.789368  -0.066780
     2  C    0.318943   1.414946
     3  C   -0.399789  -0.093918
     4  H    0.275458   0.004387
     5  H    0.275458   0.004387
     6  C    0.054304   0.537956
     7  H    0.297878   0.014673
     8  C    0.035874   0.185908
     9  H    0.352506  -0.001558
 Sum of Mulliken charges =   2.00000   2.00000

 Dipole moment (field-independent basis, Debye):
    X=             -0.5419    Y=              0.7315    Z=             -0.0000  Tot=              0.9104
 Quadrupole moment (field-independent basis, Debye-Ang):
   XX=             -6.7142   YY=            -10.9208   ZZ=            -23.3854
   XY=             -1.0440   XZ=             -0.0000   YZ=             -0.0000

  Exact polarizability:  50.374  -2.355  47.223   0.000   0.000  26.513
 Approx polarizability:  89.973  -4.010  94.456  -0.000  -0.000  40.073

                      1                      2                      3
                     A"                     A"                     A'
 Frequencies --    300.4284               376.4888               530.1906
 Red. masses --      1.7237                 5.3566                 6.9500
 Frc consts  --      0.0917                 0.4473                 1.1511
 IR Inten    --      3.2235                 0.3130                 2.6875

                      4                      5                      6
                     A'                     A"                     A'
 Frequencies --    533.7001               662.7001               818.9934
 Red. masses --      7.6053                 1.1672                 2.7969
 Frc consts  --      1.2763                 0.3020                 1.1053
 IR Inten    --     23.5373                64.4472                 4.5735

                      7                      8                      9
                     A"                     A'                     A"
 Frequencies --    848.2052               900.9137               913.5245
 Red. masses --      1.5106                 5.2066                 1.5609
 Frc consts  --      0.6403                 2.4899                 0.7675
 IR Inten    --      1.5024                 5.7665                 5.2129

                     10                     11                     12
                     A'                     A"                     A'
 Frequencies --   1025.4072              1105.0289              1108.6332
 Red. masses --      1.5146                 1.1190                 1.7872
 Frc consts  --      0.9383                 0.8050                 1.2942
 IR Inten    --      0.4429                 3.4559                 2.5437

                     13                     14                     15
                     A'                     A'                     A'
 Frequencies --   1182.5702              1222.6327              1291.7266
 Red. masses --      1.9572                 1.5579                 1.9870
 Frc consts  --      1.6127                 1.3721                 1.9534
 IR Inten    --     17.0380                70.8905                47.2652

                     16                     17                     18
                     A'                     A'                     A'
 Frequencies --   1354.0926              1608.3174              2921.2932
 Red. masses --      1.5012                 7.7697                 1.0547
 Frc consts  --      1.6217                11.8413                 5.3029
 IR Inten    --     52.9886                13.2517               241.1379

                     19                     20                     21
                     A"                     A'                     A'
 Frequencies --   2970.9764              3052.7154              3139.7211
 Red. masses --      1.1051                 1.0923                 1.1077
 Frc consts  --      5.7473                 5.9973                 6.4339
 IR Inten    --    133.8025               207.9013               237.2296

 - Thermochemistry -
 -------------------
 Temperature   298.150 Kelvin.  Pressure   1.00000 Atm.
 Atom     1 has atomic number  6 and mass  12.00000

 Molecular mass:    64.03130 amu.
 Principal axes and moments of inertia in atomic units:
                           1         2         3
     Eigenvalues --   165.49781 226.85059 380.59247
           X            0.90035   0.43517   0.00000
           Y           -0.43517   0.90035   0.00000
           Z            0.00000  -0.00000   1.00000
 This molecule is an asymmetric top.
 Rotational symmetry number  1.
 Rotational temperatures (Kelvin)      0.52335     0.38181     0.22758
 Rotational constants (GHZ):          10.90493     7.95564     4.74193
 Zero-point vibrational energy     166689.2 (Joules/Mol)
                                   39.83968 (Kcal/Mol)
 Warning -- explicit consideration of   4 degrees of freedom as
           vibrations may cause significant error
 Vibrational temperatures:    432.25   541.68   762.83   767.87   953.48
          (Kelvin)           1178.35  1220.38  1296.21  1314.36  1475.33
                             1589.89  1595.07  1701.45  1759.09  1858.50
                             1948.23  2314.01  4203.08  4274.57  4392.17
                             4517.35

 Zero-point correction=                           0.063489 (Hartree/Particle)
 Thermal correction to Energy=                    0.067988
 Thermal correction to Enthalpy=                  0.068932
 Thermal correction to Gibbs Free Energy=         0.035810
 Sum of electronic and zero-point Energies=           -191.820490
 Sum of electronic and thermal Energies=              -191.815990
 Sum of electronic and thermal Enthalpies=            -191.815046
 Sum of electronic and thermal Free Energies=         -191.848169

                     E (Thermal)             CV                S
                      KCal/Mol        Cal/Mol-Kelvin    Cal/Mol-Kelvin
 Total                   42.663             16.224             69.713
 Electronic               0.000              0.000              2.183
 Translational            0.889              2.981             38.389
 Rotational               0.889              2.981             24.173
 Vibrational             40.886             10.263              4.968
 Vibration     1          0.693              1.673              1.415
 Vibration     2          0.747              1.520              1.053
 Vibration     3          0.885              1.183              0.587
 Vibration     4          0.889              1.175              0.579

 Optimization completed.
    -- Stationary point found.
 Normal termination of Gaussian 09 at Mon Jun 20 09:50:25 2016.
