 Gaussian 09, Revision E.01,
 Gaussian 09:  EM64L-G09RevE.01 30-Nov-2015

 ---------------------------------------------
 #p b3lyp/6-311++G(3df,2p) freq symmetry=Loose
 ---------------------------------------------

 ---------
 b3lyp opt
 ---------
 Symbolic Z-matrix:
 Charge =  0 Multiplicity = 3

                         Standard orientation:
 ---------------------------------------------------------------------
 Center     Atomic      Atomic             Coordinates (Angstroms)
 Number     Number       Type             X           Y           Z
 ---------------------------------------------------------------------
      1          6           0        0.136022   -0.574956   -1.172898
      2          6           0        0.136022   -0.574956    1.172898
      3          6           0       -0.701788   -0.716567    0.000000
      4          1           0        1.008961   -1.214193   -1.287219
      5          1           0       -0.315955   -0.219453    2.088106
      6          1           0        1.008961   -1.214193    1.287219
      7          1           0       -0.315955   -0.219453   -2.088106
      8          6           0        0.198757    0.492414   -0.000000
      9          6           0        0.000000    1.851947    0.000000
 ---------------------------------------------------------------------

 SCF Done:  E(UB3LYP) =  -192.669580557     A.U. after   17 cycles

 The electronic state is 3-A".
 Alpha  occ. eigenvalues --  -10.27111 -10.23502 -10.23499 -10.23247 -10.21122
 Alpha  occ. eigenvalues --   -0.97503  -0.74493  -0.72232  -0.60763  -0.52936
 Alpha  occ. eigenvalues --   -0.48892  -0.48522  -0.42888  -0.38399  -0.32411
 Alpha  occ. eigenvalues --   -0.31148  -0.27030  -0.20091
 Alpha virt. eigenvalues --   -0.09411  -0.01199   0.00985   0.01397   0.02617
 Alpha virt. eigenvalues --    0.04070   0.04130   0.05762   0.05829   0.07208
 Alpha virt. eigenvalues --    0.08211   0.10031   0.10106   0.11341   0.11758

  Beta  occ. eigenvalues --  -10.25784 -10.23320 -10.23194 -10.23191 -10.19679
  Beta  occ. eigenvalues --   -0.96283  -0.73611  -0.69107  -0.59846  -0.50898
  Beta  occ. eigenvalues --   -0.48250  -0.46001  -0.42418  -0.36183  -0.30927
  Beta  occ. eigenvalues --   -0.27136
  Beta virt. eigenvalues --   -0.14426  -0.07390  -0.06370  -0.00993   0.01300
  Beta virt. eigenvalues --    0.01607   0.02748   0.04108   0.04616   0.05885
  Beta virt. eigenvalues --    0.06366   0.07531   0.08623   0.10171   0.10340

 Mulliken charges and spin densities:
               1          2
     1  C   -0.382035   0.115801
     2  C   -0.382035   0.115801
     3  C    0.278051   0.772104
     4  H    0.167732   0.008132
     5  H    0.155295   0.007212
     6  H    0.167732   0.008132
     7  H    0.155295   0.007212
     8  C    0.540408  -0.055118
     9  C   -0.700444   1.020723
 Sum of Mulliken charges =  -0.00000   2.00000

 Dipole moment (field-independent basis, Debye):
    X=              0.7087    Y=             -3.8521    Z=             -0.0000  Tot=              3.9167
 Quadrupole moment (field-independent basis, Debye-Ang):
   XX=            -30.5120   YY=            -39.2650   ZZ=            -26.5094
   XY=             -1.3135   XZ=             -0.0000   YZ=             -0.0000

  Exact polarizability:  46.345   1.984  76.815  -0.000  -0.000  60.104
 Approx polarizability:  73.931  10.657 135.346   0.000   0.000  83.906

                      1                      2                      3
                     A'                     A"                     A'
 Frequencies --    171.1562               282.8085               412.0933
 Red. masses --      5.1251                 4.9184                 2.2782
 Frc consts  --      0.0885                 0.2318                 0.2279
 IR Inten    --      3.3360                 2.0535                 3.0489

                      4                      5                      6
                     A"                     A'                     A'
 Frequencies --    502.7057               517.5355               764.4186
 Red. masses --      8.7288                 4.5838                 5.1545
 Frc consts  --      1.2997                 0.7234                 1.7746
 IR Inten    --     12.6306                10.8477                57.7074

                      7                      8                      9
                     A"                     A'                     A"
 Frequencies --    835.9655               954.1291               985.7704
 Red. masses --      1.0279                 1.5410                 1.2564
 Frc consts  --      0.4232                 0.8265                 0.7193
 IR Inten    --      3.3584                24.4334                 2.1542

                     10                     11                     12
                     A"                     A'                     A'
 Frequencies --   1042.6061              1063.8131              1078.1431
 Red. masses --      1.3057                 1.3071                 1.8003
 Frc consts  --      0.8362                 0.8716                 1.2330
 IR Inten    --      3.0437                18.7098                20.8389

                     13                     14                     15
                     A'                     A"                     A'
 Frequencies --   1142.1958              1248.0357              1404.2497
 Red. masses --      2.4145                 5.1368                 6.1148
 Frc consts  --      1.8560                 4.7141                 7.1043
 IR Inten    --     44.2041                 8.0415               131.1083

                     16                     17                     18
                     A"                     A'                     A"
 Frequencies --   1471.5162              1499.0074              3072.6311
 Red. masses --      1.1441                 1.2084                 1.0590
 Frc consts  --      1.4597                 1.5997                 5.8906
 IR Inten    --      4.8150                 7.5602                 4.6254

                     19                     20                     21
                     A'                     A"                     A'
 Frequencies --   3073.4258              3200.4035              3200.4989
 Red. masses --      1.0595                 1.1073                 1.1098
 Frc consts  --      5.8966                 6.6820                 6.6980
 IR Inten    --     17.8120                 0.0844                 0.6903

 - Thermochemistry -
 -------------------
 Temperature   298.150 Kelvin.  Pressure   1.00000 Atm.
 Atom     1 has atomic number  6 and mass  12.00000

 Molecular mass:    64.03130 amu.
 Principal axes and moments of inertia in atomic units:
                           1         2         3
     Eigenvalues --   192.89845 250.53034 380.06296
           X            0.05855   0.00000   0.99828
           Y            0.99828   0.00000  -0.05855
           Z            0.00000   1.00000   0.00000
 This molecule is an asymmetric top.
 Rotational symmetry number  1.
 Rotational temperatures (Kelvin)      0.44901     0.34572     0.22789
 Rotational constants (GHZ):           9.35591     7.20368     4.74853
 Zero-point vibrational energy     167017.3 (Joules/Mol)
                                   39.91809 (Kcal/Mol)
 Warning -- explicit consideration of   5 degrees of freedom as
           vibrations may cause significant error
 Vibrational temperatures:    246.26   406.90   592.91   723.28   744.62
          (Kelvin)           1099.83  1202.77  1372.78  1418.30  1500.08
                             1530.59  1551.21  1643.36  1795.64  2020.40
                             2117.18  2156.73  4420.83  4421.97  4604.66
                             4604.80

 Zero-point correction=                           0.063614 (Hartree/Particle)
 Thermal correction to Energy=                    0.068608
 Thermal correction to Enthalpy=                  0.069552
 Thermal correction to Gibbs Free Energy=         0.035296
 Sum of electronic and zero-point Energies=           -192.605967
 Sum of electronic and thermal Energies=              -192.600973
 Sum of electronic and thermal Enthalpies=            -192.600029
 Sum of electronic and thermal Free Energies=         -192.634285

                     E (Thermal)             CV                S
                      KCal/Mol        Cal/Mol-Kelvin    Cal/Mol-Kelvin
 Total                   43.052             17.200             72.098
 Electronic               0.000              0.000              2.183
 Translational            0.889              2.981             38.389
 Rotational               0.889              2.981             24.422
 Vibrational             41.274             11.239              7.104
 Vibration     1          0.626              1.878              2.423
 Vibration     2          0.682              1.706              1.517
 Vibration     3          0.776              1.444              0.919
 Vibration     4          0.858              1.244              0.651
 Vibration     5          0.873              1.211              0.616

 Normal termination of Gaussian 09 at Wed Jul 20 09:50:23 2016.
