 Gaussian 09, Revision E.01,
 Gaussian 09:  EM64L-G09RevE.01 30-Nov-2015

 ------------------------------------------------------
 #p b3lyp/6-311++G(3df,2p) freq IOp(2/17=3) IOp(2/18=3)
 ------------------------------------------------------

 ---------
 b3lyp opt
 ---------
 Symbolic Z-matrix:
 Charge =  3 Multiplicity = 4

                         Standard orientation:
 ---------------------------------------------------------------------
 Center     Atomic      Atomic             Coordinates (Angstroms)
 Number     Number       Type             X           Y           Z
 ---------------------------------------------------------------------
      1          6           0       -1.045696   -0.543720    0.000000
      2          1           0       -0.870844   -1.672439    0.000000
      3          6           0        2.539837    0.863133    0.000000
      4          6           0       -2.371785   -0.495146    0.000000
      5          1           0       -3.483154   -0.609950    0.000000
      6          6           0        0.000000    0.430589    0.000000
      7          1           0       -0.271326    1.488877    0.000000
      8          6           0        1.354936    0.045581    0.000000
      9          1           0        1.761571   -1.009109    0.000000
 ---------------------------------------------------------------------

 SCF Done:  E(UB3LYP) =  -191.021440136     A.U. after   17 cycles

 The electronic state is 4-A'.
 Alpha  occ. eigenvalues --  -11.08385 -11.00566 -10.96787 -10.92148 -10.90195
 Alpha  occ. eigenvalues --   -1.54255  -1.50408  -1.39698  -1.24936  -1.21935
 Alpha  occ. eigenvalues --   -1.17449  -1.14786  -1.08919  -1.06645  -1.05763
 Alpha  occ. eigenvalues --   -1.02081  -0.91199
 Alpha virt. eigenvalues --   -0.83465  -0.79353  -0.73182  -0.61769  -0.51728
 Alpha virt. eigenvalues --   -0.49991  -0.49391  -0.45857  -0.44164  -0.41052
 Alpha virt. eigenvalues --   -0.40289  -0.40050  -0.39078  -0.37536  -0.36327

  Beta  occ. eigenvalues --  -11.04875 -10.99565 -10.96015 -10.92084 -10.89677
  Beta  occ. eigenvalues --   -1.51608  -1.46883  -1.36080  -1.22659  -1.19867
  Beta  occ. eigenvalues --   -1.16654  -1.13066  -1.05704  -0.99660
  Beta virt. eigenvalues --   -0.89230  -0.86528  -0.78873  -0.77584  -0.76363
  Beta virt. eigenvalues --   -0.64796  -0.57360  -0.50661  -0.49881  -0.48347
  Beta virt. eigenvalues --   -0.45289  -0.42404  -0.40089  -0.39805  -0.39490

 Mulliken charges and spin densities:
               1          2
     1  C    0.131096   0.098883
     2  H    0.269291  -0.008791
     3  C    0.434758   1.552441
     4  C    0.426012   0.540230
     5  H    0.506893  -0.013186
     6  C    0.325612   0.312935
     7  H    0.263459  -0.008020
     8  C    0.354299   0.526998
     9  H    0.288579  -0.001490
 Sum of Mulliken charges =   3.00000   3.00000

 Dipole moment (field-independent basis, Debye):
    X=             -0.1756    Y=             -0.8124    Z=              0.0000  Tot=              0.8312
 Quadrupole moment (field-independent basis, Debye-Ang):
   XX=             49.7369   YY=             -8.6984   ZZ=            -24.3444
   XY=             15.4348   XZ=              0.0000   YZ=              0.0000

  Exact polarizability: 110.339  20.822  39.688   0.000   0.000  23.367
 Approx polarizability: 227.414  42.479  64.638  -0.000  -0.000  33.098

                      1                      2                      3
                     A"                     A'                     A"
 Frequencies --    156.2242               205.3088               247.8644
 Red. masses --      4.2913                 3.7389                 1.9932
 Frc consts  --      0.0617                 0.0929                 0.0721
 IR Inten    --     22.2069                24.2896                 0.1116

                      4                      5                      6
                     A'                     A'                     A"
 Frequencies --    342.4462               434.1788               584.9582
 Red. masses --      3.5325                 5.2700                 1.1971
 Frc consts  --      0.2441                 0.5853                 0.2413
 IR Inten    --     11.9601                10.3923                65.0811

                      7                      8                      9
                     A'                     A"                     A"
 Frequencies --    675.6140               700.9056               791.0367
 Red. masses --      4.9438                 1.7185                 1.9183
 Frc consts  --      1.3296                 0.4974                 0.7072
 IR Inten    --    305.9368                 4.6954                26.7342

                     10                     11                     12
                     A'                     A'                     A'
 Frequencies --    817.5630              1036.5682              1066.8468
 Red. masses --      1.7624                 1.6090                 1.7181
 Frc consts  --      0.6940                 1.0186                 1.1522
 IR Inten    --     50.9076                44.0498               138.7616

                     13                     14                     15
                     A'                     A'                     A'
 Frequencies --   1148.8510              1274.7245              1389.6393
 Red. masses --      1.6487                 2.2150                 1.6069
 Frc consts  --      1.2821                 2.1206                 1.8283
 IR Inten    --     62.3629               171.0153               310.7718

                     16                     17                     18
                     A"                     A'                     A'
 Frequencies --   1415.1383              1516.1857              2643.0366
 Red. masses --      1.2502                 3.8008                 1.0783
 Frc consts  --      1.4751                 5.1479                 4.4382
 IR Inten    --     38.4377                56.0134               239.4649

                     19                     20                     21
                     A'                     A'                     A'
 Frequencies --   2736.3895              2916.2674              3089.8597
 Red. masses --      1.0850                 1.1221                 1.0933
 Frc consts  --      4.7865                 5.6228                 6.1501
 IR Inten    --    338.8885               643.0777               125.4358

 - Thermochemistry -
 -------------------
 Temperature   298.150 Kelvin.  Pressure   1.00000 Atm.
 Atom     1 has atomic number  6 and mass  12.00000

 Molecular mass:    64.03130 amu.
 Principal axes and moments of inertia in atomic units:
                           1         2         3
     Eigenvalues --    39.14338 747.26377 786.40715
           X            0.96635  -0.25725   0.00000
           Y            0.25725   0.96635   0.00000
           Z            0.00000   0.00000   1.00000
 This molecule is an asymmetric top.
 Rotational symmetry number  1.
 Rotational temperatures (Kelvin)      2.21273     0.11591     0.11014
 Rotational constants (GHZ):          46.10591     2.41513     2.29492
 Zero-point vibrational energy     150667.3 (Joules/Mol)
                                   36.01035 (Kcal/Mol)
 Warning -- explicit consideration of   6 degrees of freedom as
           vibrations may cause significant error
 Vibrational temperatures:    224.77   295.39   356.62   492.70   624.69
          (Kelvin)            841.62   972.06  1008.45  1138.12  1176.29
                             1491.39  1534.95  1652.94  1834.04  1999.38
                             2036.07  2181.45  3802.74  3937.05  4195.85
                             4445.61

 Zero-point correction=                           0.057386 (Hartree/Particle)
 Thermal correction to Energy=                    0.063211
 Thermal correction to Enthalpy=                  0.064156
 Thermal correction to Gibbs Free Energy=         0.028014
 Sum of electronic and zero-point Energies=           -190.964054
 Sum of electronic and thermal Energies=              -190.958229
 Sum of electronic and thermal Enthalpies=            -190.957285
 Sum of electronic and thermal Free Energies=         -190.993427

                     E (Thermal)             CV                S
                      KCal/Mol        Cal/Mol-Kelvin    Cal/Mol-Kelvin
 Total                   39.666             19.831             76.067
 Electronic               0.000              0.000              2.755
 Translational            0.889              2.981             38.389
 Rotational               0.889              2.981             24.646
 Vibrational             37.888             13.870             10.278
 Vibration     1          0.620              1.896              2.595
 Vibration     2          0.640              1.832              2.085
 Vibration     3          0.661              1.766              1.746
 Vibration     4          0.722              1.591              1.201
 Vibration     5          0.795              1.396              0.845
 Vibration     6          0.942              1.064              0.476

 Normal termination of Gaussian 09 at Thu Jan 31 08:52:50 2019.
