 Gaussian 09, Revision E.01,
 Gaussian 09:  EM64L-G09RevE.01 30-Nov-2015

 ---------------------------------------------
 #p b3lyp/6-311++G(3df,2p) freq symmetry=Loose
 ---------------------------------------------

 ---------
 b3lyp opt
 ---------
 Symbolic Z-matrix:
 Charge =  3 Multiplicity = 2

                         Standard orientation:
 ---------------------------------------------------------------------
 Center     Atomic      Atomic             Coordinates (Angstroms)
 Number     Number       Type             X           Y           Z
 ---------------------------------------------------------------------
      1          6           0        1.541099    0.049456    0.000255
      2          6           0        2.802548    0.216471   -0.000327
      3          6           0        0.278726   -0.146086    0.000320
      4          6           0       -1.103773   -0.496090    0.000034
      5          1           0       -1.279734   -1.229432   -0.861002
      6          1           0       -1.280229   -1.228724    0.861656
      7          6           0       -2.208711    0.503582   -0.000378
      8          1           0       -3.236443    0.099100   -0.000632
      9          1           0       -2.062927    1.595063    0.000562
 ---------------------------------------------------------------------

 SCF Done:  E(UB3LYP) =  -191.088370721     A.U. after   18 cycles

 The electronic state is 2-A.
 Alpha  occ. eigenvalues --  -11.08618 -11.03203 -10.95193 -10.93393 -10.90469
 Alpha  occ. eigenvalues --   -1.54894  -1.50042  -1.41834  -1.32153  -1.18920
 Alpha  occ. eigenvalues --   -1.11920  -1.11593  -1.11483  -1.06447  -1.04532
 Alpha  occ. eigenvalues --   -1.04190
 Alpha virt. eigenvalues --   -0.85614  -0.85207  -0.77176  -0.61231  -0.60524
 Alpha virt. eigenvalues --   -0.51928  -0.49904  -0.46303  -0.45669  -0.44855
 Alpha virt. eigenvalues --   -0.42819  -0.40175  -0.39821  -0.37941  -0.36908

  Beta  occ. eigenvalues --  -11.05502 -11.03728 -10.95233 -10.93192 -10.90464
  Beta  occ. eigenvalues --   -1.55107  -1.48674  -1.40717  -1.32201  -1.19212
  Beta  occ. eigenvalues --   -1.12248  -1.12166  -1.06564  -1.03406  -1.02775
  Beta virt. eigenvalues --   -0.86629  -0.83257  -0.82944  -0.77233  -0.58873
  Beta virt. eigenvalues --   -0.58367  -0.52264  -0.50175  -0.46303  -0.45711
  Beta virt. eigenvalues --   -0.44911  -0.42910  -0.40158  -0.39979  -0.37858

 Mulliken charges and spin densities:
               1          2
     1  C    0.983222  -0.000660
     2  C    0.605651   1.311665
     3  C    0.127977  -0.251701
     4  C    0.055336  -0.008741
     5  H    0.343830  -0.016203
     6  H    0.343896  -0.016203
     7  C   -0.136336  -0.018093
     8  H    0.356003  -0.000103
     9  H    0.320421   0.000038
 Sum of Mulliken charges =   3.00000   1.00000

 Dipole moment (field-independent basis, Debye):
    X=             -0.1753    Y=              0.2589    Z=             -0.0004  Tot=              0.3127
 Quadrupole moment (field-independent basis, Debye-Ang):
   XX=             48.2760   YY=            -14.3693   ZZ=            -20.1966
   XY=              0.7586   XZ=             -0.0019   YZ=             -0.0010

  Exact polarizability:  87.510   4.226  31.393  -0.002  -0.001  25.260
 Approx polarizability: 197.292  20.148  47.884  -0.020  -0.006  37.413

                      1                      2                      3
                      A                      A                      A
 Frequencies --    156.7505               181.4642               257.8361
 Red. masses --      4.9354                 3.0024                 1.2241
 Frc consts  --      0.0714                 0.0582                 0.0479
 IR Inten    --      9.2863                 9.6024                27.7073

                      4                      5                      6
                      A                      A                      A
 Frequencies --    303.1317               408.1631               571.6131
 Red. masses --      5.8521                 2.6023                 5.6057
 Frc consts  --      0.3168                 0.2554                 1.0792
 IR Inten    --      8.8548                 9.3978                 2.3299

                      7                      8                      9
                      A                      A                      A
 Frequencies --    691.5043               729.7949               918.7355
 Red. masses --      2.3153                 3.6806                 1.8756
 Frc consts  --      0.6523                 1.1550                 0.9328
 IR Inten    --     29.5653                33.6457               161.0829

                     10                     11                     12
                      A                      A                      A
 Frequencies --   1018.4793              1066.2868              1086.6719
 Red. masses --      1.6620                 1.1486                 1.0881
 Frc consts  --      1.0158                 0.7695                 0.7570
 IR Inten    --     94.5511                 1.0099                79.6661

                     13                     14                     15
                      A                      A                      A
 Frequencies --   1264.9216              1283.2758              1439.1665
 Red. masses --      1.3283                 1.7112                 1.2405
 Frc consts  --      1.2522                 1.6604                 1.5139
 IR Inten    --      5.9807                97.3964                11.7313

                     16                     17                     18
                      A                      A                      A
 Frequencies --   1486.5663              2154.3710              2561.3942
 Red. masses --      5.4233                11.1449                 1.0812
 Frc consts  --      7.0613                30.4767                 4.1793
 IR Inten    --     13.3718              1512.0436               298.4491

                     19                     20                     21
                      A                      A                      A
 Frequencies --   2600.8951              2967.2457              3090.2072
 Red. masses --      1.0693                 1.0548                 1.1289
 Frc consts  --      4.2618                 5.4716                 6.3518
 IR Inten    --    498.7676               188.6644               151.4916

 - Thermochemistry -
 -------------------
 Temperature   298.150 Kelvin.  Pressure   1.00000 Atm.
 Atom     1 has atomic number  6 and mass  12.00000

 Molecular mass:    64.03130 amu.
 Principal axes and moments of inertia in atomic units:
                           1         2         3
     Eigenvalues --    49.81223 769.70107 808.83303
           X            1.00000  -0.00183  -0.00002
           Y            0.00183   1.00000   0.00028
           Z            0.00002  -0.00028   1.00000
 This molecule is an asymmetric top.
 Rotational symmetry number  1.
 Rotational temperatures (Kelvin)      1.73881     0.11253     0.10708
 Rotational constants (GHZ):          36.23088     2.34473     2.23129
 Zero-point vibrational energy     156940.9 (Joules/Mol)
                                   37.50978 (Kcal/Mol)
 Warning -- explicit consideration of   6 degrees of freedom as
           vibrations may cause significant error
 Vibrational temperatures:    225.53   261.09   370.97   436.14   587.25
          (Kelvin)            822.42   994.92  1050.01  1321.85  1465.36
                             1534.15  1563.48  1819.94  1846.35  2070.64
                             2138.83  3099.66  3685.27  3742.10  4269.20
                             4446.11

 Zero-point correction=                           0.059776 (Hartree/Particle)
 Thermal correction to Energy=                    0.065593
 Thermal correction to Enthalpy=                  0.066538
 Thermal correction to Gibbs Free Energy=         0.030830
 Sum of electronic and zero-point Energies=           -191.028595
 Sum of electronic and thermal Energies=              -191.022777
 Sum of electronic and thermal Enthalpies=            -191.021833
 Sum of electronic and thermal Free Energies=         -191.057541

                     E (Thermal)             CV                S
                      KCal/Mol        Cal/Mol-Kelvin    Cal/Mol-Kelvin
 Total                   41.160             19.240             75.153
 Electronic               0.000              0.000              1.377
 Translational            0.889              2.981             38.389
 Rotational               0.889              2.981             24.942
 Vibrational             39.383             13.278             10.444
 Vibration     1          0.620              1.895              2.589
 Vibration     2          0.630              1.865              2.313
 Vibration     3          0.667              1.750              1.676
 Vibration     4          0.695              1.668              1.400
 Vibration     5          0.773              1.452              0.933
 Vibration     6          0.928              1.093              0.501

 Optimization completed.
    -- Stationary point found.
 Normal termination of Gaussian 09 at Mon Jun 20 10:29:16 2016.
