 Gaussian 09, Revision E.01,
 Gaussian 09:  EM64L-G09RevE.01 30-Nov-2015

 ---------------------------------------------
 #p b3lyp/6-311++G(3df,2p) freq symmetry=Loose
 ---------------------------------------------

 ---------
 b3lyp opt
 ---------
 Symbolic Z-matrix:
 Charge =  2 Multiplicity = 1

                         Standard orientation:
 ---------------------------------------------------------------------
 Center     Atomic      Atomic             Coordinates (Angstroms)
 Number     Number       Type             X           Y           Z
 ---------------------------------------------------------------------
      1          6           0        0.573444   -0.000057    0.315941
      2          6           0       -0.629406   -0.797492    0.047761
      3          1           0        0.939312   -0.000254    1.401999
      4          6           0        1.887719    0.000048   -0.264702
      5          1           0        2.423200    0.947609   -0.407450
      6          1           0        2.423200   -0.947462   -0.407793
      7          6           0       -0.629406    0.797474    0.048050
      8          6           0       -1.705092    0.000032   -0.178035
      9          1           0       -2.769270    0.000073   -0.400853
 ---------------------------------------------------------------------

 SCF Done:  E(RB3LYP) =  -191.923689719     A.U. after   12 cycles

 The electronic state is 1-A.
 Alpha  occ. eigenvalues --  -10.78275 -10.75237 -10.74306 -10.74291 -10.71469
 Alpha  occ. eigenvalues --   -1.47421  -1.29522  -1.15524  -1.03125  -1.02832
 Alpha  occ. eigenvalues --   -0.96443  -0.95363  -0.94195  -0.87419  -0.81853
 Alpha  occ. eigenvalues --   -0.75307
 Alpha virt. eigenvalues --   -0.61983  -0.53622  -0.50020  -0.47310  -0.33918
 Alpha virt. eigenvalues --   -0.32203  -0.30927  -0.29031  -0.27738  -0.27090
 Alpha virt. eigenvalues --   -0.25685  -0.24616  -0.23280  -0.21549  -0.20294

 Mulliken charges:
               1
     1  C    0.375072
     2  C    0.230710
     3  H    0.296706
     4  C   -0.267886
     5  H    0.322646
     6  H    0.322646
     7  C    0.230711
     8  C    0.120847
     9  H    0.368548
 Sum of Mulliken charges =   2.00000

 Dipole moment (field-independent basis, Debye):
    X=              3.4347    Y=              0.0000    Z=             -0.1220  Tot=              3.4369
 Quadrupole moment (field-independent basis, Debye-Ang):
   XX=              9.7894   YY=            -22.8362   ZZ=            -20.6339
   XY=             -0.0001   XZ=              0.2863   YZ=             -0.0004

  Exact polarizability:  56.646   0.000  38.720  -0.230   0.002  28.657
 Approx polarizability:  83.656   0.000  91.724  -0.789   0.008  47.101

                      1                      2                      3
                      A                      A                      A
 Frequencies --    196.6304               364.5701               449.6181
 Red. masses --      3.3375                 2.9059                 1.0891
 Frc consts  --      0.0760                 0.2276                 0.1297
 IR Inten    --     24.4396                11.0313                 0.4261

                      4                      5                      6
                      A                      A                      A
 Frequencies --    503.7107               646.0183               688.0927
 Red. masses --      3.6564                 4.1115                 5.5511
 Frc consts  --      0.5466                 1.0110                 1.5485
 IR Inten    --      5.9467                52.2343                24.7704

                      7                      8                      9
                      A                      A                      A
 Frequencies --    849.1256               867.7155               902.2638
 Red. masses --      1.6509                 2.2291                 1.1379
 Frc consts  --      0.7013                 0.9889                 0.5458
 IR Inten    --     20.4923                59.7454                19.7366

                     10                     11                     12
                      A                      A                      A
 Frequencies --   1032.0777              1054.4272              1086.2452
 Red. masses --      1.3365                 1.6074                 1.5167
 Frc consts  --      0.8388                 1.0529                 1.0544
 IR Inten    --      4.7108                 0.0607                 4.6690

                     13                     14                     15
                      A                      A                      A
 Frequencies --   1188.0070              1217.4631              1428.5907
 Red. masses --      5.7270                 1.4545                 1.2280
 Frc consts  --      4.7623                 1.2702                 1.4766
 IR Inten    --      7.5450                 7.1115                18.4640

                     16                     17                     18
                      A                      A                      A
 Frequencies --   1478.9164              1620.6558              2609.5148
 Red. masses --      3.6896                 6.8996                 1.0753
 Frc consts  --      4.7546                10.6772                 4.3143
 IR Inten    --      7.0260               116.3589               246.2799

                     19                     20                     21
                      A                      A                      A
 Frequencies --   3017.2582              3132.6644              3197.9166
 Red. masses --      1.0529                 1.1262                 1.1295
 Frc consts  --      5.6475                 6.5119                 6.8055
 IR Inten    --    123.8830               114.9670               196.2649

 - Thermochemistry -
 -------------------
 Temperature   298.150 Kelvin.  Pressure   1.00000 Atm.
 Atom     1 has atomic number  6 and mass  12.00000

 Molecular mass:    64.03130 amu.
 Principal axes and moments of inertia in atomic units:
                           1         2         3
     Eigenvalues --    78.64417 415.56050 458.85532
           X            0.99999   0.00000   0.00429
           Y            0.00000   1.00000  -0.00018
           Z           -0.00429   0.00018   0.99999
 This molecule is an asymmetric top.
 Rotational symmetry number  1.
 Rotational temperatures (Kelvin)      1.10134     0.20843     0.18876
 Rotational constants (GHZ):          22.94819     4.34291     3.93314
 Zero-point vibrational energy     164674.8 (Joules/Mol)
                                   39.35823 (Kcal/Mol)
 Warning -- explicit consideration of   4 degrees of freedom as
           vibrations may cause significant error
 Vibrational temperatures:    282.91   524.53   646.90   724.73   929.48
          (Kelvin)            990.01  1221.70  1248.45  1298.15  1484.93
                             1517.08  1562.86  1709.28  1751.66  2055.42
                             2127.83  2331.76  3754.51  4341.16  4507.20
                             4601.08

 Zero-point correction=                           0.062721 (Hartree/Particle)
 Thermal correction to Energy=                    0.067522
 Thermal correction to Enthalpy=                  0.068466
 Thermal correction to Gibbs Free Energy=         0.035763
 Sum of electronic and zero-point Energies=           -191.860968
 Sum of electronic and thermal Energies=              -191.856168
 Sum of electronic and thermal Enthalpies=            -191.855224
 Sum of electronic and thermal Free Energies=         -191.887927

                     E (Thermal)             CV                S
                      KCal/Mol        Cal/Mol-Kelvin    Cal/Mol-Kelvin
 Total                   42.370             16.949             68.829
 Electronic               0.000              0.000              0.000
 Translational            0.889              2.981             38.389
 Rotational               0.889              2.981             24.221
 Vibrational             40.593             10.987              6.219
 Vibration     1          0.636              1.845              2.164
 Vibration     2          0.738              1.545              1.103
 Vibration     3          0.809              1.362              0.797
 Vibration     4          0.859              1.242              0.649

 Optimization completed.
    -- Stationary point found.
 Normal termination of Gaussian 09 at Tue Jul 19 23:27:02 2016.
