 Gaussian 09, Revision E.01,
 Gaussian 09:  EM64L-G09RevE.01 30-Nov-2015

 ---------------------------------------------
 #p b3lyp/6-311++G(3df,2p) freq symmetry=Loose
 ---------------------------------------------

 ---------
 b3lyp opt
 ---------
 Symbolic Z-matrix:
 Charge =  1 Multiplicity = 4

                         Standard orientation:
 ---------------------------------------------------------------------
 Center     Atomic      Atomic             Coordinates (Angstroms)
 Number     Number       Type             X           Y           Z
 ---------------------------------------------------------------------
      1          6           0        1.606014   -0.668998   -0.143290
      2          1           0        2.597649   -1.066677    0.018098
      3          6           0       -1.362929   -0.524206   -0.302893
      4          1           0       -2.052498   -0.977537   -0.996126
      5          6           0        0.963572    0.519120    0.008141
      6          1           0        1.493536    1.367649    0.449117
      7          6           0       -0.446296    0.718036   -0.264998
      8          1           0       -0.842372    1.698254   -0.503641
      9          6           0       -0.959747   -0.214233    0.875132
 ---------------------------------------------------------------------

 SCF Done:  E(UB3LYP) =  -192.372089571     A.U. after   17 cycles

 The electronic state is 4-A.
 Alpha  occ. eigenvalues --  -10.48892 -10.47237 -10.46569 -10.46336 -10.45973
 Alpha  occ. eigenvalues --   -1.16332  -1.03104  -0.89845  -0.79876  -0.78117
 Alpha  occ. eigenvalues --   -0.73865  -0.69378  -0.66083  -0.63264  -0.55316
 Alpha  occ. eigenvalues --   -0.53693  -0.49035  -0.47596
 Alpha virt. eigenvalues --   -0.25880  -0.23992  -0.15396  -0.13635  -0.12676
 Alpha virt. eigenvalues --   -0.12334  -0.11136  -0.09789  -0.09013  -0.07965
 Alpha virt. eigenvalues --   -0.06550  -0.05237  -0.04819  -0.02734  -0.02410

  Beta  occ. eigenvalues --  -10.47048 -10.46596 -10.46388 -10.45580 -10.44029
  Beta  occ. eigenvalues --   -1.14215  -0.99864  -0.86494  -0.78186  -0.75578
  Beta  occ. eigenvalues --   -0.71629  -0.67200  -0.62396  -0.59483  -0.52051
  Beta virt. eigenvalues --   -0.40109  -0.35843  -0.31137  -0.21823  -0.20420
  Beta virt. eigenvalues --   -0.14572  -0.12843  -0.12332  -0.11274  -0.10596
  Beta virt. eigenvalues --   -0.08647  -0.07792  -0.07560  -0.06111  -0.04814

 Mulliken charges and spin densities:
               1          2
     1  C   -0.195936   1.528627
     2  H    0.263428   0.010998
     3  C    0.346550   0.064608
     4  H    0.332588  -0.003071
     5  C   -0.013000  -0.006741
     6  H    0.198829   0.054646
     7  C    0.070473   0.323316
     8  H    0.237269  -0.012372
     9  C   -0.240201   1.039990
 Sum of Mulliken charges =   1.00000   3.00000

 Dipole moment (field-independent basis, Debye):
    X=              0.6426    Y=              0.3927    Z=             -0.7789  Tot=              1.0835
 Quadrupole moment (field-independent basis, Debye-Ang):
   XX=            -12.3250   YY=            -21.8280   ZZ=            -26.1620
   XY=              0.3155   XZ=              2.9218   YZ=              0.7854

  Exact polarizability:  74.187   1.296  45.656  -1.835  -0.002  39.871
 Approx polarizability: 112.851   4.569  72.524  -6.896  -0.656  73.862

                      1                      2                      3
                      A                      A                      A
 Frequencies --    163.4511               203.2114               243.9215
 Red. masses --      4.0099                 2.7166                 4.2241
 Frc consts  --      0.0631                 0.0661                 0.1481
 IR Inten    --     28.1455                 8.6849                 1.3094

                      4                      5                      6
                      A                      A                      A
 Frequencies --    542.4993               589.6096               657.8625
 Red. masses --      2.7823                 4.7564                 1.2576
 Frc consts  --      0.4824                 0.9742                 0.3207
 IR Inten    --      0.6852                11.0819                29.7344

                      7                      8                      9
                      A                      A                      A
 Frequencies --    744.5160               810.3681               851.6872
 Red. masses --      1.4404                 1.9590                 1.5381
 Frc consts  --      0.4704                 0.7580                 0.6573
 IR Inten    --     87.5248                26.3021                20.4467

                     10                     11                     12
                      A                      A                      A
 Frequencies --    916.3585               949.2876               962.3160
 Red. masses --      1.4183                 1.3235                 1.9326
 Frc consts  --      0.7017                 0.7027                 1.0545
 IR Inten    --     19.7441                 4.1536                44.0864

                     13                     14                     15
                      A                      A                      A
 Frequencies --   1091.4940              1241.3246              1290.5224
 Red. masses --      2.0924                 1.4328                 1.5053
 Frc consts  --      1.4687                 1.3008                 1.4771
 IR Inten    --      8.3344                15.6041                 6.2939

                     16                     17                     18
                      A                      A                      A
 Frequencies --   1434.4948              1691.8427              3064.6259
 Red. masses --      3.3178                 6.8330                 1.0849
 Frc consts  --      4.0225                11.5233                 6.0034
 IR Inten    --    115.8018                28.2015                14.6806

                     19                     20                     21
                      A                      A                      A
 Frequencies --   3162.3009              3232.3280              3266.7983
 Red. masses --      1.0904                 1.0982                 1.1193
 Frc consts  --      6.4245                 6.7600                 7.0379
 IR Inten    --      9.0552                47.0474                90.5590

 - Thermochemistry -
 -------------------
 Temperature   298.150 Kelvin.  Pressure   1.00000 Atm.
 Atom     1 has atomic number  6 and mass  12.00000

 Molecular mass:    64.03130 amu.
 Principal axes and moments of inertia in atomic units:
                           1         2         3
     Eigenvalues --   136.49995 373.54334 419.60559
           X            0.99921  -0.00451   0.03953
           Y            0.00241   0.99858   0.05324
           Z           -0.03971  -0.05310   0.99780
 This molecule is an asymmetric top.
 Rotational symmetry number  1.
 Rotational temperatures (Kelvin)      0.63453     0.23187     0.20642
 Rotational constants (GHZ):          13.22155     4.83141     4.30104
 Zero-point vibrational energy     162158.7 (Joules/Mol)
                                   38.75686 (Kcal/Mol)
 Warning -- explicit consideration of   5 degrees of freedom as
           vibrations may cause significant error
 Vibrational temperatures:    235.17   292.38   350.95   780.53   848.32
          (Kelvin)            946.52  1071.19  1165.94  1225.39  1318.43
                             1365.81  1384.56  1570.41  1785.99  1856.77
                             2063.92  2434.18  4409.31  4549.84  4650.59
                             4700.19

 Zero-point correction=                           0.061763 (Hartree/Particle)
 Thermal correction to Energy=                    0.067192
 Thermal correction to Enthalpy=                  0.068136
 Thermal correction to Gibbs Free Energy=         0.032681
 Sum of electronic and zero-point Energies=           -192.310327
 Sum of electronic and thermal Energies=              -192.304897
 Sum of electronic and thermal Enthalpies=            -192.303953
 Sum of electronic and thermal Free Energies=         -192.339408

                     E (Thermal)             CV                S
                      KCal/Mol        Cal/Mol-Kelvin    Cal/Mol-Kelvin
 Total                   42.164             18.615             74.622
 Electronic               0.000              0.000              2.755
 Translational            0.889              2.981             38.389
 Rotational               0.889              2.981             24.574
 Vibrational             40.386             12.653              8.904
 Vibration     1          0.623              1.887              2.509
 Vibration     2          0.639              1.835              2.104
 Vibration     3          0.659              1.773              1.774
 Vibration     4          0.898              1.156              0.560
 Vibration     5          0.947              1.054              0.468

 Optimization completed.
    -- Stationary point found.
 Normal termination of Gaussian 09 at Mon Jun 20 07:40:38 2016.
