 Gaussian 09, Revision E.01,
 Gaussian 09:  EM64L-G09RevE.01 30-Nov-2015

 ---------------------------------------------
 #p b3lyp/6-311++G(3df,2p) freq symmetry=Loose
 ---------------------------------------------

 ---------
 b3lyp opt
 ---------
 Symbolic Z-matrix:
 Charge =  0 Multiplicity = 1

                         Standard orientation:
 ---------------------------------------------------------------------
 Center     Atomic      Atomic             Coordinates (Angstroms)
 Number     Number       Type             X           Y           Z
 ---------------------------------------------------------------------
      1          6           0        0.304864    0.000019    0.000013
      2          6           0       -0.982965   -0.000119   -0.000233
      3          6           0        1.602486   -0.652379   -0.000126
      4          1           0        2.154586   -1.575819   -0.000250
      5          6           0        1.602488    0.652415    0.000140
      6          1           0        2.154638    1.575824    0.000128
      7          6           0       -2.290096   -0.000030    0.000125
      8          1           0       -2.865216    0.000378   -0.921087
      9          1           0       -2.864673    0.000178    0.921686
 ---------------------------------------------------------------------

 SCF Done:  E(RB3LYP) =  -192.833811125     A.U. after   11 cycles

 The electronic state is 1-A.
 Alpha  occ. eigenvalues --  -10.22488 -10.22385 -10.20979 -10.16266 -10.16163
 Alpha  occ. eigenvalues --   -0.91886  -0.75989  -0.65963  -0.59913  -0.56469
 Alpha  occ. eigenvalues --   -0.47119  -0.42975  -0.40271  -0.38808  -0.37226
 Alpha  occ. eigenvalues --   -0.24806  -0.21307
 Alpha virt. eigenvalues --   -0.03624  -0.00543  -0.00441   0.01097   0.01629
 Alpha virt. eigenvalues --    0.03311   0.03644   0.04593   0.06459   0.07338
 Alpha virt. eigenvalues --    0.08500   0.09275   0.09614   0.10949   0.11325

 Mulliken charges:
               1
     1  C   -0.562693
     2  C    0.292191
     3  C   -0.079759
     4  H    0.245772
     5  C   -0.079626
     6  H    0.245776
     7  C   -0.374448
     8  H    0.156363
     9  H    0.156423
 Sum of Mulliken charges =  -0.00000

 Dipole moment (field-independent basis, Debye):
    X=              2.3085    Y=              0.0005    Z=              0.0003  Tot=              2.3085
 Quadrupole moment (field-independent basis, Debye-Ang):
   XX=            -25.2072   YY=            -27.7423   ZZ=            -30.6331
   XY=             -0.0016   XZ=             -0.0007   YZ=              0.0004

  Exact polarizability: 105.793   0.001  49.418  -0.000   0.002  38.992
 Approx polarizability: 160.439   0.003  78.624   0.003   0.006  55.807

                      1                      2                      3
                      A                      A                      A
 Frequencies --    196.9430               200.4455               376.5586
 Red. masses --      3.5651                 2.9936                 3.9838
 Frc consts  --      0.0815                 0.0709                 0.3328
 IR Inten    --      5.6255                13.6039                 5.7350

                      4                      5                      6
                      A                      A                      A
 Frequencies --    545.1154               634.1865               645.1967
 Red. masses --      4.6983                 1.0920                 1.3749
 Frc consts  --      0.8226                 0.2588                 0.3372
 IR Inten    --      0.2045                 0.0000                51.2441

                      7                      8                      9
                      A                      A                      A
 Frequencies --    718.8899               855.9845               883.3634
 Red. masses --      3.3859                 4.1649                 1.4121
 Frc consts  --      1.0310                 1.7980                 0.6492
 IR Inten    --      0.8959                 2.7025                 0.0000

                     10                     11                     12
                      A                      A                      A
 Frequencies --    900.5006               976.3024              1045.3971
 Red. masses --      1.3180                 1.2126                 1.3811
 Frc consts  --      0.6297                 0.6810                 0.8893
 IR Inten    --     49.2698                 1.3860                 1.7598

                     13                     14                     15
                      A                      A                      A
 Frequencies --   1055.7780              1365.4296              1518.3824
 Red. masses --      1.6726                 2.1226                 1.8057
 Frc consts  --      1.0984                 2.3316                 2.4528
 IR Inten    --     20.4546                32.6728                 6.9306

                     16                     17                     18
                      A                      A                      A
 Frequencies --   1673.3420              2093.2186              3081.4886
 Red. masses --      5.4789                10.5217                 1.0548
 Frc consts  --      9.0388                27.1622                 5.9013
 IR Inten    --     51.1892                10.0646                36.8941

                     19                     20                     21
                      A                      A                      A
 Frequencies --   3141.8575              3235.3608              3278.6859
 Red. masses --      1.1147                 1.0851                 1.1435
 Frc consts  --      6.4832                 6.6920                 7.2424
 IR Inten    --     12.3495                 1.6773                 1.4051

 - Thermochemistry -
 -------------------
 Temperature   298.150 Kelvin.  Pressure   1.00000 Atm.
 Atom     1 has atomic number  6 and mass  12.00000

 Molecular mass:    64.03130 amu.
 Principal axes and moments of inertia in atomic units:
                           1         2         3
     Eigenvalues --    60.46316 588.71634 636.95793
           X            1.00000  -0.00001   0.00001
           Y            0.00001   1.00000  -0.00018
           Z           -0.00001   0.00018   1.00000
 This molecule is an asymmetric top.
 Rotational symmetry number  1.
 Rotational temperatures (Kelvin)      1.43251     0.14712     0.13598
 Rotational constants (GHZ):          29.84861     3.06555     2.83338
 Zero-point vibrational energy     170003.9 (Joules/Mol)
                                   40.63190 (Kcal/Mol)
 Warning -- explicit consideration of   4 degrees of freedom as
           vibrations may cause significant error
 Vibrational temperatures:    283.36   288.40   541.78   784.30   912.45
          (Kelvin)            928.29  1034.32  1231.57  1270.96  1295.62
                             1404.68  1504.09  1519.03  1964.55  2184.61
                             2407.56  3011.67  4433.57  4520.43  4654.96
                             4717.29

 Zero-point correction=                           0.064751 (Hartree/Particle)
 Thermal correction to Energy=                    0.069911
 Thermal correction to Enthalpy=                  0.070855
 Thermal correction to Gibbs Free Energy=         0.037252
 Sum of electronic and zero-point Energies=           -192.769060
 Sum of electronic and thermal Energies=              -192.763900
 Sum of electronic and thermal Enthalpies=            -192.762956
 Sum of electronic and thermal Free Energies=         -192.796559

                     E (Thermal)             CV                S
                      KCal/Mol        Cal/Mol-Kelvin    Cal/Mol-Kelvin
 Total                   43.870             17.885             70.724
 Electronic               0.000              0.000              0.000
 Translational            0.889              2.981             38.389
 Rotational               0.889              2.981             24.631
 Vibrational             42.092             11.923              7.703
 Vibration     1          0.636              1.844              2.161
 Vibration     2          0.638              1.839              2.129
 Vibration     3          0.747              1.520              1.053
 Vibration     4          0.900              1.150              0.554

 Optimization completed.
    -- Stationary point found.
 Normal termination of Gaussian 09 at Wed Jun 22 01:32:31 2016.
