 Gaussian 09, Revision E.01,
 Gaussian 09:  EM64L-G09RevE.01 30-Nov-2015

 ---------------------------------------------
 #p b3lyp/6-311++G(3df,2p) freq symmetry=Loose
 ---------------------------------------------

 ---------
 b3lyp opt
 ---------
 Symbolic Z-matrix:
 Charge =  0 Multiplicity = 3

                         Standard orientation:
 ---------------------------------------------------------------------
 Center     Atomic      Atomic             Coordinates (Angstroms)
 Number     Number       Type             X           Y           Z
 ---------------------------------------------------------------------
      1          6           0       -0.000000    1.140444    0.000000
      2          1           0       -0.109127    2.215135    0.000000
      3          6           0        0.784668   -0.921604    0.000000
      4          6           0        1.179204    0.443771    0.000000
      5          1           0        2.181837    0.833877    0.000000
      6          6           0       -1.126016    0.182176    0.000000
      7          1           0       -2.168932    0.462027    0.000000
      8          6           0       -0.626680   -1.093085    0.000000
      9          1           0       -1.170833   -2.021252    0.000000
 ---------------------------------------------------------------------

 SCF Done:  E(UB3LYP) =  -192.839652967     A.U. after   15 cycles

 The electronic state is 3-A".
 Alpha  occ. eigenvalues --  -10.23054 -10.19693 -10.19662 -10.17661 -10.17649
 Alpha  occ. eigenvalues --   -0.89215  -0.72837  -0.70526  -0.55909  -0.54715
 Alpha  occ. eigenvalues --   -0.50744  -0.42423  -0.39734  -0.39679  -0.39293
 Alpha  occ. eigenvalues --   -0.27803  -0.24417  -0.23981
 Alpha virt. eigenvalues --   -0.00294   0.01252   0.01779   0.02788   0.03169
 Alpha virt. eigenvalues --    0.03507   0.05380   0.05792   0.07357   0.09084
 Alpha virt. eigenvalues --    0.09537   0.09774   0.10514   0.11935   0.12136

  Beta  occ. eigenvalues --  -10.20724 -10.19162 -10.19134 -10.17705 -10.17696
  Beta  occ. eigenvalues --   -0.87167  -0.72223  -0.67149  -0.54801  -0.54095
  Beta  occ. eigenvalues --   -0.47791  -0.42015  -0.38510  -0.38499  -0.36188
  Beta  occ. eigenvalues --   -0.23325
  Beta virt. eigenvalues --   -0.13357  -0.10521  -0.00243   0.01243   0.02062
  Beta virt. eigenvalues --    0.03516   0.05019   0.05885   0.06066   0.06545
  Beta virt. eigenvalues --    0.07589   0.09053   0.09790   0.10092   0.11042

 Mulliken charges and spin densities:
               1          2
     1  C   -0.135962   0.361515
     2  H    0.178999  -0.001707
     3  C    0.153020   1.579841
     4  C   -0.304382  -0.153724
     5  H    0.184947   0.004234
     6  C   -0.135954   0.359164
     7  H    0.179405  -0.001684
     8  C   -0.304988  -0.151796
     9  H    0.184915   0.004156
 Sum of Mulliken charges =  -0.00000   2.00000

 Dipole moment (field-independent basis, Debye):
    X=             -0.5887    Y=              0.6925    Z=              0.0000  Tot=              0.9089
 Quadrupole moment (field-independent basis, Debye-Ang):
   XX=            -27.0891   YY=            -27.3672   ZZ=            -32.7887
   XY=              0.8872   XZ=              0.0000   YZ=              0.0000

  Exact polarizability:  62.681  -0.297  62.797   0.003  -0.004  38.054
 Approx polarizability:  97.879  -8.741 100.778  -0.000  -0.000  55.734

                      1                      2                      3
                     A"                     A'                     A"
 Frequencies --    505.3585               540.1224               599.3965
 Red. masses --      2.1534                 9.4329                 3.4287
 Frc consts  --      0.3240                 1.6214                 0.7258
 IR Inten    --      0.0039                 1.2017                 8.4317

                      4                      5                      6
                     A"                     A"                     A'
 Frequencies --    666.3185               717.3829               821.7196
 Red. masses --      1.4477                 1.2994                 5.7737
 Frc consts  --      0.3787                 0.3940                 2.2969
 IR Inten    --      0.0244               113.6961                 0.0062

                      7                      8                      9
                     A"                     A"                     A'
 Frequencies --    874.4653               887.4860               935.4533
 Red. masses --      1.2440                 1.4081                 1.9568
 Frc consts  --      0.5605                 0.6534                 1.0089
 IR Inten    --      1.7349                 0.0006                 2.2741

                     10                     11                     12
                     A'                     A'                     A'
 Frequencies --    989.4387              1056.0393              1122.3568
 Red. masses --      2.2377                 2.0077                 1.7359
 Frc consts  --      1.2907                 1.3192                 1.2884
 IR Inten    --      0.5051                 0.0046                16.8519

                     13                     14                     15
                     A'                     A'                     A'
 Frequencies --   1138.8183              1268.3261              1369.2906
 Red. masses --      1.9162                 1.3526                 1.7878
 Frc consts  --      1.4642                 1.2820                 1.9750
 IR Inten    --      0.2676                 0.0955                27.4385

                     16                     17                     18
                     A'                     A'                     A'
 Frequencies --   1441.9455              1485.4817              3195.6574
 Red. masses --      6.3435                 3.5064                 1.0892
 Frc consts  --      7.7710                 4.5588                 6.5536
 IR Inten    --     10.3411                 2.1183                 2.5386

                     19                     20                     21
                     A'                     A'                     A'
 Frequencies --   3208.3437              3248.2084              3251.4667
 Red. masses --      1.0925                 1.0959                 1.1004
 Frc consts  --      6.6258                 6.8123                 6.8544
 IR Inten    --      6.5437                 0.2467                 0.6715

 - Thermochemistry -
 -------------------
 Temperature   298.150 Kelvin.  Pressure   1.00000 Atm.
 Atom     1 has atomic number  6 and mass  12.00000

 Molecular mass:    64.03130 amu.
 Principal axes and moments of inertia in atomic units:
                           1         2         3
     Eigenvalues --   169.40732 215.38759 384.79491
           X            0.76174  -0.64788   0.00000
           Y            0.64788   0.76174   0.00000
           Z            0.00000   0.00000   1.00000
 This molecule is an asymmetric top.
 Rotational symmetry number  1.
 Rotational temperatures (Kelvin)      0.51128     0.40213     0.22509
 Rotational constants (GHZ):          10.65327     8.37904     4.69014
 Zero-point vibrational energy     175390.9 (Joules/Mol)
                                   41.91944 (Kcal/Mol)
 Warning -- explicit consideration of   3 degrees of freedom as
           vibrations may cause significant error
 Vibrational temperatures:    727.10   777.11   862.40   958.68  1032.15
          (Kelvin)           1182.27  1258.16  1276.89  1345.91  1423.58
                             1519.40  1614.82  1638.50  1824.84  1970.10
                             2074.64  2137.27  4597.83  4616.09  4673.44
                             4678.13

 Zero-point correction=                           0.066803 (Hartree/Particle)
 Thermal correction to Energy=                    0.070825
 Thermal correction to Enthalpy=                  0.071769
 Thermal correction to Gibbs Free Energy=         0.039462
 Sum of electronic and zero-point Energies=           -192.772850
 Sum of electronic and thermal Energies=              -192.768828
 Sum of electronic and thermal Enthalpies=            -192.767884
 Sum of electronic and thermal Free Energies=         -192.800191

                     E (Thermal)             CV                S
                      KCal/Mol        Cal/Mol-Kelvin    Cal/Mol-Kelvin
 Total                   44.444             14.879             67.997
 Electronic               0.000              0.000              2.183
 Translational            0.889              2.981             38.389
 Rotational               0.889              2.981             24.155
 Vibrational             42.666              8.917              3.270
 Vibration     1          0.861              1.238              0.645
 Vibration     2          0.895              1.161              0.565
 Vibration     3          0.957              1.033              0.451

 Optimization completed.
    -- Stationary point found.
 Normal termination of Gaussian 09 at Mon Jun 20 03:02:10 2016.
