 Gaussian 09, Revision E.01,
 Gaussian 09:  EM64L-G09RevE.01 30-Nov-2015

 ---------------------------------------------
 #p b3lyp/6-311++G(3df,2p) freq symmetry=Loose
 ---------------------------------------------

 ---------
 b3lyp opt
 ---------
 Symbolic Z-matrix:
 Charge =  3 Multiplicity = 4

                         Standard orientation:
 ---------------------------------------------------------------------
 Center     Atomic      Atomic             Coordinates (Angstroms)
 Number     Number       Type             X           Y           Z
 ---------------------------------------------------------------------
      1          6           0        1.211489    0.046981    0.053851
      2          6           0       -0.961576   -0.984894    0.114715
      3          6           0        0.439622   -1.148601   -0.168981
      4          1           0        2.021546    0.079841    0.916834
      5          1           0        2.183489    0.213307   -0.595575
      6          6           0        0.151734    1.080063   -0.018422
      7          1           0        0.326511    2.174079   -0.108987
      8          6           0       -1.227940    0.437852   -0.000674
      9          1           0       -2.211517    0.944364   -0.095196
 ---------------------------------------------------------------------

 SCF Done:  E(UB3LYP) =  -190.988850620     A.U. after   18 cycles

 The electronic state is 4-A.
 Alpha  occ. eigenvalues --  -11.07985 -11.05978 -11.02486 -11.01251 -10.96883
 Alpha  occ. eigenvalues --   -1.67054  -1.50032  -1.46840  -1.31862  -1.27412
 Alpha  occ. eigenvalues --   -1.23466  -1.17730  -1.15653  -1.13991  -1.07289
 Alpha  occ. eigenvalues --   -1.05389  -1.02142
 Alpha virt. eigenvalues --   -0.91221  -0.81974  -0.73357  -0.55978  -0.54587
 Alpha virt. eigenvalues --   -0.53117  -0.51866  -0.50374  -0.49013  -0.48281
 Alpha virt. eigenvalues --   -0.44515  -0.42282  -0.41246  -0.39974  -0.38217

  Beta  occ. eigenvalues --  -11.06234 -11.03445 -11.02180 -11.00582 -10.96540
  Beta  occ. eigenvalues --   -1.63806  -1.46953  -1.43670  -1.29581  -1.24421
  Beta  occ. eigenvalues --   -1.21110  -1.15002  -1.12720  -1.11843
  Beta virt. eigenvalues --   -0.95222  -0.89069  -0.87709  -0.81589  -0.76991
  Beta virt. eigenvalues --   -0.66462  -0.54784  -0.52801  -0.51330  -0.50133
  Beta virt. eigenvalues --   -0.49241  -0.47482  -0.46734  -0.43922  -0.41554

 Mulliken charges and spin densities:
               1          2
     1  C   -0.088482   0.159750
     2  C    0.659250   1.241237
     3  C    0.611995   0.847532
     4  H    0.336395   0.079318
     5  H    0.318919   0.094666
     6  C    0.472877   0.129171
     7  H    0.355076   0.014492
     8  C   -0.032561   0.428121
     9  H    0.366531   0.005712
 Sum of Mulliken charges =   3.00000   3.00000

 Dipole moment (field-independent basis, Debye):
    X=              1.8734    Y=              1.2719    Z=              0.2975  Tot=              2.2839
 Quadrupole moment (field-independent basis, Debye-Ang):
   XX=              6.8077   YY=             -4.7274   ZZ=            -19.9417
   XY=             -0.4856   XZ=              0.9986   YZ=             -0.5231

  Exact polarizability:  55.466   0.082  50.001   0.253   0.206  24.396
 Approx polarizability: 104.616   0.553  99.783  -1.062   1.875  39.077

                      1                      2                      3
                      A                      A                      A
 Frequencies --    187.4527               309.0061               485.1374
 Red. masses --      1.8068                 2.5787                 1.9856
 Frc consts  --      0.0374                 0.1451                 0.2753
 IR Inten    --      7.8526                73.7341                77.4665

                      4                      5                      6
                      A                      A                      A
 Frequencies --    578.7718               639.7451               741.7442
 Red. masses --      2.7399                 3.5028                 2.7445
 Frc consts  --      0.5408                 0.8447                 0.8896
 IR Inten    --    181.6761                82.9826                47.1083

                      7                      8                      9
                      A                      A                      A
 Frequencies --    749.7850               784.6629               831.5464
 Red. masses --      1.2275                 1.5521                 1.4926
 Frc consts  --      0.4066                 0.5630                 0.6081
 IR Inten    --    201.0973               258.1818                62.0721

                     10                     11                     12
                      A                      A                      A
 Frequencies --    875.3141               967.9968              1010.7052
 Red. masses --      2.6822                 2.0413                 1.6998
 Frc consts  --      1.2108                 1.1270                 1.0231
 IR Inten    --     36.6704                 3.7752                 8.2077

                     13                     14                     15
                      A                      A                      A
 Frequencies --   1051.9766              1096.4244              1193.2577
 Red. masses --      2.2074                 3.1779                 2.6615
 Frc consts  --      1.4393                 2.2509                 2.2328
 IR Inten    --      1.5540                 8.6050                15.5162

                     16                     17                     18
                      A                      A                      A
 Frequencies --   1227.8642              1287.8265              2120.5741
 Red. masses --      1.9424                 1.6494                 1.0548
 Frc consts  --      1.7254                 1.6117                 2.7946
 IR Inten    --    200.0651                80.1407               454.2506

                     19                     20                     21
                      A                      A                      A
 Frequencies --   2388.3085              2925.6024              2946.4899
 Red. masses --      1.1029                 1.1004                 1.1001
 Frc consts  --      3.7065                 5.5494                 5.6272
 IR Inten    --   1205.0812               249.0313               400.2118

 - Thermochemistry -
 -------------------
 Temperature   298.150 Kelvin.  Pressure   1.00000 Atm.
 Atom     1 has atomic number  6 and mass  12.00000

 Molecular mass:    64.03130 amu.
 Principal axes and moments of inertia in atomic units:
                           1         2         3
     Eigenvalues --   182.34505 232.34877 402.17087
           X            0.99895  -0.04418   0.01189
           Y            0.04428   0.99899  -0.00796
           Z           -0.01152   0.00848   0.99990
 This molecule is an asymmetric top.
 Rotational symmetry number  1.
 Rotational temperatures (Kelvin)      0.47500     0.37278     0.21537
 Rotational constants (GHZ):           9.89740     7.76738     4.48750
 Zero-point vibrational energy     145945.6 (Joules/Mol)
                                   34.88183 (Kcal/Mol)
 Warning -- explicit consideration of   4 degrees of freedom as
           vibrations may cause significant error
 Vibrational temperatures:    269.70   444.59   698.00   832.72   920.45
          (Kelvin)           1067.20  1078.77  1128.95  1196.41  1259.38
                             1392.73  1454.18  1513.56  1577.51  1716.83
                             1766.62  1852.89  3051.03  3436.24  4209.28
                             4239.34

 Zero-point correction=                           0.055588 (Hartree/Particle)
 Thermal correction to Energy=                    0.060537
 Thermal correction to Enthalpy=                  0.061481
 Thermal correction to Gibbs Free Energy=         0.027178
 Sum of electronic and zero-point Energies=           -190.933263
 Sum of electronic and thermal Energies=              -190.928314
 Sum of electronic and thermal Enthalpies=            -190.927370
 Sum of electronic and thermal Free Energies=         -190.961673

                     E (Thermal)             CV                S
                      KCal/Mol        Cal/Mol-Kelvin    Cal/Mol-Kelvin
 Total                   37.987             18.031             72.196
 Electronic               0.000              0.000              2.755
 Translational            0.889              2.981             38.389
 Rotational               0.889              2.981             24.347
 Vibrational             36.210             12.070              6.705
 Vibration     1          0.632              1.857              2.253
 Vibration     2          0.698              1.657              1.368
 Vibration     3          0.841              1.283              0.696
 Vibration     4          0.935              1.077              0.488

 Optimization completed.
    -- Stationary point found.
 Normal termination of Gaussian 09 at Mon Jun 20 13:15:05 2016.
