 Gaussian 09, Revision E.01,
 Gaussian 09:  EM64L-G09RevE.01 30-Nov-2015

 ---------------------------------------------
 #p b3lyp/6-311++G(3df,2p) freq symmetry=Loose
 ---------------------------------------------

 ---------
 b3lyp opt
 ---------
 Symbolic Z-matrix:
 Charge =  0 Multiplicity = 3

                         Standard orientation:
 ---------------------------------------------------------------------
 Center     Atomic      Atomic             Coordinates (Angstroms)
 Number     Number       Type             X           Y           Z
 ---------------------------------------------------------------------
      1          6           0       -0.328389   -1.076519    0.000045
      2          6           0       -0.304654    0.935091   -0.000001
      3          1           0       -0.225717    1.529008    0.904301
      4          1           0       -0.225834    1.528968   -0.904339
      5          1           0       -2.087143   -0.092925    0.891008
      6          6           0       -1.459884   -0.101260    0.000097
      7          1           0       -2.087258   -0.092964   -0.890734
      8          6           0        0.785262   -0.250880   -0.000045
      9          6           0        2.078657    0.014887   -0.000135
 ---------------------------------------------------------------------

 SCF Done:  E(UB3LYP) =  -192.697154864     A.U. after   18 cycles

 The electronic state is 3-A.
 Alpha  occ. eigenvalues --  -10.24708 -10.24106 -10.22672 -10.21850 -10.19996
 Alpha  occ. eigenvalues --   -0.91255  -0.76092  -0.68601  -0.64425  -0.51554
 Alpha  occ. eigenvalues --   -0.46983  -0.45075  -0.41567  -0.41201  -0.33742
 Alpha  occ. eigenvalues --   -0.30268  -0.25885  -0.21578
 Alpha virt. eigenvalues --   -0.11396  -0.01499   0.00825   0.01161   0.03114
 Alpha virt. eigenvalues --    0.03601   0.05295   0.05383   0.06450   0.06814
 Alpha virt. eigenvalues --    0.08378   0.08995   0.10410   0.11160   0.11719

  Beta  occ. eigenvalues --  -10.24686 -10.21840 -10.21727 -10.21685 -10.20168
  Beta  occ. eigenvalues --   -0.89828  -0.74518  -0.66793  -0.62832  -0.50912
  Beta  occ. eigenvalues --   -0.44674  -0.41829  -0.40997  -0.40451  -0.30521
  Beta  occ. eigenvalues --   -0.28614
  Beta virt. eigenvalues --   -0.12570  -0.09157  -0.08109  -0.01406   0.01039
  Beta virt. eigenvalues --    0.01290   0.03668   0.04323   0.05589   0.06117
  Beta virt. eigenvalues --    0.06733   0.07180   0.08424   0.10491   0.11471

 Mulliken charges and spin densities:
               1          2
     1  C   -0.004299   1.426281
     2  C   -0.396770  -0.028162
     3  H    0.189861   0.006489
     4  H    0.189861   0.006489
     5  H    0.151578   0.030798
     6  C   -0.346730   0.025137
     7  H    0.151578   0.030798
     8  C    0.680269  -0.143076
     9  C   -0.615348   0.645246
 Sum of Mulliken charges =  -0.00000   2.00000

 Dipole moment (field-independent basis, Debye):
    X=             -3.8345    Y=              1.2574    Z=              0.0002  Tot=              4.0354
 Quadrupole moment (field-independent basis, Debye-Ang):
   XX=            -37.1126   YY=            -29.7094   ZZ=            -30.2288
   XY=             -1.5740   XZ=              0.0005   YZ=              0.0001

  Exact polarizability:  81.878   3.718  54.111  -0.003  -0.000  43.249
 Approx polarizability: 135.293  12.544  86.050  -0.005  -0.001  61.822

                      1                      2                      3
                      A                      A                      A
 Frequencies --    185.1002               218.6389               426.7414
 Red. masses --      2.6289                 7.1700                 4.5828
 Frc consts  --      0.0531                 0.2019                 0.4917
 IR Inten    --      0.7817                10.3640                 0.6477

                      4                      5                      6
                      A                      A                      A
 Frequencies --    488.0967               733.5245               797.3888
 Red. masses --      7.6671                 7.6605                 1.1155
 Frc consts  --      1.0762                 2.4285                 0.4179
 IR Inten    --     65.0963                11.1605                 1.9095

                      7                      8                      9
                      A                      A                      A
 Frequencies --    894.7034               974.5174               988.7489
 Red. masses --      3.4801                 6.1661                 1.5117
 Frc consts  --      1.6413                 3.4502                 0.8707
 IR Inten    --      5.5350                11.0286                 0.0204

                     10                     11                     12
                      A                      A                      A
 Frequencies --   1051.9376              1089.5254              1178.4712
 Red. masses --      1.1069                 2.5403                 1.1611
 Frc consts  --      0.7217                 1.7766                 0.9501
 IR Inten    --      0.5392                 4.0391                 0.2152

                     13                     14                     15
                      A                      A                      A
 Frequencies --   1207.2776              1226.5264              1456.9571
 Red. masses --      1.4527                 1.7072                 1.1361
 Frc consts  --      1.2475                 1.5132                 1.4209
 IR Inten    --     12.5567                 1.6585                21.5861

                     16                     17                     18
                      A                      A                      A
 Frequencies --   1483.4853              1529.3988              3046.4339
 Red. masses --      1.1112                 8.2842                 1.0546
 Frc consts  --      1.4408                11.4167                 5.7668
 IR Inten    --      1.0000               129.0717                30.2458

                     19                     20                     21
                      A                      A                      A
 Frequencies --   3086.8508              3088.4426              3173.4628
 Red. masses --      1.1091                 1.0525                 1.1162
 Frc consts  --      6.2267                 5.9148                 6.6232
 IR Inten    --      7.6123                 8.0198                 1.5824

 - Thermochemistry -
 -------------------
 Temperature   298.150 Kelvin.  Pressure   1.00000 Atm.
 Atom     1 has atomic number  6 and mass  12.00000

 Molecular mass:    64.03130 amu.
 Principal axes and moments of inertia in atomic units:
                           1         2         3
     Eigenvalues --   118.30043 353.67507 448.77707
           X            0.99997  -0.00765   0.00006
           Y            0.00765   0.99997   0.00002
           Z           -0.00006  -0.00002   1.00000
 This molecule is an asymmetric top.
 Rotational symmetry number  1.
 Rotational temperatures (Kelvin)      0.73215     0.24490     0.19300
 Rotational constants (GHZ):          15.25558     5.10282     4.02146
 Zero-point vibrational energy     169428.5 (Joules/Mol)
                                   40.49438 (Kcal/Mol)
 Warning -- explicit consideration of   4 degrees of freedom as
           vibrations may cause significant error
 Vibrational temperatures:    266.32   314.57   613.98   702.26  1055.38
          (Kelvin)           1147.26  1287.28  1402.11  1422.59  1513.50
                             1567.58  1695.56  1737.00  1764.70  2096.23
                             2134.40  2200.46  4383.13  4441.28  4443.57
                             4565.90

 Zero-point correction=                           0.064532 (Hartree/Particle)
 Thermal correction to Energy=                    0.069433
 Thermal correction to Enthalpy=                  0.070377
 Thermal correction to Gibbs Free Energy=         0.036194
 Sum of electronic and zero-point Energies=           -192.632623
 Sum of electronic and thermal Energies=              -192.627722
 Sum of electronic and thermal Enthalpies=            -192.626778
 Sum of electronic and thermal Free Energies=         -192.660961

                     E (Thermal)             CV                S
                      KCal/Mol        Cal/Mol-Kelvin    Cal/Mol-Kelvin
 Total                   43.570             16.502             71.944
 Electronic               0.000              0.000              2.183
 Translational            0.889              2.981             38.389
 Rotational               0.889              2.981             24.444
 Vibrational             41.792             10.541              6.927
 Vibration     1          0.631              1.860              2.276
 Vibration     2          0.646              1.813              1.970
 Vibration     3          0.788              1.412              0.869
 Vibration     4          0.844              1.276              0.689

 Optimization completed.
    -- Stationary point found.
 Normal termination of Gaussian 09 at Wed Jul 20 08:08:11 2016.
