 Gaussian 09, Revision E.01,
 Gaussian 09:  EM64L-G09RevE.01 30-Nov-2015

 ---------------------------------------------
 #p b3lyp/6-311++G(3df,2p) freq symmetry=Loose
 ---------------------------------------------

 ---------
 b3lyp opt
 ---------
 Symbolic Z-matrix:
 Charge =  1 Multiplicity = 2

                         Standard orientation:
 ---------------------------------------------------------------------
 Center     Atomic      Atomic             Coordinates (Angstroms)
 Number     Number       Type             X           Y           Z
 ---------------------------------------------------------------------
      1          6           0       -1.399086   -0.654307    0.000073
      2          6           0       -1.222749    0.795747    0.000221
      3          1           0       -2.075003   -1.495930   -0.002851
      4          1           0       -1.445477    1.372700    0.906571
      5          1           0       -1.447372    1.371942   -0.906176
      6          6           0       -0.124648   -0.192590    0.000216
      7          6           0        1.241310   -0.482144    0.000629
      8          1           0        1.635431   -1.500387    0.000808
      9          6           0        2.060577    0.575239   -0.000864
 ---------------------------------------------------------------------

 SCF Done:  E(UB3LYP) =  -192.432088472     A.U. after   18 cycles

 The electronic state is 2-A.
 Alpha  occ. eigenvalues --  -10.50783 -10.48777 -10.47893 -10.43480 -10.43153
 Alpha  occ. eigenvalues --   -1.16335  -1.05292  -0.86771  -0.83523  -0.77881
 Alpha  occ. eigenvalues --   -0.74044  -0.70666  -0.61080  -0.57936  -0.57513
 Alpha  occ. eigenvalues --   -0.53124  -0.49703
 Alpha virt. eigenvalues --   -0.34112  -0.30740  -0.18538  -0.15522  -0.14158
 Alpha virt. eigenvalues --   -0.12974  -0.11504  -0.11404  -0.09017  -0.07643
 Alpha virt. eigenvalues --   -0.07309  -0.07051  -0.04746  -0.04363  -0.03939

  Beta  occ. eigenvalues --  -10.50397 -10.48571 -10.47139 -10.43454 -10.43178
  Beta  occ. eigenvalues --   -1.14956  -1.04534  -0.85804  -0.82266  -0.77038
  Beta  occ. eigenvalues --   -0.73913  -0.68193  -0.60168  -0.57380  -0.55645
  Beta  occ. eigenvalues --   -0.52520
  Beta virt. eigenvalues --   -0.40521  -0.33629  -0.26833  -0.16966  -0.15383
  Beta virt. eigenvalues --   -0.13914  -0.12771  -0.11351  -0.11155  -0.08845
  Beta virt. eigenvalues --   -0.07544  -0.07163  -0.06899  -0.04164  -0.03980

 Mulliken charges and spin densities:
               1          2
     1  C    0.265852   0.480844
     2  C   -0.334241  -0.069045
     3  H    0.331689  -0.011365
     4  H    0.225680   0.085572
     5  H    0.225556   0.085510
     6  C    0.293406   0.148779
     7  C    0.090448   0.046757
     8  H    0.238203  -0.002560
     9  C   -0.336593   0.235507
 Sum of Mulliken charges =   1.00000   1.00000

 Dipole moment (field-independent basis, Debye):
    X=             -1.6738    Y=             -1.7223    Z=             -0.0005  Tot=              2.4017
 Quadrupole moment (field-independent basis, Debye-Ang):
   XX=            -15.3797   YY=            -21.1273   ZZ=            -26.5506
   XY=             -3.0992   XZ=              0.0100   YZ=              0.0054

  Exact polarizability:  83.156   1.467  48.289  -0.002  -0.002  33.407
 Approx polarizability: 139.448   8.335  77.365  -0.021  -0.015  49.659

                      1                      2                      3
                      A                      A                      A
 Frequencies --    101.6249               160.3805               301.3666
 Red. masses --      7.2893                 3.2970                 2.1477
 Frc consts  --      0.0444                 0.0500                 0.1149
 IR Inten    --      7.8837                 1.8930                 8.6354

                      4                      5                      6
                      A                      A                      A
 Frequencies --    371.3623               558.1447               719.9558
 Red. masses --      3.5801                 1.2066                 3.2693
 Frc consts  --      0.2909                 0.2215                 0.9984
 IR Inten    --      4.6898                14.9112                 6.6045

                      7                      8                      9
                      A                      A                      A
 Frequencies --    742.4342               857.8664               945.7613
 Red. masses --      1.3113                 1.3552                 1.3181
 Frc consts  --      0.4259                 0.5876                 0.6946
 IR Inten    --     27.1816                 4.1840                40.0515

                     10                     11                     12
                      A                      A                      A
 Frequencies --    948.9308              1023.3836              1071.8835
 Red. masses --      1.5175                 1.7039                 1.3716
 Frc consts  --      0.8051                 1.0514                 0.9285
 IR Inten    --      3.3719                 5.5485                13.5930

                     13                     14                     15
                      A                      A                      A
 Frequencies --   1147.1494              1181.9636              1354.0886
 Red. masses --      3.4167                 4.2216                 1.0666
 Frc consts  --      2.6491                 3.4748                 1.1523
 IR Inten    --     11.5025                84.3596                59.5632

                     16                     17                     18
                      A                      A                      A
 Frequencies --   1521.7136              1689.3849              2961.6236
 Red. masses --      6.8320                 9.1860                 1.0490
 Frc consts  --      9.3210                15.4466                 5.4211
 IR Inten    --    192.7995                75.3338               115.3672

                     19                     20                     21
                      A                      A                      A
 Frequencies --   3006.7139              3092.0363              3243.8763
 Red. masses --      1.1032                 1.0873                 1.1090
 Frc consts  --      5.8759                 6.1245                 6.8757
 IR Inten    --     23.9612                75.5369                74.9356

 - Thermochemistry -
 -------------------
 Temperature   298.150 Kelvin.  Pressure   1.00000 Atm.
 Atom     1 has atomic number  6 and mass  12.00000

 Molecular mass:    64.03130 amu.
 Principal axes and moments of inertia in atomic units:
                           1         2         3
     Eigenvalues --   106.42462 442.49318 537.09112
           X            0.99939  -0.03488   0.00007
           Y            0.03488   0.99939   0.00015
           Z           -0.00007  -0.00015   1.00000
 This molecule is an asymmetric top.
 Rotational symmetry number  1.
 Rotational temperatures (Kelvin)      0.81385     0.19574     0.16126
 Rotational constants (GHZ):          16.95793     4.07857     3.36021
 Zero-point vibrational energy     161505.7 (Joules/Mol)
                                   38.60079 (Kcal/Mol)
 Warning -- explicit consideration of   5 degrees of freedom as
           vibrations may cause significant error
 Vibrational temperatures:    146.22   230.75   433.60   534.31   803.04
          (Kelvin)           1035.85  1068.20  1234.28  1360.74  1365.30
                             1472.42  1542.20  1650.49  1700.58  1948.23
                             2189.40  2430.65  4261.11  4325.99  4448.75
                             4667.21

 Zero-point correction=                           0.061514 (Hartree/Particle)
 Thermal correction to Energy=                    0.067116
 Thermal correction to Enthalpy=                  0.068060
 Thermal correction to Gibbs Free Energy=         0.032561
 Sum of electronic and zero-point Energies=           -192.370574
 Sum of electronic and thermal Energies=              -192.364972
 Sum of electronic and thermal Enthalpies=            -192.364028
 Sum of electronic and thermal Free Energies=         -192.399527

                     E (Thermal)             CV                S
                      KCal/Mol        Cal/Mol-Kelvin    Cal/Mol-Kelvin
 Total                   42.116             18.451             74.714
 Electronic               0.000              0.000              1.377
 Translational            0.889              2.981             38.389
 Rotational               0.889              2.981             24.740
 Vibrational             40.339             12.490             10.207
 Vibration     1          0.604              1.948              3.423
 Vibration     2          0.622              1.891              2.545
 Vibration     3          0.693              1.671              1.409
 Vibration     4          0.743              1.531              1.074
 Vibration     5          0.914              1.122              0.528

 Normal termination of Gaussian 09 at Mon Jun 20 04:02:01 2016.
