 Gaussian 09, Revision E.01,
 Gaussian 09:  EM64L-G09RevE.01 30-Nov-2015

 ---------------------------------------------
 #p b3lyp/6-311++G(3df,2p) freq symmetry=Loose
 ---------------------------------------------

 ---------
 b3lyp opt
 ---------
 Symbolic Z-matrix:
 Charge =  2 Multiplicity = 3

                         Standard orientation:
 ---------------------------------------------------------------------
 Center     Atomic      Atomic             Coordinates (Angstroms)
 Number     Number       Type             X           Y           Z
 ---------------------------------------------------------------------
      1          6           0        0.521585   -0.960478    0.148671
      2          1           0        0.631629   -1.949829    0.601004
      3          6           0       -0.594667   -0.031408    0.030314
      4          6           0       -1.957705   -0.114012   -0.135070
      5          1           0       -2.848646    0.500715   -0.255668
      6          6           0        1.439678    0.038024   -0.263766
      7          1           0        2.465728    0.071072   -0.627294
      8          6           0        0.464239    0.971087    0.162233
      9          1           0        0.512507    1.958768    0.627671
 ---------------------------------------------------------------------

 SCF Done:  E(UB3LYP) =  -191.948899221     A.U. after   14 cycles

 The electronic state is 3-A.
 Alpha  occ. eigenvalues --  -10.74374 -10.74232 -10.73930 -10.72276 -10.71820
 Alpha  occ. eigenvalues --   -1.43548  -1.24733  -1.14101  -1.09759  -1.00690
 Alpha  occ. eigenvalues --   -0.97225  -0.92408  -0.89698  -0.88304  -0.87194
 Alpha  occ. eigenvalues --   -0.74840  -0.72077
 Alpha virt. eigenvalues --   -0.57052  -0.53895  -0.43353  -0.31910  -0.31284
 Alpha virt. eigenvalues --   -0.30519  -0.29727  -0.28301  -0.27304  -0.25123
 Alpha virt. eigenvalues --   -0.24153  -0.23000  -0.22508  -0.21348  -0.20483

  Beta  occ. eigenvalues --  -10.74205 -10.74146 -10.73566 -10.71890 -10.69400
  Beta  occ. eigenvalues --   -1.42621  -1.20174  -1.13647  -1.07342  -1.00373
  Beta  occ. eigenvalues --   -0.95261  -0.91094  -0.88802  -0.86521  -0.85730
  Beta virt. eigenvalues --   -0.63293  -0.56708  -0.53671  -0.49063  -0.39768
  Beta virt. eigenvalues --   -0.31447  -0.30245  -0.29981  -0.29371  -0.27529
  Beta virt. eigenvalues --   -0.26748  -0.24712  -0.23763  -0.22717  -0.21864

 Mulliken charges and spin densities:
               1          2
     1  C    0.222193   0.057946
     2  H    0.342005   0.000808
     3  C    0.374362   0.258229
     4  C   -0.193694   1.339070
     5  H    0.336311  -0.003530
     6  C   -0.025853   0.253884
     7  H    0.347758   0.000897
     8  C    0.254922   0.092337
     9  H    0.341996   0.000358
 Sum of Mulliken charges =   2.00000   2.00000

 Dipole moment (field-independent basis, Debye):
    X=              0.2426    Y=              0.5448    Z=              0.2338  Tot=              0.6405
 Quadrupole moment (field-independent basis, Debye-Ang):
   XX=              1.0452   YY=            -12.9144   ZZ=            -22.8526
   XY=             -1.7262   XZ=             -0.1277   YZ=             -0.1603

  Exact polarizability:  65.593   0.064  40.859  -0.683   0.001  25.791
 Approx polarizability: 103.601   1.519  69.569  -3.524   0.088  39.097

                      1                      2                      3
                      A                      A                      A
 Frequencies --    216.9097               356.3479               384.3443
 Red. masses --      2.6236                 2.4184                 2.1811
 Frc consts  --      0.0727                 0.1809                 0.1898
 IR Inten    --      4.5847                 7.7629                22.2263

                      4                      5                      6
                      A                      A                      A
 Frequencies --    645.3673               708.8780               731.1696
 Red. masses --      1.6231                 1.8699                 1.5679
 Frc consts  --      0.3983                 0.5536                 0.4939
 IR Inten    --     16.6635                14.9225                28.3527

                      7                      8                      9
                      A                      A                      A
 Frequencies --    875.0680               957.6730               978.0971
 Red. masses --      2.1237                 1.8071                 1.4279
 Frc consts  --      0.9582                 0.9765                 0.8049
 IR Inten    --     20.9118                11.2047                 0.6867

                     10                     11                     12
                      A                      A                      A
 Frequencies --   1005.4860              1023.1527              1061.4255
 Red. masses --      3.0939                 1.8686                 1.3545
 Frc consts  --      1.8429                 1.1525                 0.8991
 IR Inten    --      1.2915                 7.8743                 2.8852

                     13                     14                     15
                      A                      A                      A
 Frequencies --   1151.8765              1182.8475              1318.6643
 Red. masses --      1.9178                 1.4349                 3.2189
 Frc consts  --      1.4992                 1.1828                 3.2978
 IR Inten    --     25.6890                 0.1998               103.5666

                     16                     17                     18
                      A                      A                      A
 Frequencies --   1376.4463              1558.2921              3116.8398
 Red. masses --      3.5363                 8.0443                 1.1008
 Frc consts  --      3.9475                11.5089                 6.3009
 IR Inten    --    106.0605                 1.3371                97.0937

                     19                     20                     21
                      A                      A                      A
 Frequencies --   3121.4090              3161.4534              3166.1835
 Red. masses --      1.1016                 1.1055                 1.1120
 Frc consts  --      6.3238                 6.5101                 6.5680
 IR Inten    --    167.6458               335.7223                54.8358

 - Thermochemistry -
 -------------------
 Temperature   298.150 Kelvin.  Pressure   1.00000 Atm.
 Atom     1 has atomic number  6 and mass  12.00000

 Molecular mass:    64.03130 amu.
 Principal axes and moments of inertia in atomic units:
                           1         2         3
     Eigenvalues --   119.12119 352.89648 451.54096
           X            0.99975  -0.02232  -0.00114
           Y            0.02232   0.99974  -0.00395
           Z            0.00123   0.00393   0.99999
 This molecule is an asymmetric top.
 Rotational symmetry number  1.
 Rotational temperatures (Kelvin)      0.72711     0.24544     0.19182
 Rotational constants (GHZ):          15.15046     5.11408     3.99685
 Zero-point vibrational energy     168063.0 (Joules/Mol)
                                   40.16801 (Kcal/Mol)
 Warning -- explicit consideration of   3 degrees of freedom as
           vibrations may cause significant error
 Vibrational temperatures:    312.08   512.70   552.99   928.54  1019.92
          (Kelvin)           1051.99  1259.03  1377.88  1407.26  1446.67
                             1472.09  1527.15  1657.29  1701.85  1897.26
                             1980.40  2242.03  4484.43  4491.01  4548.62
                             4555.43

 Zero-point correction=                           0.064012 (Hartree/Particle)
 Thermal correction to Energy=                    0.068707
 Thermal correction to Enthalpy=                  0.069651
 Thermal correction to Gibbs Free Energy=         0.035973
 Sum of electronic and zero-point Energies=           -191.884887
 Sum of electronic and thermal Energies=              -191.880192
 Sum of electronic and thermal Enthalpies=            -191.879248
 Sum of electronic and thermal Free Energies=         -191.912927

                     E (Thermal)             CV                S
                      KCal/Mol        Cal/Mol-Kelvin    Cal/Mol-Kelvin
 Total                   43.114             16.534             70.883
 Electronic               0.000              0.000              2.183
 Translational            0.889              2.981             38.389
 Rotational               0.889              2.981             24.455
 Vibrational             41.337             10.573              5.856
 Vibration     1          0.646              1.815              1.985
 Vibration     2          0.732              1.562              1.138
 Vibration     3          0.753              1.504              1.022

 Optimization completed.
    -- Stationary point found.
 Normal termination of Gaussian 09 at Mon Jun 20 09:54:16 2016.
