 Gaussian 09, Revision E.01,
 Gaussian 09:  EM64L-G09RevE.01 30-Nov-2015

 ------------------------------------------------------
 #p b3lyp/6-311++G(3df,2p) freq IOp(2/17=3) IOp(2/18=3)
 ------------------------------------------------------

 ---------
 b3lyp opt
 ---------
 Symbolic Z-matrix:
 Charge =  0 Multiplicity = 1

                         Standard orientation:
 ---------------------------------------------------------------------
 Center     Atomic      Atomic             Coordinates (Angstroms)
 Number     Number       Type             X           Y           Z
 ---------------------------------------------------------------------
      1          6           0       -1.509441    0.295228    0.000000
      2          1           0       -1.805534   -0.259122   -0.889866
      3          1           0       -1.805534   -0.259122    0.889866
      4          1           0       -2.027145    1.253170    0.000000
      5          6           0        0.780053   -1.925350    0.000000
      6          6           0        0.000000    0.489360    0.000000
      7          6           0        0.409098    1.729534    0.000000
      8          6           0        0.924615   -0.634460    0.000000
      9          1           0        2.012213   -0.460606    0.000000
 ---------------------------------------------------------------------

 SCF Done:  E(RB3LYP) =  -192.714331736     A.U. after   12 cycles

 The electronic state is 1-A'.
 Alpha  occ. eigenvalues --  -10.25232 -10.24928 -10.22334 -10.21623 -10.21577
 Alpha  occ. eigenvalues --   -0.87366  -0.79250  -0.71864  -0.58670  -0.53190
 Alpha  occ. eigenvalues --   -0.46467  -0.45012  -0.42855  -0.36020  -0.32829
 Alpha  occ. eigenvalues --   -0.30786  -0.27552
 Alpha virt. eigenvalues --   -0.13108  -0.11087  -0.04639  -0.00907   0.00833
 Alpha virt. eigenvalues --    0.02435   0.02851   0.04146   0.04496   0.05804
 Alpha virt. eigenvalues --    0.06603   0.07241   0.08406   0.09251   0.10441

 Mulliken charges:
               1
     1  C   -0.646296
     2  H    0.177119
     3  H    0.177119
     4  H    0.152941
     5  C   -0.699841
     6  C    0.981736
     7  C   -0.635150
     8  C    0.302052
     9  H    0.190319
 Sum of Mulliken charges =  -0.00000

 Dipole moment (field-independent basis, Debye):
    X=             -1.1894    Y=              0.1502    Z=              0.0000  Tot=              1.1989
 Quadrupole moment (field-independent basis, Debye-Ang):
   XX=            -24.8741   YY=            -43.1311   ZZ=            -32.3226
   XY=             -0.7476   XZ=              0.0000   YZ=              0.0000

  Exact polarizability:  57.331  -1.698  79.816   0.000  -0.000  42.688
 Approx polarizability:  82.938   4.891 137.960  -0.000   0.000  61.863

                      1                      2                      3
                     A'                     A'                     A"
 Frequencies --    145.3885               150.7116               161.1940
 Red. masses --      7.1955                 5.6215                 2.5503
 Frc consts  --      0.0896                 0.0752                 0.0390
 IR Inten    --     36.5733                 4.9673                18.5704

                      4                      5                      6
                     A"                     A'                     A"
 Frequencies --    235.9956               345.5023               394.1316
 Red. masses --      1.1402                 3.3386                 2.4161
 Frc consts  --      0.0374                 0.2348                 0.2211
 IR Inten    --      2.7410                 3.7946                 3.0755

                      7                      8                      9
                     A"                     A'                     A'
 Frequencies --    661.6232               775.5960               930.3223
 Red. masses --      1.9350                 5.5888                 1.3216
 Frc consts  --      0.4991                 1.9808                 0.6739
 IR Inten    --     10.0876                 1.8537                 2.1530

                     10                     11                     12
                     A"                     A'                     A'
 Frequencies --   1037.3309              1046.9228              1132.4763
 Red. masses --      1.3905                 1.4405                 3.9040
 Frc consts  --      0.8816                 0.9302                 2.9500
 IR Inten    --      1.2992                 7.6564                 0.8104

                     13                     14                     15
                     A'                     A'                     A"
 Frequencies --   1399.9685              1480.9472              1482.1007
 Red. masses --      1.1843                 1.0700                 1.0419
 Frc consts  --      1.3675                 1.3827                 1.3485
 IR Inten    --      0.1945                11.2728                10.9468

                     16                     17                     18
                     A'                     A'                     A'
 Frequencies --   1686.3785              1770.0161              3006.8044
 Red. masses --      8.6147                 8.9605                 1.0788
 Frc consts  --     14.4344                16.5401                 5.7465
 IR Inten    --     65.1337                 3.7063                30.3805

                     19                     20                     21
                     A'                     A"                     A'
 Frequencies --   3036.1910              3109.2262              3114.2680
 Red. masses --      1.0318                 1.1046                 1.1022
 Frc consts  --      5.6043                 6.2914                 6.2984
 IR Inten    --      6.1578                 4.0400                 3.0851

 - Thermochemistry -
 -------------------
 Temperature   298.150 Kelvin.  Pressure   1.00000 Atm.
 Atom     1 has atomic number  6 and mass  12.00000

 Molecular mass:    64.03130 amu.
 Principal axes and moments of inertia in atomic units:
                           1         2         3
     Eigenvalues --   176.06203 380.14242 544.80480
           X           -0.49131   0.87099   0.00000
           Y            0.87099   0.49131   0.00000
           Z           -0.00000   0.00000   1.00000
 This molecule is an asymmetric top.
 Rotational symmetry number  1.
 Rotational temperatures (Kelvin)      0.49195     0.22785     0.15898
 Rotational constants (GHZ):          10.25060     4.74754     3.31264
 Zero-point vibrational energy     162112.5 (Joules/Mol)
                                   38.74582 (Kcal/Mol)
 Warning -- explicit consideration of   6 degrees of freedom as
           vibrations may cause significant error
 Vibrational temperatures:    209.18   216.84   231.92   339.54   497.10
          (Kelvin)            567.07   951.93  1115.91  1338.52  1492.49
                             1506.29  1629.38  2014.24  2130.75  2132.41
                             2426.32  2546.66  4326.12  4368.40  4473.48
                             4480.73

 Zero-point correction=                           0.061745 (Hartree/Particle)
 Thermal correction to Energy=                    0.068053
 Thermal correction to Enthalpy=                  0.068997
 Thermal correction to Gibbs Free Energy=         0.032697
 Sum of electronic and zero-point Energies=           -192.652586
 Sum of electronic and thermal Energies=              -192.646279
 Sum of electronic and thermal Enthalpies=            -192.645335
 Sum of electronic and thermal Free Energies=         -192.681634

                     E (Thermal)             CV                S
                      KCal/Mol        Cal/Mol-Kelvin    Cal/Mol-Kelvin
 Total                   42.704             19.823             76.399
 Electronic               0.000              0.000              0.000
 Translational            0.889              2.981             38.389
 Rotational               0.889              2.981             25.103
 Vibrational             40.926             13.862             12.906
 Vibration     1          0.617              1.908              2.732
 Vibration     2          0.618              1.902              2.663
 Vibration     3          0.622              1.890              2.536
 Vibration     4          0.655              1.786              1.833
 Vibration     5          0.724              1.584              1.187
 Vibration     6          0.761              1.483              0.984

 Optimization completed.
    -- Stationary point found.
 Normal termination of Gaussian 09 at Thu Jan 31 06:38:44 2019.
