 Gaussian 09, Revision E.01,
 Gaussian 09:  EM64L-G09RevE.01 30-Nov-2015

 ---------------------------------------------
 #p b3lyp/6-311++G(3df,2p) freq symmetry=Loose
 ---------------------------------------------

 ---------
 b3lyp opt
 ---------
 Symbolic Z-matrix:
 Charge =  1 Multiplicity = 4

                         Standard orientation:
 ---------------------------------------------------------------------
 Center     Atomic      Atomic             Coordinates (Angstroms)
 Number     Number       Type             X           Y           Z
 ---------------------------------------------------------------------
      1          6           0       -0.495670   -0.881617   -0.190899
      2          6           0        0.667176   -0.131776    0.400487
      3          1           0        0.785763   -0.307529    1.472179
      4          6           0        1.858973    0.035884   -0.359277
      5          1           0        2.917748    0.055071   -0.151142
      6          6           0       -1.583549   -0.092258   -0.054206
      7          1           0       -2.634898   -0.089335   -0.285500
      8          6           0       -0.552148    0.826227    0.093657
      9          1           0       -0.437306    1.803038   -0.374112
 ---------------------------------------------------------------------

 SCF Done:  E(UB3LYP) =  -192.399207772     A.U. after   16 cycles

 The electronic state is 4-A.
 Alpha  occ. eigenvalues --  -10.50918 -10.49578 -10.46875 -10.46403 -10.43465
 Alpha  occ. eigenvalues --   -1.19875  -1.00499  -0.87349  -0.86479  -0.77130
 Alpha  occ. eigenvalues --   -0.73619  -0.68960  -0.67200  -0.65779  -0.58559
 Alpha  occ. eigenvalues --   -0.50361  -0.47648  -0.44918
 Alpha virt. eigenvalues --   -0.28933  -0.25906  -0.14405  -0.13734  -0.12478
 Alpha virt. eigenvalues --   -0.11649  -0.10208  -0.09621  -0.07747  -0.07252
 Alpha virt. eigenvalues --   -0.06936  -0.06501  -0.04311  -0.03161  -0.02497

  Beta  occ. eigenvalues --  -10.49281 -10.48885 -10.46897 -10.46450 -10.40718
  Beta  occ. eigenvalues --   -1.18474  -0.97940  -0.84816  -0.83010  -0.75036
  Beta  occ. eigenvalues --   -0.71135  -0.66950  -0.65059  -0.63432  -0.56723
  Beta virt. eigenvalues --   -0.35861  -0.30725  -0.29262  -0.24122  -0.23980
  Beta virt. eigenvalues --   -0.14054  -0.13140  -0.11983  -0.10794  -0.09493
  Beta virt. eigenvalues --   -0.09066  -0.07428  -0.06541  -0.06194  -0.05521

 Mulliken charges and spin densities:
               1          2
     1  C    0.114581   0.973423
     2  C    0.248484  -0.208795
     3  H    0.243863   0.048883
     4  C   -0.534967   1.888109
     5  H    0.259484   0.003209
     6  C    0.170726  -0.138498
     7  H    0.306629   0.004498
     8  C   -0.050252   0.391690
     9  H    0.241452   0.037481
 Sum of Mulliken charges =   1.00000   3.00000

 Dipole moment (field-independent basis, Debye):
    X=             -0.9184    Y=              0.8544    Z=              0.4827  Tot=              1.3440
 Quadrupole moment (field-independent basis, Debye-Ang):
   XX=            -11.4576   YY=            -23.9022   ZZ=            -26.3921
   XY=             -0.3937   XZ=              1.9555   YZ=             -1.0096

  Exact polarizability:  68.270   0.581  43.333  -1.586   0.586  34.606
 Approx polarizability:  99.852   1.507  79.988  -3.523   4.267  51.734

                      1                      2                      3
                      A                      A                      A
 Frequencies --    260.6020               361.0953               424.7680
 Red. masses --      3.2088                 1.8266                 2.0535
 Frc consts  --      0.1284                 0.1403                 0.2183
 IR Inten    --     19.8380                 7.2376                11.9677

                      4                      5                      6
                      A                      A                      A
 Frequencies --    561.2099               585.9904               676.3227
 Red. masses --      2.8986                 3.6215                 3.7499
 Frc consts  --      0.5379                 0.7327                 1.0106
 IR Inten    --     14.6083                18.5519                10.4361

                      7                      8                      9
                      A                      A                      A
 Frequencies --    788.2343               866.4365               878.0965
 Red. masses --      1.4582                 1.8309                 1.3522
 Frc consts  --      0.5338                 0.8098                 0.6143
 IR Inten    --      9.4308                57.9014                17.3771

                     10                     11                     12
                      A                      A                      A
 Frequencies --   1003.0981              1032.0278              1078.5183
 Red. masses --      1.3385                 1.4877                 1.9855
 Frc consts  --      0.7935                 0.9336                 1.3608
 IR Inten    --     10.8969                10.2757                 3.4832

                     13                     14                     15
                      A                      A                      A
 Frequencies --   1117.8004              1168.2746              1219.6404
 Red. masses --      1.5411                 2.0135                 2.7865
 Frc consts  --      1.1345                 1.6192                 2.4421
 IR Inten    --      4.4090                31.2686                19.7632

                     16                     17                     18
                      A                      A                      A
 Frequencies --   1326.8360              1529.9381              3056.1784
 Red. masses --      1.8556                 6.3577                 1.0844
 Frc consts  --      1.9247                 8.7680                 5.9674
 IR Inten    --     27.8129                 9.9067                21.2046

                     19                     20                     21
                      A                      A                      A
 Frequencies --   3120.5945              3239.6897              3279.9295
 Red. masses --      1.0928                 1.0935                 1.1130
 Frc consts  --      6.2699                 6.7622                 7.0543
 IR Inten    --     41.6154                61.5422                72.3452

 - Thermochemistry -
 -------------------
 Temperature   298.150 Kelvin.  Pressure   1.00000 Atm.
 Atom     1 has atomic number  6 and mass  12.00000

 Molecular mass:    64.03130 amu.
 Principal axes and moments of inertia in atomic units:
                           1         2         3
     Eigenvalues --    98.69421 379.58049 432.80946
           X            0.99982  -0.00627   0.01781
           Y            0.00757   0.99724  -0.07380
           Z           -0.01730   0.07392   0.99711
 This molecule is an asymmetric top.
 Rotational symmetry number  1.
 Rotational temperatures (Kelvin)      0.87760     0.22818     0.20012
 Rotational constants (GHZ):          18.28619     4.75457     4.16983
 Zero-point vibrational energy     164936.8 (Joules/Mol)
                                   39.42084 (Kcal/Mol)
 Warning -- explicit consideration of   5 degrees of freedom as
           vibrations may cause significant error
 Vibrational temperatures:    374.95   519.54   611.15   807.45   843.11
          (Kelvin)            973.08  1134.09  1246.61  1263.38  1443.23
                             1484.86  1551.75  1608.26  1680.88  1754.79
                             1909.02  2201.24  4397.15  4489.83  4661.19
                             4719.08

 Zero-point correction=                           0.062821 (Hartree/Particle)
 Thermal correction to Energy=                    0.067604
 Thermal correction to Enthalpy=                  0.068548
 Thermal correction to Gibbs Free Energy=         0.034636
 Sum of electronic and zero-point Energies=           -192.336387
 Sum of electronic and thermal Energies=              -192.331604
 Sum of electronic and thermal Enthalpies=            -192.330660
 Sum of electronic and thermal Free Energies=         -192.364572

                     E (Thermal)             CV                S
                      KCal/Mol        Cal/Mol-Kelvin    Cal/Mol-Kelvin
 Total                   42.422             17.379             71.374
 Electronic               0.000              0.000              2.755
 Translational            0.889              2.981             38.389
 Rotational               0.889              2.981             24.298
 Vibrational             40.644             11.418              5.932
 Vibration     1          0.669              1.745              1.658
 Vibration     2          0.735              1.552              1.117
 Vibration     3          0.787              1.416              0.876
 Vibration     4          0.917              1.115              0.521
 Vibration     5          0.943              1.062              0.474

 Optimization completed.
    -- Stationary point found.
 Normal termination of Gaussian 09 at Mon Jun 20 07:05:51 2016.
