 Gaussian 09, Revision E.01,
 Gaussian 09:  EM64L-G09RevE.01 30-Nov-2015

 ---------------------------------------------
 #p b3lyp/6-311++G(3df,2p) freq symmetry=Loose
 ---------------------------------------------

 ---------
 b3lyp opt
 ---------
 Symbolic Z-matrix:
 Charge =  2 Multiplicity = 3

                         Standard orientation:
 ---------------------------------------------------------------------
 Center     Atomic      Atomic             Coordinates (Angstroms)
 Number     Number       Type             X           Y           Z
 ---------------------------------------------------------------------
      1          6           0       -0.375304   -0.038197   -0.060851
      2          6           0        1.634871   -0.165658    0.317709
      3          6           0        0.670851   -1.019838   -0.243384
      4          1           0       -2.229044   -0.406276   -0.836855
      5          6           0       -1.784083    0.039533    0.090368
      6          1           0       -2.170006    1.039437    0.279894
      7          1           0       -2.126727   -0.707057    0.841820
      8          6           0        0.787226    0.878190   -0.079050
      9          1           0        0.924412    1.909710   -0.433603
 ---------------------------------------------------------------------

 SCF Done:  E(UB3LYP) =  -191.857262311     A.U. after   16 cycles

 The electronic state is 3-A.
 Alpha  occ. eigenvalues --  -10.80992 -10.80445 -10.78891 -10.77724 -10.62169
 Alpha  occ. eigenvalues --   -1.48621  -1.24659  -1.16319  -1.11653  -0.99521
 Alpha  occ. eigenvalues --   -0.96183  -0.94023  -0.90844  -0.84611  -0.84175
 Alpha  occ. eigenvalues --   -0.81225  -0.79291
 Alpha virt. eigenvalues --   -0.60132  -0.59390  -0.47600  -0.33474  -0.33144
 Alpha virt. eigenvalues --   -0.31242  -0.28945  -0.27349  -0.26393  -0.25851
 Alpha virt. eigenvalues --   -0.25645  -0.22907  -0.22461  -0.21250  -0.20298

  Beta  occ. eigenvalues --  -10.79188 -10.78650 -10.78495 -10.77437 -10.62120
  Beta  occ. eigenvalues --   -1.46581  -1.23831  -1.14029  -1.09266  -0.96563
  Beta  occ. eigenvalues --   -0.94493  -0.92276  -0.89706  -0.83140  -0.82555
  Beta virt. eigenvalues --   -0.65758  -0.62165  -0.57633  -0.56582  -0.44529
  Beta virt. eigenvalues --   -0.32797  -0.32617  -0.30067  -0.28067  -0.27059
  Beta virt. eigenvalues --   -0.25974  -0.25610  -0.24642  -0.22392  -0.21711

 Mulliken charges and spin densities:
               1          2
     1  C    0.295609   0.037987
     2  C    0.316456   0.929508
     3  C    0.374408   0.883662
     4  H    0.277798   0.000140
     5  C   -0.221275   0.024515
     6  H    0.237268   0.002125
     7  H    0.271301   0.018968
     8  C    0.096159   0.072107
     9  H    0.352278   0.030988
 Sum of Mulliken charges =   2.00000   2.00000

 Dipole moment (field-independent basis, Debye):
    X=              0.3156    Y=              0.7830    Z=             -0.3176  Tot=              0.9020
 Quadrupole moment (field-independent basis, Debye-Ang):
   XX=             -2.7919   YY=            -14.6312   ZZ=            -22.3901
   XY=              1.8531   XZ=             -0.1296   YZ=             -0.8465

  Exact polarizability:  63.481   1.148  41.418   1.320  -0.048  28.585
 Approx polarizability: 110.195   2.286  77.507   6.766   1.678  45.537

                      1                      2                      3
                      A                      A                      A
 Frequencies --     83.6309               256.8052               358.4292
 Red. masses --      1.1096                 4.2592                 2.7201
 Frc consts  --      0.0046                 0.1655                 0.2059
 IR Inten    --     17.8709                 1.2876                 3.5578

                      4                      5                      6
                      A                      A                      A
 Frequencies --    453.9980               608.9039               791.3932
 Red. masses --      3.0363                 2.9095                 2.1998
 Frc consts  --      0.3687                 0.6356                 0.8117
 IR Inten    --      5.1034                10.7440                11.5357

                      7                      8                      9
                      A                      A                      A
 Frequencies --    860.6045               910.3303               960.4265
 Red. masses --      3.3056                 2.5484                 1.9492
 Frc consts  --      1.4425                 1.2443                 1.0593
 IR Inten    --     12.5550                65.1069                28.2853

                     10                     11                     12
                      A                      A                      A
 Frequencies --   1016.6291              1068.7352              1179.5839
 Red. masses --      1.9520                 1.3042                 1.1923
 Frc consts  --      1.1887                 0.8777                 0.9774
 IR Inten    --     79.4424                13.4333               179.1220

                     13                     14                     15
                      A                      A                      A
 Frequencies --   1240.6919              1308.3460              1353.2436
 Red. masses --      4.8313                 1.0910                 5.0174
 Frc consts  --      4.3817                 1.1003                 5.4136
 IR Inten    --     60.1117                29.2812               135.0871

                     16                     17                     18
                      A                      A                      A
 Frequencies --   1410.0992              1461.0670              2799.9046
 Red. masses --      1.3546                 4.0819                 1.0698
 Frc consts  --      1.5869                 5.1340                 4.9411
 IR Inten    --     10.7236                88.1988               280.4651

                     19                     20                     21
                      A                      A                      A
 Frequencies --   2861.3581              3049.1462              3131.6880
 Red. masses --      1.0610                 1.1019                 1.0965
 Frc consts  --      5.1181                 6.0360                 6.3358
 IR Inten    --    347.2928               233.2637                49.5885

 - Thermochemistry -
 -------------------
 Temperature   298.150 Kelvin.  Pressure   1.00000 Atm.
 Atom     1 has atomic number  6 and mass  12.00000

 Molecular mass:    64.03130 amu.
 Principal axes and moments of inertia in atomic units:
                           1         2         3
     Eigenvalues --   111.63427 368.99474 453.55043
           X            0.99967   0.02379  -0.01016
           Y           -0.02412   0.99913  -0.03409
           Z            0.00934   0.03432   0.99937
 This molecule is an asymmetric top.
 Rotational symmetry number  1.
 Rotational temperatures (Kelvin)      0.77587     0.23473     0.19097
 Rotational constants (GHZ):          16.16655     4.89097     3.97914
 Zero-point vibrational energy     162482.9 (Joules/Mol)
                                   38.83434 (Kcal/Mol)
 Warning -- explicit consideration of   5 degrees of freedom as
           vibrations may cause significant error
 Vibrational temperatures:    120.33   369.48   515.70   653.20   876.08
          (Kelvin)           1138.64  1238.22  1309.76  1381.84  1462.70
                             1537.67  1697.16  1785.08  1882.42  1947.01
                             2028.82  2102.15  4028.43  4116.85  4387.04
                             4505.79

 Zero-point correction=                           0.061886 (Hartree/Particle)
 Thermal correction to Energy=                    0.067096
 Thermal correction to Enthalpy=                  0.068041
 Thermal correction to Gibbs Free Energy=         0.032983
 Sum of electronic and zero-point Energies=           -191.795376
 Sum of electronic and thermal Energies=              -191.790166
 Sum of electronic and thermal Enthalpies=            -191.789222
 Sum of electronic and thermal Free Energies=         -191.824279

                     E (Thermal)             CV                S
                      KCal/Mol        Cal/Mol-Kelvin    Cal/Mol-Kelvin
 Total                   42.104             17.249             73.785
 Electronic               0.000              0.000              2.183
 Translational            0.889              2.981             38.389
 Rotational               0.889              2.981             24.439
 Vibrational             40.326             11.287              8.773
 Vibration     1          0.601              1.960              3.804
 Vibration     2          0.666              1.751              1.683
 Vibration     3          0.733              1.558              1.129
 Vibration     4          0.812              1.352              0.784
 Vibration     5          0.968              1.013              0.435

 Normal termination of Gaussian 09 at Mon Jun 20 09:36:14 2016.
