 Gaussian 09, Revision E.01,
 Gaussian 09:  EM64L-G09RevE.01 30-Nov-2015

 ---------------------------------------------
 #p b3lyp/6-311++G(3df,2p) freq symmetry=Loose
 ---------------------------------------------

 ---------
 b3lyp opt
 ---------
 Symbolic Z-matrix:
 Charge =  2 Multiplicity = 3

                         Standard orientation:
 ---------------------------------------------------------------------
 Center     Atomic      Atomic             Coordinates (Angstroms)
 Number     Number       Type             X           Y           Z
 ---------------------------------------------------------------------
      1          6           0        2.162951    0.583843   -0.001218
      2          6           0       -1.571366   -0.532982   -0.000660
      3          1           0       -1.663321    1.828131    0.001220
      4          1           0       -2.290512   -1.347462   -0.001113
      5          6           0       -0.278965   -0.092644   -0.000098
      6          6           0       -1.301714    0.803400    0.000413
      7          6           0        1.162754   -0.469061    0.000684
      8          1           0        1.456041   -1.120362   -0.862781
      9          1           0        1.455836   -1.115640    0.867949
 ---------------------------------------------------------------------

 SCF Done:  E(UB3LYP) =  -191.869846848     A.U. after   18 cycles

 The electronic state is 3-A.
 Alpha  occ. eigenvalues --  -10.82252 -10.70662 -10.70178 -10.68022 -10.67903
 Alpha  occ. eigenvalues --   -1.39938  -1.29645  -1.09310  -1.02385  -0.99315
 Alpha  occ. eigenvalues --   -0.96370  -0.92042  -0.87648  -0.82417  -0.82120
 Alpha  occ. eigenvalues --   -0.80293  -0.73128
 Alpha virt. eigenvalues --   -0.60745  -0.47118  -0.45558  -0.34187  -0.29626
 Alpha virt. eigenvalues --   -0.28539  -0.28332  -0.26988  -0.26398  -0.25814
 Alpha virt. eigenvalues --   -0.24383  -0.23999  -0.23132  -0.19989  -0.19112

  Beta  occ. eigenvalues --  -10.78792 -10.70365 -10.70013 -10.67973 -10.67898
  Beta  occ. eigenvalues --   -1.39727  -1.26622  -1.05186  -1.02117  -0.97570
  Beta  occ. eigenvalues --   -0.94888  -0.91639  -0.82251  -0.81620  -0.80937
  Beta virt. eigenvalues --   -0.65422  -0.56106  -0.52903  -0.46923  -0.45552
  Beta virt. eigenvalues --   -0.33811  -0.29056  -0.28167  -0.28159  -0.26916
  Beta virt. eigenvalues --   -0.25613  -0.25041  -0.24204  -0.23457  -0.22397

 Mulliken charges and spin densities:
               1          2
     1  C    0.300062   1.819422
     2  C    0.119497   0.004582
     3  H    0.353557   0.004020
     4  H    0.355643   0.000453
     5  C    0.144270   0.022982
     6  C    0.264543   0.009984
     7  C   -0.123332   0.120210
     8  H    0.292758   0.009275
     9  H    0.293001   0.009073
 Sum of Mulliken charges =   2.00000   2.00000

 Dipole moment (field-independent basis, Debye):
    X=              2.1805    Y=             -0.1843    Z=              0.0022  Tot=              2.1883
 Quadrupole moment (field-independent basis, Debye-Ang):
   XX=              6.8081   YY=            -13.7818   ZZ=            -22.2160
   XY=              0.4084   XZ=              0.0020   YZ=              0.0005

  Exact polarizability:  61.184   3.531  41.064  -0.005  -0.001  27.765
 Approx polarizability:  87.202   9.195  66.843  -0.013  -0.008  42.775

                      1                      2                      3
                      A                      A                      A
 Frequencies --     82.9819               234.9893               245.4793
 Red. masses --      2.4976                 4.7788                 1.4840
 Frc consts  --      0.0101                 0.1555                 0.0527
 IR Inten    --      0.5006                 2.6214                54.5518

                      4                      5                      6
                      A                      A                      A
 Frequencies --    403.2414               509.8627               750.2996
 Red. masses --      2.8687                 5.0937                 3.8176
 Frc consts  --      0.2748                 0.7802                 1.2662
 IR Inten    --      2.7578                 4.8194                 1.6487

                      7                      8                      9
                      A                      A                      A
 Frequencies --    868.1700               890.2360               974.5259
 Red. masses --      1.2067                 3.2333                 1.1922
 Frc consts  --      0.5359                 1.5097                 0.6671
 IR Inten    --     41.4761                18.5191                39.4458

                     10                     11                     12
                      A                      A                      A
 Frequencies --   1007.5521              1043.7169              1067.4424
 Red. masses --      1.4218                 1.3910                 1.2813
 Frc consts  --      0.8504                 0.8928                 0.8602
 IR Inten    --      0.1029                 7.9344                 1.3848

                     13                     14                     15
                      A                      A                      A
 Frequencies --   1148.9101              1252.6451              1299.9764
 Red. masses --      1.1192                 1.8719                 5.8984
 Frc consts  --      0.8704                 1.7305                 5.8730
 IR Inten    --     46.0598                 7.0950                29.2427

                     16                     17                     18
                      A                      A                      A
 Frequencies --   1323.1335              1738.5967              2791.7398
 Red. masses --      3.4481                 6.2482                 1.0809
 Frc consts  --      3.5567                11.1277                 4.9636
 IR Inten    --     82.3353                25.1506               183.5706

                     19                     20                     21
                      A                      A                      A
 Frequencies --   2817.5807              3178.0826              3210.8598
 Red. masses --      1.0630                 1.1029                 1.1475
 Frc consts  --      4.9722                 6.5635                 6.9701
 IR Inten    --    201.1458               167.0284               114.9118

 - Thermochemistry -
 -------------------
 Temperature   298.150 Kelvin.  Pressure   1.00000 Atm.
 Atom     1 has atomic number  6 and mass  12.00000

 Molecular mass:    64.03130 amu.
 Principal axes and moments of inertia in atomic units:
                           1         2         3
     Eigenvalues --    96.69368 489.92772 575.84051
           X            0.99959  -0.02868   0.00006
           Y            0.02868   0.99959   0.00007
           Z           -0.00006  -0.00007   1.00000
 This molecule is an asymmetric top.
 Rotational symmetry number  1.
 Rotational temperatures (Kelvin)      0.89575     0.17679     0.15041
 Rotational constants (GHZ):          18.66452     3.68369     3.13410
 Zero-point vibrational energy     160539.0 (Joules/Mol)
                                   38.36974 (Kcal/Mol)
 Warning -- explicit consideration of   5 degrees of freedom as
           vibrations may cause significant error
 Vibrational temperatures:    119.39   338.10   353.19   580.17   733.58
          (Kelvin)           1079.51  1249.10  1280.85  1402.12  1449.64
                             1501.67  1535.81  1653.02  1802.27  1870.37
                             1903.69  2501.45  4016.69  4053.87  4572.55
                             4619.71

 Zero-point correction=                           0.061146 (Hartree/Particle)
 Thermal correction to Energy=                    0.066674
 Thermal correction to Enthalpy=                  0.067619
 Thermal correction to Gibbs Free Energy=         0.031777
 Sum of electronic and zero-point Energies=           -191.808701
 Sum of electronic and thermal Energies=              -191.803173
 Sum of electronic and thermal Enthalpies=            -191.802228
 Sum of electronic and thermal Free Energies=         -191.838070

                     E (Thermal)             CV                S
                      KCal/Mol        Cal/Mol-Kelvin    Cal/Mol-Kelvin
 Total                   41.839             18.113             75.435
 Electronic               0.000              0.000              2.183
 Translational            0.889              2.981             38.389
 Rotational               0.889              2.981             24.815
 Vibrational             40.061             12.152             10.047
 Vibration     1          0.600              1.961              3.819
 Vibration     2          0.655              1.787              1.841
 Vibration     3          0.660              1.770              1.763
 Vibration     4          0.769              1.463              0.951
 Vibration     5          0.865              1.228              0.634

 Normal termination of Gaussian 09 at Mon Jun 20 08:58:48 2016.
