 Gaussian 09, Revision E.01,
 Gaussian 09:  EM64L-G09RevE.01 30-Nov-2015

 ---------------------------------------------
 #p b3lyp/6-311++G(3df,2p) freq symmetry=Loose
 ---------------------------------------------

 ---------
 b3lyp opt
 ---------
 Symbolic Z-matrix:
 Charge =  0 Multiplicity = 1

                         Standard orientation:
 ---------------------------------------------------------------------
 Center     Atomic      Atomic             Coordinates (Angstroms)
 Number     Number       Type             X           Y           Z
 ---------------------------------------------------------------------
      1          6           0       -0.236605    1.066499    0.000091
      2          1           0       -0.128985    1.672584   -0.896726
      3          1           0       -0.128979    1.672432    0.897011
      4          6           0        0.697638   -0.231179   -0.000022
      5          6           0        1.980988   -0.087944   -0.000014
      6          6           0       -1.351866    0.039142    0.000008
      7          1           0       -2.424935    0.155951    0.000021
      8          6           0       -0.531895   -1.021398   -0.000085
      9          1           0       -0.666663   -2.091686   -0.000175
 ---------------------------------------------------------------------

 SCF Done:  E(RB3LYP) =  -192.792999037     A.U. after   13 cycles

 The electronic state is 1-A.
 Alpha  occ. eigenvalues --  -10.22534 -10.21714 -10.21594 -10.20979 -10.18953
 Alpha  occ. eigenvalues --   -0.90361  -0.74582  -0.69220  -0.59795  -0.54585
 Alpha  occ. eigenvalues --   -0.47342  -0.44824  -0.39560  -0.37584  -0.33057
 Alpha  occ. eigenvalues --   -0.28867  -0.25774
 Alpha virt. eigenvalues --   -0.10263  -0.04575  -0.00964   0.01295   0.01370
 Alpha virt. eigenvalues --    0.01615   0.05210   0.05458   0.05929   0.06501
 Alpha virt. eigenvalues --    0.07570   0.07842   0.10339   0.10390   0.10981

 Mulliken charges:
               1
     1  C   -0.645666
     2  H    0.171333
     3  H    0.171333
     4  C    0.587857
     5  C   -0.751647
     6  C   -0.001273
     7  H    0.242901
     8  C   -0.001011
     9  H    0.226173
 Sum of Mulliken charges =  -0.00000

 Dipole moment (field-independent basis, Debye):
    X=             -3.6357    Y=              0.1375    Z=              0.0000  Tot=              3.6383
 Quadrupole moment (field-independent basis, Debye-Ang):
   XX=            -36.7526   YY=            -25.6779   ZZ=            -31.6329
   XY=             -0.6395   XZ=             -0.0000   YZ=              0.0005

  Exact polarizability:  77.430  -2.597  55.215  -0.000   0.001  40.549
 Approx polarizability: 133.444 -12.327  86.371  -0.001   0.002  59.400

                      1                      2                      3
                      A                      A                      A
 Frequencies --    105.4315               207.6792               483.5111
 Red. masses --      6.4545                 3.6176                 1.9523
 Frc consts  --      0.0423                 0.0919                 0.2689
 IR Inten    --     10.8979                 1.1903                12.3465

                      4                      5                      6
                      A                      A                      A
 Frequencies --    696.5331               754.5209               791.1653
 Red. masses --      7.2606                 1.3017                 5.7640
 Frc consts  --      2.0754                 0.4366                 2.1257
 IR Inten    --     11.7402                38.2456                12.1873

                      7                      8                      9
                      A                      A                      A
 Frequencies --    928.7212               940.0468               974.5100
 Red. masses --      2.2474                 1.4017                 1.4981
 Frc consts  --      1.1421                 0.7298                 0.8382
 IR Inten    --      0.8423                 0.4944                 4.3285

                     10                     11                     12
                      A                      A                      A
 Frequencies --    982.1865              1083.0416              1120.6966
 Red. masses --      2.6495                 1.1527                 1.3974
 Frc consts  --      1.5059                 0.7966                 1.0341
 IR Inten    --      3.6581                 2.5318                 0.4818

                     13                     14                     15
                      A                      A                      A
 Frequencies --   1202.0953              1300.9553              1465.8421
 Red. masses --      1.3412                 1.6700                 1.1354
 Frc consts  --      1.1419                 1.6653                 1.4374
 IR Inten    --      0.3356                 9.3032                 3.9171

                     16                     17                     18
                      A                      A                      A
 Frequencies --   1596.3725              1794.2517              3072.5644
 Red. masses --      4.9716                11.0099                 1.0541
 Frc consts  --      7.4648                20.8833                 5.8633
 IR Inten    --     13.3580               101.5526                14.5500

                     19                     20                     21
                      A                      A                      A
 Frequencies --   3132.0345              3204.3121              3232.8259
 Red. masses --      1.1108                 1.0864                 1.1131
 Frc consts  --      6.4199                 6.5722                 6.8540
 IR Inten    --      4.5017                 0.6928                 4.0860

 - Thermochemistry -
 -------------------
 Temperature   298.150 Kelvin.  Pressure   1.00000 Atm.
 Atom     1 has atomic number  6 and mass  12.00000

 Molecular mass:    64.03130 amu.
 Principal axes and moments of inertia in atomic units:
                           1         2         3
     Eigenvalues --   137.76562 309.93752 436.12336
           X            0.99994   0.01053   0.00000
           Y           -0.01053   0.99994  -0.00008
           Z           -0.00000   0.00008   1.00000
 This molecule is an asymmetric top.
 Rotational symmetry number  1.
 Rotational temperatures (Kelvin)      0.62870     0.27946     0.19860
 Rotational constants (GHZ):          13.10008     5.82292     4.13814
 Zero-point vibrational energy     173873.0 (Joules/Mol)
                                   41.55665 (Kcal/Mol)
 Warning -- explicit consideration of   3 degrees of freedom as
           vibrations may cause significant error
 Vibrational temperatures:    151.69   298.80   695.66  1002.15  1085.59
          (Kelvin)           1138.31  1336.22  1352.52  1402.10  1413.15
                             1558.25  1612.43  1729.54  1871.78  2109.02
                             2296.82  2581.52  4420.73  4506.29  4610.28
                             4651.31

 Zero-point correction=                           0.066225 (Hartree/Particle)
 Thermal correction to Energy=                    0.071117
 Thermal correction to Enthalpy=                  0.072061
 Thermal correction to Gibbs Free Energy=         0.038623
 Sum of electronic and zero-point Energies=           -192.726774
 Sum of electronic and thermal Energies=              -192.721882
 Sum of electronic and thermal Enthalpies=            -192.720938
 Sum of electronic and thermal Free Energies=         -192.754377

                     E (Thermal)             CV                S
                      KCal/Mol        Cal/Mol-Kelvin    Cal/Mol-Kelvin
 Total                   44.627             16.037             70.378
 Electronic               0.000              0.000              0.000
 Translational            0.889              2.981             38.389
 Rotational               0.889              2.981             24.436
 Vibrational             42.849             10.076              7.553
 Vibration     1          0.605              1.945              3.351
 Vibration     2          0.641              1.829              2.064
 Vibration     3          0.840              1.287              0.701

 Optimization completed.
    -- Stationary point found.
 Normal termination of Gaussian 09 at Tue Jul 19 23:31:52 2016.
