 Gaussian 09, Revision E.01,
 Gaussian 09:  EM64L-G09RevE.01 30-Nov-2015

 ---------------------------------------------
 #p b3lyp/6-311++G(3df,2p) freq symmetry=Loose
 ---------------------------------------------

 ---------
 b3lyp opt
 ---------
 Symbolic Z-matrix:
 Charge =  0 Multiplicity = 3

                         Standard orientation:
 ---------------------------------------------------------------------
 Center     Atomic      Atomic             Coordinates (Angstroms)
 Number     Number       Type             X           Y           Z
 ---------------------------------------------------------------------
      1          6           0       -0.686563    0.000027    0.954682
      2          6           0        0.059000    1.001725    0.036362
      3          1           0        0.014452    2.078279    0.030585
      4          6           0        0.059000   -1.001722    0.036419
      5          1           0        0.014452   -2.078277    0.030705
      6          1           0        1.985442   -0.000021   -0.736438
      7          6           0        1.208902    0.000001    0.030603
      8          6           0       -0.698368   -0.000021   -0.741609
      9          1           0       -1.666172   -0.000035   -1.223599
 ---------------------------------------------------------------------

 SCF Done:  E(UB3LYP) =  -192.691281647     A.U. after   16 cycles

 The electronic state is 3-A.
 Alpha  occ. eigenvalues --  -10.22988 -10.22485 -10.22484 -10.21938 -10.21742
 Alpha  occ. eigenvalues --   -0.99288  -0.69847  -0.68430  -0.61195  -0.54705
 Alpha  occ. eigenvalues --   -0.50610  -0.44590  -0.41805  -0.38245  -0.34098
 Alpha  occ. eigenvalues --   -0.28843  -0.23596  -0.21091
 Alpha virt. eigenvalues --   -0.00532   0.00706   0.00930   0.01426   0.03210
 Alpha virt. eigenvalues --    0.04923   0.06271   0.06970   0.07594   0.07882
 Alpha virt. eigenvalues --    0.08371   0.09826   0.10345   0.10565   0.11112

  Beta  occ. eigenvalues --  -10.22409 -10.22376 -10.22360 -10.20941 -10.20154
  Beta  occ. eigenvalues --   -0.97548  -0.67881  -0.66536  -0.58866  -0.54464
  Beta  occ. eigenvalues --   -0.47452  -0.42412  -0.41021  -0.37167  -0.33058
  Beta  occ. eigenvalues --   -0.25235
  Beta virt. eigenvalues --   -0.11965  -0.06708  -0.00413   0.00735   0.01298
  Beta virt. eigenvalues --    0.02478   0.03991   0.05918   0.06932   0.06970
  Beta virt. eigenvalues --    0.07624   0.08151   0.08565   0.10371   0.10597

 Mulliken charges and spin densities:
               1          2
     1  C   -0.640867   0.713067
     2  C    0.583126  -0.160868
     3  H    0.257455  -0.009395
     4  C    0.583126  -0.160868
     5  H    0.257455  -0.009395
     6  H    0.160722   0.072968
     7  C   -0.749881   1.074127
     8  C   -0.631219   0.436855
     9  H    0.180082   0.043509
 Sum of Mulliken charges =  -0.00000   2.00000

 Dipole moment (field-independent basis, Debye):
    X=              0.1453    Y=             -0.0001    Z=             -2.4236  Tot=              2.4280
 Quadrupole moment (field-independent basis, Debye-Ang):
   XX=            -30.2687   YY=            -26.0405   ZZ=            -34.4313
   XY=              0.0001   XZ=              1.7480   YZ=             -0.0002

  Exact polarizability:  59.201  -0.000  49.477  -2.824   0.000  57.240
 Approx polarizability:  86.810  -0.000  74.657  -2.829   0.001 100.944

                      1                      2                      3
                      A                      A                      A
 Frequencies --    546.4584               566.9970               574.0604
 Red. masses --      3.5969                 4.3285                 7.6701
 Frc consts  --      0.6328                 0.8199                 1.4893
 IR Inten    --      6.3763                31.7941                 0.0411

                      4                      5                      6
                      A                      A                      A
 Frequencies --    652.4402               810.0429               823.2345
 Red. masses --      1.7123                 4.3413                 2.4035
 Frc consts  --      0.4294                 1.6784                 0.9597
 IR Inten    --     98.5430                 0.1227                 8.0414

                      7                      8                      9
                      A                      A                      A
 Frequencies --    844.2827               904.2857               940.8614
 Red. masses --      1.4774                 2.1403                 1.2056
 Frc consts  --      0.6205                 1.0312                 0.6288
 IR Inten    --      4.1240                 4.1147                 6.2809

                     10                     11                     12
                      A                      A                      A
 Frequencies --    943.6283               998.8479              1034.3096
 Red. masses --      2.7396                 1.3173                 1.2762
 Frc consts  --      1.4373                 0.7744                 0.8044
 IR Inten    --      1.3938                 0.6254                 3.1120

                     13                     14                     15
                      A                      A                      A
 Frequencies --   1094.3096              1145.5816              1219.1974
 Red. masses --      1.4392                 1.3634                 2.6995
 Frc consts  --      1.0154                 1.0542                 2.3642
 IR Inten    --     13.1828                 0.0964                 6.9637

                     16                     17                     18
                      A                      A                      A
 Frequencies --   1245.5685              1282.9050              3050.4281
 Red. masses --      2.6283                 2.7920                 1.0858
 Frc consts  --      2.4025                 2.7074                 5.9527
 IR Inten    --     12.3236                 6.3539                21.4265

                     19                     20                     21
                      A                      A                      A
 Frequencies --   3174.7952              3232.8427              3233.2154
 Red. masses --      1.0931                 1.1024                 1.0950
 Frc consts  --      6.4917                 6.7880                 6.7443
 IR Inten    --      4.0471                 0.0223                 6.2649

 - Thermochemistry -
 -------------------
 Temperature   298.150 Kelvin.  Pressure   1.00000 Atm.
 Atom     1 has atomic number  6 and mass  12.00000

 Molecular mass:    64.03130 amu.
 Principal axes and moments of inertia in atomic units:
                           1         2         3
     Eigenvalues --   186.94987 198.12606 245.35862
           X            0.99941  -0.00000   0.03443
           Y           -0.00000   1.00000   0.00003
           Z           -0.03443  -0.00003   0.99941
 This molecule is an asymmetric top.
 Rotational symmetry number  1.
 Rotational temperatures (Kelvin)      0.46330     0.43717     0.35301
 Rotational constants (GHZ):           9.65361     9.10905     7.35552
 Zero-point vibrational energy     169381.0 (Joules/Mol)
                                   40.48303 (Kcal/Mol)
 Warning -- explicit consideration of   3 degrees of freedom as
           vibrations may cause significant error
 Vibrational temperatures:    786.23   815.78   825.94   938.71  1165.47
          (Kelvin)           1184.45  1214.73  1301.06  1353.69  1357.67
                             1437.12  1488.14  1574.47  1648.23  1754.15
                             1792.09  1845.81  4388.88  4567.82  4651.33
                             4651.87

 Zero-point correction=                           0.064514 (Hartree/Particle)
 Thermal correction to Energy=                    0.068542
 Thermal correction to Enthalpy=                  0.069486
 Thermal correction to Gibbs Free Energy=         0.037391
 Sum of electronic and zero-point Energies=           -192.626768
 Sum of electronic and thermal Energies=              -192.622740
 Sum of electronic and thermal Enthalpies=            -192.621796
 Sum of electronic and thermal Free Energies=         -192.653891

                     E (Thermal)             CV                S
                      KCal/Mol        Cal/Mol-Kelvin    Cal/Mol-Kelvin
 Total                   43.011             15.208             67.550
 Electronic               0.000              0.000              2.183
 Translational            0.889              2.981             38.389
 Rotational               0.889              2.981             23.723
 Vibrational             41.233              9.247              3.254
 Vibration     1          0.902              1.147              0.552
 Vibration     2          0.923              1.103              0.510
 Vibration     3          0.930              1.087              0.496

 Optimization completed.
    -- Stationary point found.
 Normal termination of Gaussian 09 at Wed Jul 20 15:08:56 2016.
