 Gaussian 09, Revision E.01,
 Gaussian 09:  EM64L-G09RevE.01 30-Nov-2015

 ---------------------------------------------
 #p b3lyp/6-311++G(3df,2p) freq symmetry=Loose
 ---------------------------------------------

 ---------
 b3lyp opt
 ---------
 Symbolic Z-matrix:
 Charge =  0 Multiplicity = 1

                         Standard orientation:
 ---------------------------------------------------------------------
 Center     Atomic      Atomic             Coordinates (Angstroms)
 Number     Number       Type             X           Y           Z
 ---------------------------------------------------------------------
      1          6           0        1.069484   -0.000295    0.642279
      2          6           0        1.069484   -0.000295   -0.642279
      3          6           0       -0.145530    0.000050   -1.210747
      4          1           0       -0.455992    0.000143   -2.243356
      5          6           0       -1.105671    0.000299   -0.000000
      6          1           0       -1.770482    0.873953   -0.000000
      7          1           0       -1.770956   -0.872994   -0.000000
      8          6           0       -0.145530    0.000050    1.210747
      9          1           0       -0.455992    0.000143    2.243356
 ---------------------------------------------------------------------

 SCF Done:  E(RB3LYP) =  -192.778900127     A.U. after   11 cycles

 The electronic state is 1-A'.
 Alpha  occ. eigenvalues --  -10.20389 -10.20387 -10.20315 -10.19727 -10.19604
 Alpha  occ. eigenvalues --   -0.89001  -0.71939  -0.71587  -0.58484  -0.50082
 Alpha  occ. eigenvalues --   -0.49300  -0.45431  -0.40731  -0.39197  -0.34131
 Alpha  occ. eigenvalues --   -0.25973  -0.23615
 Alpha virt. eigenvalues --   -0.12775  -0.05256  -0.00771   0.01268   0.02246
 Alpha virt. eigenvalues --    0.02425   0.05384   0.05864   0.06538   0.07097
 Alpha virt. eigenvalues --    0.08034   0.09514   0.10416   0.10979   0.11762

 Mulliken charges:
               1
     1  C    0.176270
     2  C    0.176270
     3  C   -0.315111
     4  H    0.185591
     5  C   -0.347667
     6  H    0.127084
     7  H    0.127084
     8  C   -0.315111
     9  H    0.185591
 Sum of Mulliken charges =  -0.00000

 Dipole moment (field-independent basis, Debye):
    X=             -1.9876    Y=              0.0006    Z=             -0.0000  Tot=              1.9876
 Quadrupole moment (field-independent basis, Debye-Ang):
   XX=            -29.9126   YY=            -31.5905   ZZ=            -28.1363
   XY=             -0.0004   XZ=             -0.0000   YZ=             -0.0000

  Exact polarizability:  63.863  -0.006  41.364  -0.000   0.000  76.078
 Approx polarizability: 105.695  -0.013  59.582  -0.000  -0.000 160.800

                      1                      2                      3
                     A"                     A'                     A"
 Frequencies --    178.9760               250.0152               558.6299
 Red. masses --     10.1779                 1.6398                10.5330
 Frc consts  --      0.1921                 0.0604                 1.9367
 IR Inten    --    214.7181                 0.2484                 0.0000

                      4                      5                      6
                     A'                     A"                     A'
 Frequencies --    639.6167               732.7022               795.0195
 Red. masses --      1.2650                 1.1596                 5.1476
 Frc consts  --      0.3049                 0.3668                 1.9170
 IR Inten    --     32.0378                 0.0000                 0.5303

                      7                      8                      9
                     A'                     A'                     A"
 Frequencies --    853.2796               886.6170               904.6562
 Red. masses --      3.5583                 1.8819                 2.1697
 Frc consts  --      1.5264                 0.8716                 1.0462
 IR Inten    --      2.1299                26.8708                 5.6827

                     10                     11                     12
                     A"                     A'                     A"
 Frequencies --   1074.0507              1183.8110              1184.5697
 Red. masses --      1.0829                 1.4640                 1.5829
 Frc consts  --      0.7360                 1.2088                 1.3087
 IR Inten    --      0.0000                16.8667                34.8533

                     13                     14                     15
                     A"                     A'                     A'
 Frequencies --   1226.9237              1371.5146              1409.5717
 Red. masses --      1.2907                 2.6050                 1.3279
 Frc consts  --      1.1447                 2.8871                 1.5545
 IR Inten    --     12.9011                17.9092                 5.0666

                     16                     17                     18
                     A"                     A'                     A'
 Frequencies --   1510.4605              1770.6807              2993.8514
 Red. masses --      7.3965                10.6192                 1.0597
 Frc consts  --      9.9425                19.6166                 5.5963
 IR Inten    --     16.6733                 0.1049                12.3175

                     19                     20                     21
                     A'                     A"                     A'
 Frequencies --   3021.6400              3215.5321              3219.9944
 Red. masses --      1.0978                 1.0918                 1.0966
 Frc consts  --      5.9053                 6.6514                 6.6990
 IR Inten    --      2.9626                 7.3954                 4.7169

 - Thermochemistry -
 -------------------
 Temperature   298.150 Kelvin.  Pressure   1.00000 Atm.
 Atom     1 has atomic number  6 and mass  12.00000

 Molecular mass:    64.03130 amu.
 Principal axes and moments of inertia in atomic units:
                           1         2         3
     Eigenvalues --   180.70134 202.70880 372.42660
           X            0.00000   1.00000   0.00028
           Y           -0.00000  -0.00028   1.00000
           Z            1.00000  -0.00000  -0.00000
 This molecule is an asymmetric top.
 Rotational symmetry number  1.
 Rotational temperatures (Kelvin)      0.47932     0.42728     0.23257
 Rotational constants (GHZ):           9.98743     8.90312     4.84590
 Zero-point vibrational energy     173351.5 (Joules/Mol)
                                   41.43201 (Kcal/Mol)
 Warning -- explicit consideration of   3 degrees of freedom as
           vibrations may cause significant error
 Vibrational temperatures:    257.51   359.72   803.74   920.26  1054.19
          (Kelvin)           1143.85  1227.68  1275.64  1301.60  1545.32
                             1703.24  1704.33  1765.27  1973.30  2028.06
                             2173.21  2547.61  4307.48  4347.46  4626.43
                             4632.85

 Zero-point correction=                           0.066026 (Hartree/Particle)
 Thermal correction to Energy=                    0.070718
 Thermal correction to Enthalpy=                  0.071662
 Thermal correction to Gibbs Free Energy=         0.039030
 Sum of electronic and zero-point Energies=           -192.712874
 Sum of electronic and thermal Energies=              -192.708183
 Sum of electronic and thermal Enthalpies=            -192.707238
 Sum of electronic and thermal Free Energies=         -192.739870

                     E (Thermal)             CV                S
                      KCal/Mol        Cal/Mol-Kelvin    Cal/Mol-Kelvin
 Total                   44.376             15.910             68.679
 Electronic               0.000              0.000              0.000
 Translational            0.889              2.981             38.389
 Rotational               0.889              2.981             24.126
 Vibrational             42.598              9.949              6.163
 Vibration     1          0.629              1.868              2.339
 Vibration     2          0.663              1.763              1.730
 Vibration     3          0.914              1.121              0.527

 Optimization completed.
    -- Stationary point found.
 Normal termination of Gaussian 09 at Wed Jul 20 01:29:47 2016.
