 Gaussian 09, Revision E.01,
 Gaussian 09:  EM64L-G09RevE.01 30-Nov-2015

 ---------------------------------------------
 #p b3lyp/6-311++G(3df,2p) freq symmetry=Loose
 ---------------------------------------------

 ---------
 b3lyp opt
 ---------
 Symbolic Z-matrix:
 Charge =  0 Multiplicity = 1

                         Standard orientation:
 ---------------------------------------------------------------------
 Center     Atomic      Atomic             Coordinates (Angstroms)
 Number     Number       Type             X           Y           Z
 ---------------------------------------------------------------------
      1          6           0       -1.016963   -0.427400    0.224058
      2          1           0       -1.339918   -0.089046    1.251447
      3          1           0       -1.240121   -1.499732    0.176467
      4          6           0       -1.949485    0.544826   -0.325284
      5          1           0       -2.937074    0.050001   -0.314360
      6          6           0        0.423780   -0.146942    0.070164
      7          6           0        1.686709   -0.659646   -0.304137
      8          6           0        1.462517    0.671082    0.100873
      9          1           0        1.877765    1.647258    0.292413
 ---------------------------------------------------------------------

 SCF Done:  E(RB3LYP) =  -192.699311789     A.U. after   13 cycles

 The electronic state is 1-A.
 Alpha  occ. eigenvalues --  -10.23962 -10.23689 -10.23564 -10.22823 -10.19242
 Alpha  occ. eigenvalues --   -0.93534  -0.83319  -0.64669  -0.59238  -0.53284
 Alpha  occ. eigenvalues --   -0.49961  -0.45298  -0.43162  -0.37165  -0.33455
 Alpha  occ. eigenvalues --   -0.25311  -0.23909
 Alpha virt. eigenvalues --   -0.11476  -0.04795  -0.02195  -0.00897   0.00473
 Alpha virt. eigenvalues --    0.01396   0.02175   0.04980   0.05543   0.06203
 Alpha virt. eigenvalues --    0.07497   0.07968   0.09616   0.09978   0.10099

 Mulliken charges:
               1
     1  C   -0.248620
     2  H    0.195555
     3  H    0.158804
     4  C   -0.576995
     5  H    0.192865
     6  C    0.237354
     7  C   -0.600300
     8  C    0.382645
     9  H    0.258692
 Sum of Mulliken charges =  -0.00000

 Dipole moment (field-independent basis, Debye):
    X=             -2.4631    Y=              0.5104    Z=              2.1587  Tot=              3.3147
 Quadrupole moment (field-independent basis, Debye-Ang):
   XX=            -33.4283   YY=            -33.8232   ZZ=            -29.5645
   XY=             10.4597   XZ=              0.4689   YZ=              0.3495

  Exact polarizability:  73.542  -1.564  56.855  -0.455   0.137  44.285
 Approx polarizability:  96.883   0.818  83.429  -0.549   0.916  70.266

                      1                      2                      3
                      A                      A                      A
 Frequencies --     60.4958               211.9223               285.5607
 Red. masses --      3.1142                 4.4449                 1.7033
 Frc consts  --      0.0067                 0.1176                 0.0818
 IR Inten    --     39.6788                23.4485                 3.2998

                      4                      5                      6
                      A                      A                      A
 Frequencies --    407.0819               540.0804               679.1340
 Red. masses --      2.0769                 5.3271                 1.3054
 Frc consts  --      0.2028                 0.9155                 0.3547
 IR Inten    --     24.3594                 1.4172                28.7738

                      7                      8                      9
                      A                      A                      A
 Frequencies --    757.9605               892.0295               937.6017
 Red. masses --      2.3234                 1.2931                 1.3444
 Frc consts  --      0.7865                 0.6063                 0.6963
 IR Inten    --     12.5756                10.5816                21.0582

                     10                     11                     12
                      A                      A                      A
 Frequencies --    994.5978              1123.9336              1138.3411
 Red. masses --      1.6217                 1.3643                 4.2624
 Frc consts  --      0.9452                 1.0154                 3.2542
 IR Inten    --      4.5780                10.3578                10.1033

                     13                     14                     15
                      A                      A                      A
 Frequencies --   1151.6502              1290.9099              1313.4436
 Red. masses --      2.3981                 1.1957                 4.6453
 Frc consts  --      1.8739                 1.1740                 4.7216
 IR Inten    --      4.3289                37.0335                35.3839

                     16                     17                     18
                      A                      A                      A
 Frequencies --   1396.2741              1770.7833              2767.0406
 Red. masses --      1.6001                 7.9356                 1.0701
 Frc consts  --      1.8380                14.6608                 4.8273
 IR Inten    --     10.2848                 3.9476                42.8039

                     19                     20                     21
                      A                      A                      A
 Frequencies --   2948.9344              3001.0194              3234.3793
 Red. masses --      1.0821                 1.0848                 1.1136
 Frc consts  --      5.5444                 5.7561                 6.8636
 IR Inten    --     52.1118                38.0409                 0.1842

 - Thermochemistry -
 -------------------
 Temperature   298.150 Kelvin.  Pressure   1.00000 Atm.
 Atom     1 has atomic number  6 and mass  12.00000

 Molecular mass:    64.03130 amu.
 Principal axes and moments of inertia in atomic units:
                           1         2         3
     Eigenvalues --    94.16270 501.80365 560.78261
           X            0.99908   0.04282  -0.00366
           Y           -0.04280   0.99907   0.00440
           Z            0.00384  -0.00424   0.99998
 This molecule is an asymmetric top.
 Rotational symmetry number  1.
 Rotational temperatures (Kelvin)      0.91983     0.17260     0.15445
 Rotational constants (GHZ):          19.16620     3.59651     3.21825
 Zero-point vibrational energy     160916.7 (Joules/Mol)
                                   38.46002 (Kcal/Mol)
 Warning -- explicit consideration of   5 degrees of freedom as
           vibrations may cause significant error
 Vibrational temperatures:     87.04   304.91   410.86   585.70   777.05
          (Kelvin)            977.12  1090.53  1283.43  1349.00  1431.00
                             1617.09  1637.82  1656.97  1857.33  1889.75
                             2008.92  2547.76  3981.15  4242.85  4317.79
                             4653.54

 Zero-point correction=                           0.061290 (Hartree/Particle)
 Thermal correction to Energy=                    0.066864
 Thermal correction to Enthalpy=                  0.067808
 Thermal correction to Gibbs Free Energy=         0.032734
 Sum of electronic and zero-point Energies=           -192.638022
 Sum of electronic and thermal Energies=              -192.632448
 Sum of electronic and thermal Enthalpies=            -192.631504
 Sum of electronic and thermal Free Energies=         -192.666577

                     E (Thermal)             CV                S
                      KCal/Mol        Cal/Mol-Kelvin    Cal/Mol-Kelvin
 Total                   41.958             18.190             73.818
 Electronic               0.000              0.000              0.000
 Translational            0.889              2.981             38.389
 Rotational               0.889              2.981             24.786
 Vibrational             40.180             12.228             10.643
 Vibration     1          0.597              1.973              4.441
 Vibration     2          0.643              1.823              2.027
 Vibration     3          0.683              1.700              1.500
 Vibration     4          0.772              1.455              0.937
 Vibration     5          0.895              1.161              0.565

 Normal termination of Gaussian 09 at Wed Jun 22 03:25:35 2016.
