 Gaussian 09, Revision E.01,
 Gaussian 09:  EM64L-G09RevE.01 30-Nov-2015

 ---------------------------------------------
 #p b3lyp/6-311++G(3df,2p) freq symmetry=Loose
 ---------------------------------------------

 ---------
 b3lyp opt
 ---------
 Symbolic Z-matrix:
 Charge =  2 Multiplicity = 3

                         Standard orientation:
 ---------------------------------------------------------------------
 Center     Atomic      Atomic             Coordinates (Angstroms)
 Number     Number       Type             X           Y           Z
 ---------------------------------------------------------------------
      1          1           0       -0.000000    0.937653    2.383358
      2          1           0       -0.000000    2.126502   -0.644184
      3          6           0       -0.000000    0.000000    0.422706
      4          1           0       -0.000000   -2.126502   -0.644184
      5          6           0       -0.000000    1.035146   -0.619561
      6          6           0       -0.000000   -1.035146   -0.619561
      7          6           0        0.000000   -0.000000   -1.593032
      8          6           0       -0.000000    0.000000    1.829724
      9          1           0       -0.000000   -0.937653    2.383358
 ---------------------------------------------------------------------

 SCF Done:  E(UB3LYP) =  -191.929574745     A.U. after   13 cycles

 The electronic state is 3-B1.
 Alpha  occ. eigenvalues --  -10.75207 -10.75205 -10.74957 -10.73629 -10.69755
 Alpha  occ. eigenvalues --   -1.42928  -1.24188  -1.15953  -1.07428  -1.01131
 Alpha  occ. eigenvalues --   -0.94778  -0.93662  -0.89553  -0.89118  -0.84793
 Alpha  occ. eigenvalues --   -0.76490  -0.74888
 Alpha virt. eigenvalues --   -0.61120  -0.54389  -0.39722  -0.33392  -0.31613
 Alpha virt. eigenvalues --   -0.31529  -0.30521  -0.28179  -0.27330  -0.25778
 Alpha virt. eigenvalues --   -0.22802  -0.22206  -0.20648  -0.20424  -0.20225

  Beta  occ. eigenvalues --  -10.75127 -10.75125 -10.73093 -10.72658 -10.68988
  Beta  occ. eigenvalues --   -1.41152  -1.21018  -1.15440  -1.04210  -1.00870
  Beta  occ. eigenvalues --   -0.93700  -0.91242  -0.88253  -0.86403  -0.84360
  Beta virt. eigenvalues --   -0.63632  -0.61084  -0.57411  -0.48000  -0.36367
  Beta virt. eigenvalues --   -0.32785  -0.30912  -0.30873  -0.30339  -0.28030
  Beta virt. eigenvalues --   -0.26648  -0.25405  -0.22500  -0.21070  -0.20583

 Mulliken charges and spin densities:
               1          2
     1  H    0.286228  -0.011140
     2  H    0.366893   0.001720
     3  C    0.583362   0.332139
     4  H    0.366893   0.001720
     5  C    0.065081  -0.000899
     6  C    0.065081  -0.000899
     7  C    0.304949   1.267699
     8  C   -0.324716   0.420800
     9  H    0.286228  -0.011140
 Sum of Mulliken charges =   2.00000   2.00000

 Dipole moment (field-independent basis, Debye):
    X=             -0.0000    Y=             -0.0000    Z=              1.1199  Tot=              1.1199
 Quadrupole moment (field-independent basis, Debye-Ang):
   XX=            -24.2865   YY=             -8.7128   ZZ=             -4.1316
   XY=              0.0000   XZ=              0.0000   YZ=              0.0000

  Exact polarizability:  24.454   0.000  44.100  -0.000   0.000  64.412
 Approx polarizability:  37.735   0.000  73.875  -0.000   0.000 105.915

                      1                      2                      3
                     B1                     A2                     B2
 Frequencies --     89.7928               338.1254               353.2955
 Red. masses --      2.7071                 1.0340                 2.4963
 Frc consts  --      0.0129                 0.0696                 0.1836
 IR Inten    --      6.1474                 0.0000                 0.0890

                      4                      5                      6
                     B1                     A1                     B2
 Frequencies --    379.4041               705.2369               890.9420
 Red. masses --      2.7389                 4.4667                 1.8900
 Frc consts  --      0.2323                 1.3089                 0.8839
 IR Inten    --     23.1145                 9.0923                 7.5833

                      7                      8                      9
                     A1                     B1                     B1
 Frequencies --    912.5343               951.1076              1065.5693
 Red. masses --      2.7222                 1.9112                 1.4011
 Frc consts  --      1.3356                 1.0186                 0.9373
 IR Inten    --      0.7387                 2.9791                17.6871

                     10                     11                     12
                     A2                     B2                     A1
 Frequencies --   1070.2324              1120.8889              1124.0120
 Red. masses --      1.3387                 2.7881                 2.1895
 Frc consts  --      0.9034                 2.0639                 1.6298
 IR Inten    --      0.0000                 8.1809                21.6245

                     13                     14                     15
                     B2                     B2                     A1
 Frequencies --   1166.4281              1263.8615              1327.9175
 Red. masses --      1.4163                 4.7870                 3.0751
 Frc consts  --      1.1354                 4.5052                 3.1949
 IR Inten    --      9.6958               134.8197                92.1876

                     16                     17                     18
                     A1                     A1                     A1
 Frequencies --   1451.4627              1540.0618              3090.8571
 Red. masses --      1.2372                 4.6768                 1.0548
 Frc consts  --      1.5357                 6.5354                 5.9374
 IR Inten    --     13.7003                 0.3131               110.9640

                     19                     20                     21
                     A1                     B2                     B2
 Frequencies --   3143.0283              3143.4505              3204.6670
 Red. masses --      1.1089                 1.1036                 1.1256
 Frc consts  --      6.4540                 6.4248                 6.8110
 IR Inten    --      2.6645               210.7961                66.8328

 - Thermochemistry -
 -------------------
 Temperature   298.150 Kelvin.  Pressure   1.00000 Atm.
 Atom     1 has atomic number  1 and mass   1.00783

 Molecular mass:    64.03130 amu.
 Principal axes and moments of inertia in atomic units:
                           1         2         3
     Eigenvalues --   130.71385 335.98187 466.69572
           X            0.00000   0.00000   1.00000
           Y            0.00000   1.00000  -0.00000
           Z            1.00000  -0.00000  -0.00000
 This molecule is an asymmetric top.
 Rotational symmetry number  2.
 Rotational temperatures (Kelvin)      0.66262     0.25779     0.18559
 Rotational constants (GHZ):          13.80681     5.37154     3.86706
 Zero-point vibrational energy     169468.2 (Joules/Mol)
                                   40.50388 (Kcal/Mol)
 Warning -- explicit consideration of   4 degrees of freedom as
           vibrations may cause significant error
 Vibrational temperatures:    129.19   486.49   508.31   545.88  1014.68
          (Kelvin)           1281.87  1312.93  1368.43  1533.11  1539.82
                             1612.71  1617.20  1678.23  1818.41  1910.57
                             2088.33  2215.80  4447.05  4522.11  4522.72
                             4610.80

 Zero-point correction=                           0.064547 (Hartree/Particle)
 Thermal correction to Energy=                    0.069613
 Thermal correction to Enthalpy=                  0.070557
 Thermal correction to Gibbs Free Energy=         0.036405
 Sum of electronic and zero-point Energies=           -191.865028
 Sum of electronic and thermal Energies=              -191.859962
 Sum of electronic and thermal Enthalpies=            -191.859017
 Sum of electronic and thermal Free Energies=         -191.893170

                     E (Thermal)             CV                S
                      KCal/Mol        Cal/Mol-Kelvin    Cal/Mol-Kelvin
 Total                   43.683             16.672             71.880
 Electronic               0.000              0.000              2.183
 Translational            0.889              2.981             38.389
 Rotational               0.889              2.981             23.154
 Vibrational             41.905             10.711              8.154
 Vibration     1          0.602              1.956              3.665
 Vibration     2          0.718              1.599              1.221
 Vibration     3          0.729              1.568              1.151
 Vibration     4          0.749              1.514              1.042

 Optimization completed.
    -- Stationary point found.
 Normal termination of Gaussian 09 at Wed Jul 20 03:39:58 2016.
