 Gaussian 09, Revision E.01,
 Gaussian 09:  EM64L-G09RevE.01 30-Nov-2015

 ------------------------------------------------------
 #p b3lyp/6-311++G(3df,2p) freq IOp(2/17=3) IOp(2/18=3)
 ------------------------------------------------------

 ---------
 b3lyp opt
 ---------
 Symbolic Z-matrix:
 Charge =  0 Multiplicity = 3

                         Standard orientation:
 ---------------------------------------------------------------------
 Center     Atomic      Atomic             Coordinates (Angstroms)
 Number     Number       Type             X           Y           Z
 ---------------------------------------------------------------------
      1          1           0       -2.279858    1.080681    0.000000
      2          6           0        0.546849   -0.289511    0.000000
      3          6           0        1.715837   -0.862937    0.000000
      4          1           0        2.762699   -0.619510    0.000000
      5          6           0       -0.883780   -0.724065    0.000000
      6          1           0       -1.366552   -1.687461    0.000000
      7          6           0       -1.307343    0.613073    0.000000
      8          6           0       -0.000000    1.118512    0.000000
      9          1           0        0.454327    2.095857    0.000000
 ---------------------------------------------------------------------

 SCF Done:  E(UB3LYP) =  -192.788353825     A.U. after   16 cycles

 The electronic state is 3-A".
 Alpha  occ. eigenvalues --  -10.20213 -10.19974 -10.19867 -10.19547 -10.19310
 Alpha  occ. eigenvalues --   -0.89661  -0.74600  -0.66446  -0.60012  -0.53254
 Alpha  occ. eigenvalues --   -0.50903  -0.42459  -0.39645  -0.39091  -0.38232
 Alpha  occ. eigenvalues --   -0.25902  -0.24133  -0.20401
 Alpha virt. eigenvalues --   -0.03738  -0.00237   0.00937   0.01560   0.03090
 Alpha virt. eigenvalues --    0.04356   0.05579   0.06254   0.07467   0.07954
 Alpha virt. eigenvalues --    0.09441   0.09903   0.10921   0.11571   0.11599

  Beta  occ. eigenvalues --  -10.20153 -10.19926 -10.19047 -10.18903 -10.17745
  Beta  occ. eigenvalues --   -0.88367  -0.72595  -0.63555  -0.59120  -0.51991
  Beta  occ. eigenvalues --   -0.49774  -0.40971  -0.38333  -0.36954  -0.36905
  Beta  occ. eigenvalues --   -0.24649
  Beta virt. eigenvalues --   -0.08941  -0.08031  -0.02635  -0.00171   0.01011
  Beta virt. eigenvalues --    0.01843   0.03137   0.04552   0.06053   0.06428
  Beta virt. eigenvalues --    0.07950   0.08060   0.10272   0.10493   0.11093

 Mulliken charges and spin densities:
               1          2
     1  H    0.229427   0.007254
     2  C    0.114859  -0.293066
     3  C   -0.612759   0.989934
     4  H    0.210721   0.014482
     5  C   -0.068554   0.810513
     6  H    0.242924  -0.020897
     7  C   -0.270088  -0.349082
     8  C   -0.090931   0.863334
     9  H    0.244402  -0.022472
 Sum of Mulliken charges =  -0.00000   2.00000

 Dipole moment (field-independent basis, Debye):
    X=             -0.5525    Y=              0.8981    Z=              0.0000  Tot=              1.0544
 Quadrupole moment (field-independent basis, Debye-Ang):
   XX=            -25.4775   YY=            -28.4283   ZZ=            -32.9326
   XY=              1.1418   XZ=              0.0000   YZ=              0.0000

  Exact polarizability:  79.006  -8.989  63.562   0.000  -0.000  39.676
 Approx polarizability: 125.943 -17.398  98.439  -0.000  -0.000  57.013

                      1                      2                      3
                     A"                     A'                     A"
 Frequencies --    255.3595               340.2515               533.1141
 Red. masses --      3.2074                 2.3416                 1.2318
 Frc consts  --      0.1232                 0.1597                 0.2063
 IR Inten    --      4.6250                 5.8136                54.6249

                      4                      5                      6
                     A"                     A"                     A"
 Frequencies --    567.5412               644.5566               691.0348
 Red. masses --      1.2741                 1.3366                 3.4047
 Frc consts  --      0.2418                 0.3272                 0.9579
 IR Inten    --      5.9677                49.9126                13.2114

                      7                      8                      9
                     A'                     A'                     A'
 Frequencies --    707.7232               756.5396               885.9284
 Red. masses --      1.8702                 3.8403                 2.8124
 Frc consts  --      0.5519                 1.2950                 1.3005
 IR Inten    --     10.8262                11.0146                 5.4711

                     10                     11                     12
                     A"                     A'                     A'
 Frequencies --    899.2559               924.4592               975.8152
 Red. masses --      1.3479                 2.2953                 2.0776
 Frc consts  --      0.6422                 1.1557                 1.1656
 IR Inten    --      5.5020                 1.9766                10.1694

                     13                     14                     15
                     A'                     A'                     A'
 Frequencies --   1141.3880              1168.8111              1304.7568
 Red. masses --      2.0871                 1.4924                 1.8425
 Frc consts  --      1.6020                 1.2012                 1.8481
 IR Inten    --      2.0950                 2.1422                 3.8599

                     16                     17                     18
                     A'                     A'                     A'
 Frequencies --   1404.8393              1685.9427              3211.6462
 Red. masses --      3.4642                 8.2039                 1.0877
 Frc consts  --      4.0281                13.7391                 6.6104
 IR Inten    --      0.1617                 5.2566                 0.6035

                     19                     20                     21
                     A'                     A'                     A'
 Frequencies --   3231.6661              3245.6250              3273.4953
 Red. masses --      1.0923                 1.1109                 1.1047
 Frc consts  --      6.7209                 6.8947                 6.9743
 IR Inten    --      3.6492                 2.7209                 3.0458

 - Thermochemistry -
 -------------------
 Temperature   298.150 Kelvin.  Pressure   1.00000 Atm.
 Atom     1 has atomic number  1 and mass   1.00783

 Molecular mass:    64.03130 amu.
 Principal axes and moments of inertia in atomic units:
                           1         2         3
     Eigenvalues --   122.66080 335.94688 458.60769
           X            0.91010   0.41440   0.00000
           Y           -0.41440   0.91010   0.00000
           Z           -0.00000   0.00000   1.00000
 This molecule is an asymmetric top.
 Rotational symmetry number  1.
 Rotational temperatures (Kelvin)      0.70612     0.25782     0.18886
 Rotational constants (GHZ):          14.71327     5.37210     3.93526
 Zero-point vibrational energy     166578.5 (Joules/Mol)
                                   39.81322 (Kcal/Mol)
 Warning -- explicit consideration of   4 degrees of freedom as
           vibrations may cause significant error
 Vibrational temperatures:    367.40   489.55   767.03   816.56   927.37
          (Kelvin)            994.24  1018.25  1088.49  1274.65  1293.83
                             1330.09  1403.98  1642.20  1681.66  1877.25
                             2021.25  2425.69  4620.84  4649.64  4669.72
                             4709.82

 Zero-point correction=                           0.063446 (Hartree/Particle)
 Thermal correction to Energy=                    0.068226
 Thermal correction to Enthalpy=                  0.069170
 Thermal correction to Gibbs Free Energy=         0.035473
 Sum of electronic and zero-point Energies=           -192.724907
 Sum of electronic and thermal Energies=              -192.720128
 Sum of electronic and thermal Enthalpies=            -192.719184
 Sum of electronic and thermal Free Energies=         -192.752881

                     E (Thermal)             CV                S
                      KCal/Mol        Cal/Mol-Kelvin    Cal/Mol-Kelvin
 Total                   42.812             17.567             70.922
 Electronic               0.000              0.000              2.183
 Translational            0.889              2.981             38.389
 Rotational               0.889              2.981             24.450
 Vibrational             41.035             11.606              5.899
 Vibration     1          0.666              1.754              1.693
 Vibration     2          0.720              1.595              1.211
 Vibration     3          0.888              1.177              0.580
 Vibration     4          0.923              1.101              0.509

 Optimization completed.
    -- Stationary point found.
 Normal termination of Gaussian 09 at Thu Jan 31 06:58:15 2019.
