 Gaussian 09, Revision E.01,
 Gaussian 09:  EM64L-G09RevE.01 30-Nov-2015

 ---------------------------------------------
 #p b3lyp/6-311++G(3df,2p) freq symmetry=Loose
 ---------------------------------------------

 ---------
 b3lyp opt
 ---------
 Symbolic Z-matrix:
 Charge =  0 Multiplicity = 3

                         Standard orientation:
 ---------------------------------------------------------------------
 Center     Atomic      Atomic             Coordinates (Angstroms)
 Number     Number       Type             X           Y           Z
 ---------------------------------------------------------------------
      1          6           0       -1.142314   -0.000000    0.000145
      2          1           0       -1.744438    0.000167   -0.909230
      3          1           0       -1.742640   -0.000167    0.910552
      4          6           0        0.056373    1.003860   -0.000024
      5          6           0        0.056373   -1.003860   -0.000391
      6          1           0        0.108522   -2.080131   -0.001179
      7          6           0        0.787335   -0.000154    0.841498
      8          6           0        0.787239    0.000154   -0.841182
      9          1           0        0.108522    2.080131   -0.000417
 ---------------------------------------------------------------------

 SCF Done:  E(UB3LYP) =  -192.691827818     A.U. after   14 cycles

 The electronic state is 3-A.
 Alpha  occ. eigenvalues --  -10.23096 -10.23074 -10.23018 -10.23008 -10.22459
 Alpha  occ. eigenvalues --   -0.99936  -0.71658  -0.68924  -0.58995  -0.55158
 Alpha  occ. eigenvalues --   -0.50499  -0.42843  -0.42040  -0.38381  -0.35216
 Alpha  occ. eigenvalues --   -0.31141  -0.24538  -0.23459
 Alpha virt. eigenvalues --   -0.00692   0.00591   0.01281   0.01695   0.04080
 Alpha virt. eigenvalues --    0.04896   0.05699   0.06609   0.07075   0.07448
 Alpha virt. eigenvalues --    0.08246   0.09196   0.10440   0.11236   0.11346

  Beta  occ. eigenvalues --  -10.22777 -10.22777 -10.22135 -10.21700 -10.21689
  Beta  occ. eigenvalues --   -0.97900  -0.69919  -0.68113  -0.55887  -0.54839
  Beta  occ. eigenvalues --   -0.46872  -0.41079  -0.40901  -0.37663  -0.33626
  Beta  occ. eigenvalues --   -0.26092
  Beta virt. eigenvalues --   -0.11846  -0.11370  -0.00577   0.00647   0.01931
  Beta virt. eigenvalues --    0.02002   0.05259   0.05796   0.06658   0.07307
  Beta virt. eigenvalues --    0.07494   0.07563   0.08423   0.09533   0.10573

 Mulliken charges and spin densities:
               1          2
     1  C   -0.896831   0.100851
     2  H    0.163313   0.056916
     3  H    0.163548   0.056870
     4  C    0.758732   0.016899
     5  C    0.758731   0.016899
     6  H    0.264926  -0.004559
     7  C   -0.738556   0.880004
     8  C   -0.738789   0.880678
     9  H    0.264926  -0.004559
 Sum of Mulliken charges =  -0.00000   2.00000

 Dipole moment (field-independent basis, Debye):
    X=             -2.3418    Y=              0.0000    Z=             -0.0031  Tot=              2.3418
 Quadrupole moment (field-independent basis, Debye-Ang):
   XX=            -31.1459   YY=            -25.8681   ZZ=            -34.8464
   XY=              0.0000   XZ=             -0.0030   YZ=              0.0016

  Exact polarizability:  55.237  -0.000  49.303   0.002  -0.002  62.663
 Approx polarizability:  81.567  -0.000  74.719   0.003  -0.008 118.550

                      1                      2                      3
                      A                      A                      A
 Frequencies --    516.6925               634.4869               643.0213
 Red. masses --      2.6921                 7.4398                 9.9117
 Frc consts  --      0.4235                 1.7646                 2.4146
 IR Inten    --     14.9753                 0.0000                14.3019

                      4                      5                      6
                      A                      A                      A
 Frequencies --    703.8749               748.9121               851.1381
 Red. masses --      5.0226                 5.2726                 2.9373
 Frc consts  --      1.4661                 1.7424                 1.2537
 IR Inten    --    143.1434                 0.6248                 0.1074

                      7                      8                      9
                      A                      A                      A
 Frequencies --    885.3344               967.9901               980.9212
 Red. masses --      4.0475                 1.4144                 1.1165
 Frc consts  --      1.8692                 0.7809                 0.6330
 IR Inten    --      0.6238                 1.3354                 0.0001

                     10                     11                     12
                      A                      A                      A
 Frequencies --   1030.0168              1074.4361              1088.6082
 Red. masses --      1.3656                 1.1701                 1.2911
 Frc consts  --      0.8536                 0.7959                 0.9015
 IR Inten    --     13.6727                 0.0000                 0.1009

                     13                     14                     15
                      A                      A                      A
 Frequencies --   1093.7294              1187.9042              1224.9213
 Red. masses --      1.7521                 2.2843                 2.0806
 Frc consts  --      1.2349                 1.8992                 1.8393
 IR Inten    --      3.8472                 4.8213                11.2199

                     16                     17                     18
                      A                      A                      A
 Frequencies --   1246.0972              1448.9811              3022.0066
 Red. masses --      2.7461                 1.1201                 1.0498
 Frc consts  --      2.5123                 1.3855                 5.6489
 IR Inten    --      0.0094                 0.6749                21.2614

                     19                     20                     21
                      A                      A                      A
 Frequencies --   3097.6394              3231.2151              3232.6070
 Red. masses --      1.1114                 1.0996                 1.0943
 Frc consts  --      6.2833                 6.7644                 6.7373
 IR Inten    --     12.2418                 0.6591                 5.4844

 - Thermochemistry -
 -------------------
 Temperature   298.150 Kelvin.  Pressure   1.00000 Atm.
 Atom     1 has atomic number  6 and mass  12.00000

 Molecular mass:    64.03130 amu.
 Principal axes and moments of inertia in atomic units:
                           1         2         3
     Eigenvalues --   184.14010 197.31757 248.20527
           X            1.00000  -0.00000  -0.00005
           Y           -0.00000   1.00000  -0.00018
           Z            0.00005   0.00018   1.00000
 This molecule is an asymmetric top.
 Rotational symmetry number  1.
 Rotational temperatures (Kelvin)      0.47037     0.43896     0.34896
 Rotational constants (GHZ):           9.80091     9.14638     7.27116
 Zero-point vibrational energy     172923.4 (Joules/Mol)
                                   41.32968 (Kcal/Mol)
 Warning -- explicit consideration of   1 degrees of freedom as
           vibrations may cause significant error
 Vibrational temperatures:    743.40   912.88   925.16  1012.72  1077.52
          (Kelvin)           1224.60  1273.80  1392.72  1411.32  1481.96
                             1545.87  1566.26  1573.63  1709.13  1762.39
                             1792.85  2084.76  4347.99  4456.81  4648.99
                             4650.99

 Zero-point correction=                           0.065863 (Hartree/Particle)
 Thermal correction to Energy=                    0.069761
 Thermal correction to Enthalpy=                  0.070705
 Thermal correction to Gibbs Free Energy=         0.038790
 Sum of electronic and zero-point Energies=           -192.625965
 Sum of electronic and thermal Energies=              -192.622067
 Sum of electronic and thermal Enthalpies=            -192.621123
 Sum of electronic and thermal Free Energies=         -192.653038

                     E (Thermal)             CV                S
                      KCal/Mol        Cal/Mol-Kelvin    Cal/Mol-Kelvin
 Total                   43.776             14.431             67.171
 Electronic               0.000              0.000              2.183
 Translational            0.889              2.981             38.389
 Rotational               0.889              2.981             23.715
 Vibrational             41.998              8.470              2.883
 Vibration     1          0.872              1.213              0.618

 Optimization completed.
    -- Stationary point found.
 Normal termination of Gaussian 09 at Wed Jul 20 15:02:06 2016.
