 Gaussian 09, Revision E.01,
 Gaussian 09:  EM64L-G09RevE.01 30-Nov-2015

 ---------------------------------------------
 #p b3lyp/6-311++G(3df,2p) freq symmetry=Loose
 ---------------------------------------------

 ---------
 b3lyp opt
 ---------
 Symbolic Z-matrix:
 Charge =  1 Multiplicity = 4

                         Standard orientation:
 ---------------------------------------------------------------------
 Center     Atomic      Atomic             Coordinates (Angstroms)
 Number     Number       Type             X           Y           Z
 ---------------------------------------------------------------------
      1          6           0        1.216216   -0.327146    0.034486
      2          1           0        1.660639   -0.642039    0.999132
      3          1           0        2.018981   -0.537525   -0.690205
      4          6           0        0.675938    1.079612   -0.017978
      5          6           0       -0.675940    1.079612   -0.017891
      6          6           0       -0.000009   -1.111742   -0.136313
      7          6           0       -1.216212   -0.327146    0.034642
      8          1           0       -2.019070   -0.537525   -0.689947
      9          1           0       -1.660511   -0.642039    0.999344
 ---------------------------------------------------------------------

 SCF Done:  E(UB3LYP) =  -192.346572619     A.U. after   22 cycles

 The electronic state is 4-A.
 Alpha  occ. eigenvalues --  -10.53761 -10.46546 -10.46476 -10.45024 -10.45022
 Alpha  occ. eigenvalues --   -1.15085  -0.99217  -0.96999  -0.81117  -0.76063
 Alpha  occ. eigenvalues --   -0.72095  -0.70956  -0.66012  -0.65665  -0.57278
 Alpha  occ. eigenvalues --   -0.52859  -0.49889  -0.47534
 Alpha virt. eigenvalues --   -0.36897  -0.24617  -0.16871  -0.13285  -0.13068
 Alpha virt. eigenvalues --   -0.10920  -0.10284  -0.09843  -0.08734  -0.07049
 Alpha virt. eigenvalues --   -0.05978  -0.05648  -0.05376  -0.02591  -0.02081

  Beta  occ. eigenvalues --  -10.52412 -10.44759 -10.44756 -10.44594 -10.44531
  Beta  occ. eigenvalues --   -1.12300  -0.97911  -0.92514  -0.79568  -0.72188
  Beta  occ. eigenvalues --   -0.71006  -0.66853  -0.65559  -0.64584  -0.48630
  Beta virt. eigenvalues --   -0.40502  -0.35573  -0.33609  -0.30082  -0.19897
  Beta virt. eigenvalues --   -0.16655  -0.13026  -0.12859  -0.10101  -0.09840
  Beta virt. eigenvalues --   -0.09676  -0.08340  -0.06231  -0.05282  -0.04908

 Mulliken charges and spin densities:
               1          2
     1  C   -0.178513  -0.031450
     2  H    0.237586  -0.001763
     3  H    0.217090   0.024157
     4  C    0.136583   1.095683
     5  C    0.136583   1.095683
     6  C    0.174510   0.826746
     7  C   -0.178514  -0.031450
     8  H    0.217090   0.024157
     9  H    0.237586  -0.001763
 Sum of Mulliken charges =   1.00000   3.00000

 Dipole moment (field-independent basis, Debye):
    X=              0.0000    Y=             -2.1179    Z=              0.0377  Tot=              2.1183
 Quadrupole moment (field-independent basis, Debye-Ang):
   XX=            -15.6140   YY=            -26.6098   ZZ=            -24.5483
   XY=             -0.0001   XZ=             -0.0006   YZ=             -1.3935

  Exact polarizability:  59.080   0.000  68.212  -0.002   2.783  35.464
 Approx polarizability: 101.523   0.001 114.460  -0.003   8.261  56.422

                      1                      2                      3
                      A                      A                      A
 Frequencies --    231.4412               258.4917               571.1102
 Red. masses --      1.4261                 1.5662                 2.4394
 Frc consts  --      0.0450                 0.0617                 0.4688
 IR Inten    --     39.5160                 0.2601                 2.2763

                      4                      5                      6
                      A                      A                      A
 Frequencies --    617.1718               649.0579               752.0932
 Red. masses --      3.6793                 4.1222                 7.5450
 Frc consts  --      0.8257                 1.0232                 2.5145
 IR Inten    --     87.8880               195.5916                 9.6568

                      7                      8                      9
                      A                      A                      A
 Frequencies --    790.7590               906.6306               961.5531
 Red. masses --      3.3601                 2.5633                 7.3358
 Frc consts  --      1.2379                 1.2414                 3.9962
 IR Inten    --      9.9926                 1.1927                 1.1293

                     10                     11                     12
                      A                      A                      A
 Frequencies --    988.8278              1053.5239              1078.2357
 Red. masses --      1.3915                 1.1187                 3.2426
 Frc consts  --      0.8017                 0.7315                 2.2211
 IR Inten    --      9.5319                 6.5083                56.9204

                     13                     14                     15
                      A                      A                      A
 Frequencies --   1143.6399              1197.3298              1272.0214
 Red. masses --      1.4722                 1.8991                 1.1889
 Frc consts  --      1.1344                 1.6041                 1.1334
 IR Inten    --     23.1474                89.3603                 7.0383

                     16                     17                     18
                      A                      A                      A
 Frequencies --   1275.9649              1387.5222              2916.0230
 Red. masses --      1.1471                 3.9291                 1.0708
 Frc consts  --      1.1003                 4.4568                 5.3647
 IR Inten    --     91.5364               211.9833               107.9737

                     19                     20                     21
                      A                      A                      A
 Frequencies --   2926.7368              2976.3868              2984.5177
 Red. masses --      1.0770                 1.0770                 1.0805
 Frc consts  --      5.4355                 5.6216                 5.6706
 IR Inten    --     87.2264               133.9185                35.6313

 - Thermochemistry -
 -------------------
 Temperature   298.150 Kelvin.  Pressure   1.00000 Atm.
 Atom     1 has atomic number  6 and mass  12.00000

 Molecular mass:    64.03130 amu.
 Principal axes and moments of inertia in atomic units:
                           1         2         3
     Eigenvalues --   178.29377 226.61733 381.92249
           X            1.00000   0.00000   0.00006
           Y           -0.00000   0.99992  -0.01286
           Z           -0.00006   0.01286   0.99992
 This molecule is an asymmetric top.
 Rotational symmetry number  1.
 Rotational temperatures (Kelvin)      0.48579     0.38220     0.22678
 Rotational constants (GHZ):          10.12229     7.96383     4.72541
 Zero-point vibrational energy     161131.2 (Joules/Mol)
                                   38.51129 (Kcal/Mol)
 Warning -- explicit consideration of   4 degrees of freedom as
           vibrations may cause significant error
 Vibrational temperatures:    332.99   371.91   821.70   887.97   933.85
          (Kelvin)           1082.09  1137.72  1304.44  1383.46  1422.70
                             1515.78  1551.34  1645.44  1722.69  1830.15
                             1835.83  1996.33  4195.50  4210.92  4282.35
                             4294.05

 Zero-point correction=                           0.061372 (Hartree/Particle)
 Thermal correction to Energy=                    0.066090
 Thermal correction to Enthalpy=                  0.067034
 Thermal correction to Gibbs Free Energy=         0.033132
 Sum of electronic and zero-point Energies=           -192.285201
 Sum of electronic and thermal Energies=              -192.280482
 Sum of electronic and thermal Enthalpies=            -192.279538
 Sum of electronic and thermal Free Energies=         -192.313441

                     E (Thermal)             CV                S
                      KCal/Mol        Cal/Mol-Kelvin    Cal/Mol-Kelvin
 Total                   41.472             16.730             71.354
 Electronic               0.000              0.000              2.755
 Translational            0.889              2.981             38.389
 Rotational               0.889              2.981             24.249
 Vibrational             39.695             10.768              5.961
 Vibration     1          0.653              1.793              1.868
 Vibration     2          0.667              1.748              1.672
 Vibration     3          0.927              1.094              0.502
 Vibration     4          0.977              0.996              0.421

 Normal termination of Gaussian 09 at Thu Jul 21 00:37:33 2016.
