 Gaussian 09, Revision E.01,
 Gaussian 09:  EM64L-G09RevE.01 30-Nov-2015

 ------------------------------------------------------
 #p b3lyp/6-311++G(3df,2p) freq IOp(2/17=3) IOp(2/18=3)
 ------------------------------------------------------

 ---------
 b3lyp opt
 ---------
 Symbolic Z-matrix:
 Charge =  2 Multiplicity = 1

                         Standard orientation:
 ---------------------------------------------------------------------
 Center     Atomic      Atomic             Coordinates (Angstroms)
 Number     Number       Type             X           Y           Z
 ---------------------------------------------------------------------
      1          6           0        0.254681   -0.603154    0.000000
      2          6           0        0.112867    0.621042    0.797492
      3          1           0        1.296872   -1.079830    0.000000
      4          6           0       -0.459309   -1.850023    0.000000
      5          1           0       -0.656894   -2.367784   -0.947609
      6          1           0       -0.656894   -2.367784    0.947609
      7          6           0        0.112867    0.621042   -0.797492
      8          6           0       -0.000000    1.714361   -0.000000
      9          1           0       -0.111099    2.795925   -0.000000
 ---------------------------------------------------------------------

 SCF Done:  E(RB3LYP) =  -191.923691012     A.U. after   12 cycles

 The electronic state is 1-A'.
 Alpha  occ. eigenvalues --  -10.78276 -10.75237 -10.74306 -10.74291 -10.71468
 Alpha  occ. eigenvalues --   -1.47421  -1.29522  -1.15522  -1.03125  -1.02831
 Alpha  occ. eigenvalues --   -0.96443  -0.95364  -0.94194  -0.87418  -0.81853
 Alpha  occ. eigenvalues --   -0.75307
 Alpha virt. eigenvalues --   -0.61983  -0.53622  -0.50019  -0.47310  -0.33919
 Alpha virt. eigenvalues --   -0.32205  -0.30927  -0.29031  -0.27739  -0.27089
 Alpha virt. eigenvalues --   -0.25684  -0.24619  -0.23279  -0.21550  -0.20295

 Mulliken charges:
               1
     1  C    0.374208
     2  C    0.230275
     3  H    0.296795
     4  C   -0.267314
     5  H    0.322641
     6  H    0.322641
     7  C    0.230275
     8  C    0.121905
     9  H    0.368575
 Sum of Mulliken charges =   2.00000

 Dipole moment (field-independent basis, Debye):
    X=             -0.4782    Y=             -3.4037    Z=              0.0000  Tot=              3.4371
 Quadrupole moment (field-independent basis, Debye-Ang):
   XX=            -20.3655   YY=              9.5203   ZZ=            -22.8357
   XY=              2.8613   XZ=              0.0000   YZ=              0.0000

  Exact polarizability:  29.006   3.114  56.296  -0.000   0.000  38.721
 Approx polarizability:  47.658   4.548  83.095  -0.000  -0.000  91.728

                      1                      2                      3
                     A'                     A"                     A"
 Frequencies --    196.7851               364.6291               450.0922
 Red. masses --      3.3379                 2.9045                 1.0897
 Frc consts  --      0.0762                 0.2275                 0.1301
 IR Inten    --     24.4026                11.0227                 0.4432

                      4                      5                      6
                     A'                     A"                     A'
 Frequencies --    503.4584               646.0373               688.0080
 Red. masses --      3.6559                 4.1147                 5.5532
 Frc consts  --      0.5460                 1.0118                 1.5487
 IR Inten    --      5.9171                52.2154                24.7476

                      7                      8                      9
                     A'                     A'                     A"
 Frequencies --    848.9982               867.5877               902.4624
 Red. masses --      1.6545                 2.2219                 1.1378
 Frc consts  --      0.7026                 0.9854                 0.5460
 IR Inten    --     20.5507                59.7012                19.7241

                     10                     11                     12
                     A"                     A"                     A'
 Frequencies --   1032.4755              1054.7370              1086.3707
 Red. masses --      1.3366                 1.6064                 1.5170
 Frc consts  --      0.8395                 1.0529                 1.0549
 IR Inten    --      4.7148                 0.0611                 4.6710

                     13                     14                     15
                     A"                     A'                     A'
 Frequencies --   1187.9678              1217.5759              1428.8375
 Red. masses --      5.7204                 1.4545                 1.2292
 Frc consts  --      4.7565                 1.2704                 1.4785
 IR Inten    --      7.5662                 7.1248                18.4764

                     16                     17                     18
                     A'                     A'                     A'
 Frequencies --   1478.8757              1620.6792              2609.5470
 Red. masses --      3.6796                 6.8978                 1.0753
 Frc consts  --      4.7415                10.6747                 4.3145
 IR Inten    --      6.9899               116.3954               246.2491

                     19                     20                     21
                     A'                     A"                     A'
 Frequencies --   3017.0035              3132.4583              3198.1110
 Red. masses --      1.0529                 1.1263                 1.1295
 Frc consts  --      5.6465                 6.5111                 6.8063
 IR Inten    --    123.8446               114.9928               196.2539

 - Thermochemistry -
 -------------------
 Temperature   298.150 Kelvin.  Pressure   1.00000 Atm.
 Atom     1 has atomic number  6 and mass  12.00000

 Molecular mass:    64.03130 amu.
 Principal axes and moments of inertia in atomic units:
                           1         2         3
     Eigenvalues --    78.64419 415.55824 458.85742
           X            0.10809   0.00000   0.99414
           Y            0.99414   0.00000  -0.10809
           Z            0.00000   1.00000   0.00000
 This molecule is an asymmetric top.
 Rotational symmetry number  1.
 Rotational temperatures (Kelvin)      1.10134     0.20843     0.18876
 Rotational constants (GHZ):          22.94818     4.34293     3.93312
 Zero-point vibrational energy     164682.1 (Joules/Mol)
                                   39.35997 (Kcal/Mol)
 Warning -- explicit consideration of   4 degrees of freedom as
           vibrations may cause significant error
 Vibrational temperatures:    283.13   524.62   647.58   724.36   929.50
          (Kelvin)            989.89  1221.52  1248.26  1298.44  1485.50
                             1517.53  1563.04  1709.22  1751.82  2055.78
                             2127.77  2331.79  3754.55  4340.79  4506.90
                             4601.36

 Zero-point correction=                           0.062724 (Hartree/Particle)
 Thermal correction to Energy=                    0.067524
 Thermal correction to Enthalpy=                  0.068468
 Thermal correction to Gibbs Free Energy=         0.035766
 Sum of electronic and zero-point Energies=           -191.860967
 Sum of electronic and thermal Energies=              -191.856167
 Sum of electronic and thermal Enthalpies=            -191.855223
 Sum of electronic and thermal Free Energies=         -191.887925

                     E (Thermal)             CV                S
                      KCal/Mol        Cal/Mol-Kelvin    Cal/Mol-Kelvin
 Total                   42.372             16.947             68.826
 Electronic               0.000              0.000              0.000
 Translational            0.889              2.981             38.389
 Rotational               0.889              2.981             24.221
 Vibrational             40.594             10.986              6.217
 Vibration     1          0.636              1.844              2.163
 Vibration     2          0.738              1.545              1.102
 Vibration     3          0.809              1.361              0.795
 Vibration     4          0.859              1.242              0.650

 Optimization completed.
    -- Stationary point found.
 Normal termination of Gaussian 09 at Thu Jan 31 08:02:51 2019.
