 Gaussian 09, Revision E.01,
 Gaussian 09:  EM64L-G09RevE.01 30-Nov-2015

 ---------------------------------------------
 #p b3lyp/6-311++G(3df,2p) freq symmetry=Loose
 ---------------------------------------------

 ---------
 b3lyp opt
 ---------
 Symbolic Z-matrix:
 Charge =  3 Multiplicity = 4

                         Standard orientation:
 ---------------------------------------------------------------------
 Center     Atomic      Atomic             Coordinates (Angstroms)
 Number     Number       Type             X           Y           Z
 ---------------------------------------------------------------------
      1          6           0       -0.680080   -0.000036    0.236385
      2          1           0       -0.864910   -0.000212    1.396754
      3          6           0       -2.075274    0.000022   -0.145398
      4          1           0        2.560412   -0.000046    0.304729
      5          6           0        0.429664   -1.015199   -0.122705
      6          1           0        0.425894   -1.995435   -0.646542
      7          6           0        1.471479   -0.000013    0.085948
      8          6           0        0.429664    1.015236   -0.122397
      9          1           0        0.425894    1.995631   -0.645937
 ---------------------------------------------------------------------

 SCF Done:  E(UB3LYP) =  -190.970862260     A.U. after   15 cycles

 The electronic state is 4-A.
 Alpha  occ. eigenvalues --  -11.08803 -11.01439 -11.01439 -10.98745 -10.98740
 Alpha  occ. eigenvalues --   -1.65796  -1.50589  -1.37879  -1.32329  -1.24651
 Alpha  occ. eigenvalues --   -1.20436  -1.15563  -1.14489  -1.10949  -1.10848
 Alpha  occ. eigenvalues --   -1.03491  -0.98111
 Alpha virt. eigenvalues --   -0.84910  -0.82932  -0.75795  -0.56282  -0.55735
 Alpha virt. eigenvalues --   -0.54841  -0.49309  -0.48790  -0.48651  -0.46878
 Alpha virt. eigenvalues --   -0.43789  -0.43205  -0.41331  -0.41294  -0.38529

  Beta  occ. eigenvalues --  -11.04918 -11.00904 -11.00903 -10.98517 -10.98059
  Beta  occ. eigenvalues --   -1.63662  -1.46042  -1.36108  -1.28554  -1.23222
  Beta  occ. eigenvalues --   -1.17850  -1.13830  -1.12385  -1.09751
  Beta virt. eigenvalues --   -0.94294  -0.86799  -0.79741  -0.78962  -0.76928
  Beta virt. eigenvalues --   -0.70854  -0.55429  -0.53498  -0.52452  -0.48421
  Beta virt. eigenvalues --   -0.47960  -0.46910  -0.45983  -0.43481  -0.42057

 Mulliken charges and spin densities:
               1          2
     1  C    0.278566   0.022196
     2  H    0.365016   0.058813
     3  C    0.303053   1.827535
     4  H    0.420252   0.001363
     5  C    0.207911   0.318012
     6  H    0.388893  -0.002462
     7  C    0.439505   0.458992
     8  C    0.207911   0.318012
     9  H    0.388893  -0.002462
 Sum of Mulliken charges =   3.00000   3.00000

 Dipole moment (field-independent basis, Debye):
    X=             -0.7960    Y=             -0.0000    Z=              0.0801  Tot=              0.8000
 Quadrupole moment (field-independent basis, Debye-Ang):
   XX=             10.6993   YY=             -7.5615   ZZ=            -16.8394
   XY=              0.0000   XZ=             -0.1478   YZ=              0.0014

  Exact polarizability:  53.107   0.000  38.501   0.340   0.002  26.503
 Approx polarizability:  84.628  -0.000  63.250   2.365   0.003  42.638

                      1                      2                      3
                      A                      A                      A
 Frequencies --    214.9255               349.2348               358.6283
 Red. masses --      2.3565                 3.6278                 2.9082
 Frc consts  --      0.0641                 0.2607                 0.2204
 IR Inten    --      2.9097                 0.9119                19.2581

                      4                      5                      6
                      A                      A                      A
 Frequencies --    588.1850               621.7868               739.7127
 Red. masses --      2.2172                 1.1839                 2.7062
 Frc consts  --      0.4519                 0.2697                 0.8724
 IR Inten    --     14.8360                39.8766                 1.8378

                      7                      8                      9
                      A                      A                      A
 Frequencies --    801.0831               815.4875               901.0181
 Red. masses --      9.6056                 1.4398                 1.9958
 Frc consts  --      3.6319                 0.5641                 0.9546
 IR Inten    --     10.5985                12.2450                36.3919

                     10                     11                     12
                      A                      A                      A
 Frequencies --    933.6328               946.6466              1021.1779
 Red. masses --      1.6746                 1.3914                 1.8060
 Frc consts  --      0.8600                 0.7346                 1.1096
 IR Inten    --      0.0362                10.1944                10.3095

                     13                     14                     15
                      A                      A                      A
 Frequencies --   1066.6045              1116.4772              1164.6954
 Red. masses --      2.1232                 1.4609                 1.5699
 Frc consts  --      1.4231                 1.0730                 1.2547
 IR Inten    --     10.0725                25.8379                87.0749

                     16                     17                     18
                      A                      A                      A
 Frequencies --   1174.7604              1285.9643              2317.8289
 Red. masses --      3.8465                 2.3992                 1.0670
 Frc consts  --      3.1277                 2.3376                 3.3775
 IR Inten    --     47.9692                56.2519               440.1565

                     19                     20                     21
                      A                      A                      A
 Frequencies --   2929.0778              2936.5678              2957.8964
 Red. masses --      1.0991                 1.0987                 1.1119
 Frc consts  --      5.5560                 5.5824                 5.7317
 IR Inten    --    330.2346               522.4115               186.2317

 - Thermochemistry -
 -------------------
 Temperature   298.150 Kelvin.  Pressure   1.00000 Atm.
 Atom     1 has atomic number  6 and mass  12.00000

 Molecular mass:    64.03130 amu.
 Principal axes and moments of inertia in atomic units:
                           1         2         3
     Eigenvalues --   132.21917 355.47813 457.25386
           X            0.99995   0.00000  -0.01037
           Y           -0.00000   1.00000  -0.00015
           Z            0.01037   0.00015   0.99995
 This molecule is an asymmetric top.
 Rotational symmetry number  1.
 Rotational temperatures (Kelvin)      0.65508     0.24365     0.18942
 Rotational constants (GHZ):          13.64962     5.07694     3.94691
 Zero-point vibrational energy     150977.1 (Joules/Mol)
                                   36.08438 (Kcal/Mol)
 Warning -- explicit consideration of   4 degrees of freedom as
           vibrations may cause significant error
 Vibrational temperatures:    309.23   502.47   515.99   846.27   894.61
          (Kelvin)           1064.28  1152.58  1173.30  1296.36  1343.29
                             1362.01  1469.25  1534.60  1606.36  1675.73
                             1690.22  1850.21  3334.83  4214.28  4225.06
                             4255.75

 Zero-point correction=                           0.057504 (Hartree/Particle)
 Thermal correction to Energy=                    0.062435
 Thermal correction to Enthalpy=                  0.063379
 Thermal correction to Gibbs Free Energy=         0.029035
 Sum of electronic and zero-point Energies=           -190.913358
 Sum of electronic and thermal Energies=              -190.908427
 Sum of electronic and thermal Enthalpies=            -190.907483
 Sum of electronic and thermal Free Energies=         -190.941828

                     E (Thermal)             CV                S
                      KCal/Mol        Cal/Mol-Kelvin    Cal/Mol-Kelvin
 Total                   39.179             17.922             72.285
 Electronic               0.000              0.000              2.755
 Translational            0.889              2.981             38.389
 Rotational               0.889              2.981             24.578
 Vibrational             37.401             11.960              6.563
 Vibration     1          0.645              1.818              2.001
 Vibration     2          0.726              1.577              1.170
 Vibration     3          0.733              1.558              1.128
 Vibration     4          0.945              1.057              0.470

 Normal termination of Gaussian 09 at Wed Jul 20 17:41:12 2016.
