 Gaussian 09, Revision E.01,
 Gaussian 09:  EM64L-G09RevE.01 30-Nov-2015

 ---------------------------------------------
 #p b3lyp/6-311++G(3df,2p) freq symmetry=Loose
 ---------------------------------------------

 ---------
 b3lyp opt
 ---------
 Symbolic Z-matrix:
 Charge =  0 Multiplicity = 1

                         Standard orientation:
 ---------------------------------------------------------------------
 Center     Atomic      Atomic             Coordinates (Angstroms)
 Number     Number       Type             X           Y           Z
 ---------------------------------------------------------------------
      1          6           0       -1.057831   -0.000357    0.129298
      2          6           0        1.406952   -0.641453   -0.234547
      3          6           0        0.310968   -0.000579    0.588749
      4          1           0        0.406860   -0.001517    1.672179
      5          6           0        1.406564    0.642074   -0.233627
      6          1           0        1.801292    1.583389   -0.569077
      7          1           0        1.802163   -1.582098   -0.571377
      8          6           0       -2.200290    0.000251   -0.242691
      9          1           0       -3.208495    0.000608   -0.574818
 ---------------------------------------------------------------------

 SCF Done:  E(RB3LYP) =  -192.833387362     A.U. after   13 cycles

 The electronic state is 1-A.
 Alpha  occ. eigenvalues --  -10.21853 -10.20463 -10.20344 -10.16955 -10.15909
 Alpha  occ. eigenvalues --   -0.89976  -0.75231  -0.64664  -0.58441  -0.54198
 Alpha  occ. eigenvalues --   -0.51652  -0.47928  -0.38851  -0.35308  -0.28537
 Alpha  occ. eigenvalues --   -0.27690  -0.25754
 Alpha virt. eigenvalues --   -0.02340  -0.00203   0.00910   0.01100   0.01521
 Alpha virt. eigenvalues --    0.03008   0.03010   0.05336   0.06892   0.07350
 Alpha virt. eigenvalues --    0.07564   0.08810   0.09808   0.10899   0.11554

 Mulliken charges:
               1
     1  C   -0.606404
     2  C   -0.170134
     3  C   -0.248697
     4  H    0.161661
     5  C   -0.170349
     6  H    0.246500
     7  H    0.246511
     8  C    0.233637
     9  H    0.307276
 Sum of Mulliken charges =  -0.00000

 Dipole moment (field-independent basis, Debye):
    X=              1.2078    Y=              0.0005    Z=             -0.2542  Tot=              1.2342
 Quadrupole moment (field-independent basis, Debye-Ang):
   XX=            -25.8593   YY=            -28.0926   ZZ=            -30.0401
   XY=             -0.0020   XZ=              0.5457   YZ=              0.0007

  Exact polarizability:  76.723  -0.005  48.844   0.543   0.001  44.346
 Approx polarizability: 113.269  -0.021  79.073   5.159   0.005  64.710

                      1                      2                      3
                      A                      A                      A
 Frequencies --    206.2019               219.9900               530.0444
 Red. masses --      3.7409                 3.1171                 2.6089
 Frc consts  --      0.0937                 0.0889                 0.4318
 IR Inten    --      3.7175                 3.7063                16.4494

                      4                      5                      6
                      A                      A                      A
 Frequencies --    540.4556               636.0608               640.0125
 Red. masses --      4.2281                 1.5452                 1.2728
 Frc consts  --      0.7276                 0.3683                 0.3072
 IR Inten    --      0.7068                81.4088                49.4317

                      7                      8                      9
                      A                      A                      A
 Frequencies --    686.5556               806.7018               859.1847
 Red. masses --      1.2788                 3.1940                 1.5099
 Frc consts  --      0.3551                 1.2247                 0.6567
 IR Inten    --     42.3545                 5.2942                 0.4249

                     10                     11                     12
                      A                      A                      A
 Frequencies --    906.7613               959.5478              1011.0491
 Red. masses --      2.2765                 1.6169                 1.4197
 Frc consts  --      1.1028                 0.8772                 0.8551
 IR Inten    --      8.3801                 9.3301                40.3066

                     13                     14                     15
                      A                      A                      A
 Frequencies --   1052.3589              1152.1094              1369.4170
 Red. masses --      1.3223                 4.7420                 1.1962
 Frc consts  --      0.8628                 3.7085                 1.3216
 IR Inten    --      1.1291                 1.8819                 9.6169

                     16                     17                     18
                      A                      A                      A
 Frequencies --   1732.3013              2201.2109              3073.1366
 Red. masses --      5.1183                 6.0128                 1.0835
 Frc consts  --      9.0495                17.1653                 6.0290
 IR Inten    --     38.7906                12.5829                24.9773

                     19                     20                     21
                      A                      A                      A
 Frequencies --   3247.4629              3295.1022              3462.4538
 Red. masses --      1.0844                 1.1488                 1.1590
 Frc consts  --      6.7380                 7.3491                 8.1864
 IR Inten    --      1.4843                 0.4971                71.2235

 - Thermochemistry -
 -------------------
 Temperature   298.150 Kelvin.  Pressure   1.00000 Atm.
 Atom     1 has atomic number  6 and mass  12.00000

 Molecular mass:    64.03130 amu.
 Principal axes and moments of inertia in atomic units:
                           1         2         3
     Eigenvalues --    89.70800 526.52741 543.48015
           X            0.99999  -0.00001   0.00366
           Y            0.00001   1.00000   0.00000
           Z           -0.00366  -0.00000   0.99999
 This molecule is an asymmetric top.
 Rotational symmetry number  1.
 Rotational temperatures (Kelvin)      0.96551     0.16450     0.15937
 Rotational constants (GHZ):          20.11795     3.42763     3.32071
 Zero-point vibrational energy     170994.9 (Joules/Mol)
                                   40.86877 (Kcal/Mol)
 Warning -- explicit consideration of   4 degrees of freedom as
           vibrations may cause significant error
 Vibrational temperatures:    296.68   316.52   762.61   777.59   915.15
          (Kelvin)            920.83   987.80  1160.66  1236.17  1304.63
                             1380.57  1454.67  1514.11  1657.63  1970.28
                             2492.39  3167.05  4421.55  4672.37  4740.91
                             4981.69

 Zero-point correction=                           0.065129 (Hartree/Particle)
 Thermal correction to Energy=                    0.070171
 Thermal correction to Enthalpy=                  0.071115
 Thermal correction to Gibbs Free Energy=         0.037721
 Sum of electronic and zero-point Energies=           -192.768259
 Sum of electronic and thermal Energies=              -192.763217
 Sum of electronic and thermal Enthalpies=            -192.762272
 Sum of electronic and thermal Free Energies=         -192.795667

                     E (Thermal)             CV                S
                      KCal/Mol        Cal/Mol-Kelvin    Cal/Mol-Kelvin
 Total                   44.033             17.902             70.284
 Electronic               0.000              0.000              0.000
 Translational            0.889              2.981             38.389
 Rotational               0.889              2.981             24.755
 Vibrational             42.255             11.941              7.140
 Vibration     1          0.641              1.831              2.077
 Vibration     2          0.647              1.811              1.959
 Vibration     3          0.885              1.184              0.587
 Vibration     4          0.896              1.161              0.564

 Optimization completed.
    -- Stationary point found.
 Normal termination of Gaussian 09 at Wed Jun 22 01:15:40 2016.
