 Gaussian 09, Revision E.01,
 Gaussian 09:  EM64L-G09RevE.01 30-Nov-2015

 ---------------------------------------------
 #p b3lyp/6-311++G(3df,2p) freq symmetry=Loose
 ---------------------------------------------

 ---------
 b3lyp opt
 ---------
 Symbolic Z-matrix:
 Charge =  2 Multiplicity = 1

                         Standard orientation:
 ---------------------------------------------------------------------
 Center     Atomic      Atomic             Coordinates (Angstroms)
 Number     Number       Type             X           Y           Z
 ---------------------------------------------------------------------
      1          1           0       -2.799775    1.121272    0.000181
      2          6           0        0.254751   -0.399170    0.000007
      3          1           0        1.277249    1.572573   -0.000248
      4          1           0        0.417271   -1.495988    0.000078
      5          6           0        2.535250   -0.178299   -0.000230
      6          6           0       -1.080848   -0.088040    0.000111
      7          6           0        1.329517    0.477757   -0.000166
      8          6           0       -2.344652    0.111313    0.000217
      9          1           0       -3.058857   -0.739227    0.000353
 ---------------------------------------------------------------------

 SCF Done:  E(RB3LYP) =  -191.914610522     A.U. after   13 cycles

 The electronic state is 1-A.
 Alpha  occ. eigenvalues --  -10.75918 -10.74896 -10.73443 -10.69333 -10.65609
 Alpha  occ. eigenvalues --   -1.33376  -1.27242  -1.18756  -1.02110  -1.00574
 Alpha  occ. eigenvalues --   -0.96068  -0.92049  -0.88670  -0.84603  -0.75574
 Alpha  occ. eigenvalues --   -0.73830
 Alpha virt. eigenvalues --   -0.59459  -0.58706  -0.54895  -0.44756  -0.37419
 Alpha virt. eigenvalues --   -0.33768  -0.30934  -0.27900  -0.26455  -0.25095
 Alpha virt. eigenvalues --   -0.24988  -0.24435  -0.21831  -0.20037  -0.19740

 Mulliken charges:
               1
     1  H    0.323737
     2  C    0.150415
     3  H    0.264374
     4  H    0.264400
     5  C    0.018491
     6  C    0.600567
     7  C    0.196388
     8  C   -0.149789
     9  H    0.331417
 Sum of Mulliken charges =   2.00000

 Dipole moment (field-independent basis, Debye):
    X=             -3.9278    Y=              0.5560    Z=              0.0003  Tot=              3.9670
 Quadrupole moment (field-independent basis, Debye-Ang):
   XX=             14.7766   YY=            -15.8317   ZZ=            -26.3493
   XY=              1.7794   XZ=             -0.0041   YZ=             -0.0010

  Exact polarizability: 106.489  -0.599  36.986  -0.008  -0.001  27.676
 Approx polarizability: 223.862  -0.847  58.820  -0.018  -0.001  40.656

                      1                      2                      3
                      A                      A                      A
 Frequencies --    136.5982               149.0879               211.4204
 Red. masses --      4.8596                 5.4405                 3.5857
 Frc consts  --      0.0534                 0.0712                 0.0944
 IR Inten    --      1.4810                 0.5470                12.1798

                      4                      5                      6
                      A                      A                      A
 Frequencies --    347.1976               401.7984               404.0887
 Red. masses --      3.2542                 1.1712                 1.7331
 Frc consts  --      0.2311                 0.1114                 0.1667
 IR Inten    --     12.4765                 1.2379                 9.0272

                      7                      8                      9
                      A                      A                      A
 Frequencies --    756.7897               819.0527               892.4160
 Red. masses --      2.6759                 1.9437                 1.1397
 Frc consts  --      0.9030                 0.7683                 0.5348
 IR Inten    --      1.5090                10.0484                63.5907

                     10                     11                     12
                      A                      A                      A
 Frequencies --    917.9798               944.0311              1062.0146
 Red. masses --      1.3402                 3.2687                 1.3153
 Frc consts  --      0.6654                 1.7163                 0.8740
 IR Inten    --     44.6026                 5.9325                17.4401

                     13                     14                     15
                      A                      A                      A
 Frequencies --   1217.1528              1231.4958              1346.6564
 Red. masses --      1.2171                 1.2855                 4.6232
 Frc consts  --      1.0623                 1.1487                 4.9398
 IR Inten    --    105.7431               117.6079               118.3968

                     16                     17                     18
                      A                      A                      A
 Frequencies --   1527.1786              1752.5956              2897.0065
 Red. masses --      5.3881                 9.6700                 1.0633
 Frc consts  --      7.4040                17.5001                 5.2578
 IR Inten    --    545.9590                52.4954               608.9885

                     19                     20                     21
                      A                      A                      A
 Frequencies --   2934.2073              2957.1314              3055.3370
 Red. masses --      1.0835                 1.1041                 1.0900
 Frc consts  --      5.4963                 5.6885                 5.9952
 IR Inten    --    173.2134               263.7949               139.9257

 - Thermochemistry -
 -------------------
 Temperature   298.150 Kelvin.  Pressure   1.00000 Atm.
 Atom     1 has atomic number  1 and mass   1.00783

 Molecular mass:    64.03130 amu.
 Principal axes and moments of inertia in atomic units:
                           1         2         3
     Eigenvalues --    42.26522 707.04123 749.30645
           X            1.00000   0.00254   0.00010
           Y           -0.00254   1.00000   0.00008
           Z           -0.00010  -0.00008   1.00000
 This molecule is an asymmetric top.
 Rotational symmetry number  1.
 Rotational temperatures (Kelvin)      2.04929     0.12250     0.11559
 Rotational constants (GHZ):          42.70039     2.55253     2.40855
 Zero-point vibrational energy     155282.7 (Joules/Mol)
                                   37.11345 (Kcal/Mol)
 Warning -- explicit consideration of   6 degrees of freedom as
           vibrations may cause significant error
 Vibrational temperatures:    196.53   214.50   304.19   499.54   578.10
          (Kelvin)            581.39  1088.85  1178.43  1283.99  1320.77
                             1358.25  1528.00  1751.21  1771.85  1937.54
                             2197.27  2521.59  4168.14  4221.66  4254.65
                             4395.94

 Zero-point correction=                           0.059144 (Hartree/Particle)
 Thermal correction to Energy=                    0.065200
 Thermal correction to Enthalpy=                  0.066144
 Thermal correction to Gibbs Free Energy=         0.030666
 Sum of electronic and zero-point Energies=           -191.855466
 Sum of electronic and thermal Energies=              -191.849410
 Sum of electronic and thermal Enthalpies=            -191.848466
 Sum of electronic and thermal Free Energies=         -191.883944

                     E (Thermal)             CV                S
                      KCal/Mol        Cal/Mol-Kelvin    Cal/Mol-Kelvin
 Total                   40.914             19.807             74.670
 Electronic               0.000              0.000              0.000
 Translational            0.889              2.981             38.389
 Rotational               0.889              2.981             24.619
 Vibrational             39.136             13.845             11.662
 Vibration     1          0.614              1.917              2.851
 Vibration     2          0.618              1.904              2.684
 Vibration     3          0.643              1.823              2.031
 Vibration     4          0.725              1.581              1.179
 Vibration     5          0.767              1.466              0.956
 Vibration     6          0.769              1.461              0.948

 Normal termination of Gaussian 09 at Wed Jul 20 00:34:39 2016.
