 Gaussian 09, Revision E.01,
 Gaussian 09:  EM64L-G09RevE.01 30-Nov-2015

 ---------------------------------------------
 #p b3lyp/6-311++G(3df,2p) freq symmetry=Loose
 ---------------------------------------------

 ---------
 b3lyp opt
 ---------
 Symbolic Z-matrix:
 Charge =  0 Multiplicity = 3

                         Standard orientation:
 ---------------------------------------------------------------------
 Center     Atomic      Atomic             Coordinates (Angstroms)
 Number     Number       Type             X           Y           Z
 ---------------------------------------------------------------------
      1          6           0        1.549928   -0.657889   -0.107274
      2          6           0        1.528697    0.614478   -0.115349
      3          6           0        0.258403   -0.181413    0.462766
      4          1           0        1.828999    1.634053   -0.250874
      5          1           0        0.111931   -0.173342    1.539608
      6          6           0       -1.029276   -0.200175   -0.336058
      7          1           0       -1.584393   -1.174313   -0.134940
      8          1           0       -0.851946   -0.193644   -1.420979
      9          6           0       -2.225184    0.409539    0.140447
 ---------------------------------------------------------------------

 SCF Done:  E(UB3LYP) =  -192.635166251     A.U. after   20 cycles

 The electronic state is 3-A.
 Alpha  occ. eigenvalues --  -10.24871 -10.23645 -10.22261 -10.22054 -10.21289
 Alpha  occ. eigenvalues --   -0.91362  -0.81810  -0.64478  -0.58348  -0.56056
 Alpha  occ. eigenvalues --   -0.47994  -0.45347  -0.42183  -0.40052  -0.31433
 Alpha  occ. eigenvalues --   -0.29370  -0.25753  -0.21902
 Alpha virt. eigenvalues --   -0.08967  -0.02559  -0.00509   0.00472   0.00986
 Alpha virt. eigenvalues --    0.02854   0.03236   0.05429   0.06886   0.07469
 Alpha virt. eigenvalues --    0.08001   0.08933   0.09308   0.09651   0.10564

  Beta  occ. eigenvalues --  -10.24169 -10.22218 -10.21972 -10.21419 -10.21116
  Beta  occ. eigenvalues --   -0.90103  -0.80438  -0.62631  -0.57270  -0.54371
  Beta  occ. eigenvalues --   -0.46660  -0.43913  -0.40145  -0.36394  -0.29905
  Beta  occ. eigenvalues --   -0.27824
  Beta virt. eigenvalues --   -0.13850  -0.07390  -0.06929  -0.01565  -0.00325
  Beta virt. eigenvalues --    0.00543   0.01129   0.03120   0.03550   0.05794
  Beta virt. eigenvalues --    0.07115   0.07767   0.08459   0.09318   0.09650

 Mulliken charges and spin densities:
               1          2
     1  C   -0.406769   0.685407
     2  C    0.018447   0.027576
     3  C    0.238638   0.331655
     4  H    0.270789   0.004401
     5  H    0.195057  -0.009418
     6  C    0.075534  -0.086979
     7  H    0.161729   0.012298
     8  H    0.177576   0.057869
     9  C   -0.731001   0.977191
 Sum of Mulliken charges =  -0.00000   2.00000

 Dipole moment (field-independent basis, Debye):
    X=              1.6217    Y=              0.2580    Z=             -0.5212  Tot=              1.7229
 Quadrupole moment (field-independent basis, Debye-Ang):
   XX=            -40.5022   YY=            -28.8228   ZZ=            -30.6542
   XY=              6.9813   XZ=              1.8457   YZ=             -0.9899

  Exact polarizability:  78.287  -3.164  54.124  -4.018   1.245  49.995
 Approx polarizability: 100.658  -5.920  95.140  -8.736   1.948  70.300

                      1                      2                      3
                      A                      A                      A
 Frequencies --     95.9685               263.4004               332.8850
 Red. masses --      3.9270                 2.7219                 3.0540
 Frc consts  --      0.0213                 0.1113                 0.1994
 IR Inten    --     22.4638                42.8517                 5.8313

                      4                      5                      6
                      A                      A                      A
 Frequencies --    366.5703               472.7203               622.3149
 Red. masses --      1.5822                 6.5907                 3.9907
 Frc consts  --      0.1253                 0.8677                 0.9106
 IR Inten    --      9.6418                 4.6886                 5.2570

                      7                      8                      9
                      A                      A                      A
 Frequencies --    656.3526               845.6537               885.7303
 Red. masses --      1.4074                 1.1987                 1.2992
 Frc consts  --      0.3572                 0.5051                 0.6005
 IR Inten    --     54.3522                26.4815                44.5070

                     10                     11                     12
                      A                      A                      A
 Frequencies --    954.4935               995.1272              1059.3356
 Red. masses --      3.6239                 1.5786                 4.6101
 Frc consts  --      1.9453                 0.9211                 3.0481
 IR Inten    --      2.1264                10.8158                43.6702

                     13                     14                     15
                      A                      A                      A
 Frequencies --   1126.6347              1268.7998              1278.7357
 Red. masses --      1.5110                 2.2361                 1.1271
 Frc consts  --      1.1300                 2.1209                 1.0858
 IR Inten    --      6.1260                16.8809                27.8766

                     16                     17                     18
                      A                      A                      A
 Frequencies --   1369.3682              1760.6288              2685.5973
 Red. masses --      1.2723                 6.6546                 1.0690
 Frc consts  --      1.4056                12.1536                 4.5428
 IR Inten    --     20.6485                24.5105                47.3704

                     19                     20                     21
                      A                      A                      A
 Frequencies --   2962.9133              3098.7705              3320.2128
 Red. masses --      1.0804                 1.0855                 1.1229
 Frc consts  --      5.5880                 6.1414                 7.2932
 IR Inten    --     10.1432                12.8394                22.4387

 - Thermochemistry -
 -------------------
 Temperature   298.150 Kelvin.  Pressure   1.00000 Atm.
 Atom     1 has atomic number  6 and mass  12.00000

 Molecular mass:    64.03130 amu.
 Principal axes and moments of inertia in atomic units:
                           1         2         3
     Eigenvalues --    91.10199 519.97357 547.16098
           X            0.99911   0.04153   0.00786
           Y           -0.04131   0.99881  -0.02594
           Z           -0.00893   0.02559   0.99963
 This molecule is an asymmetric top.
 Rotational symmetry number  1.
 Rotational temperatures (Kelvin)      0.95073     0.16657     0.15830
 Rotational constants (GHZ):          19.81012     3.47083     3.29837
 Zero-point vibrational energy     158039.9 (Joules/Mol)
                                   37.77245 (Kcal/Mol)
 Warning -- explicit consideration of   5 degrees of freedom as
           vibrations may cause significant error
 Vibrational temperatures:    138.08   378.97   478.95   527.41   680.14
          (Kelvin)            895.37   944.34  1216.71  1274.37  1373.30
                             1431.76  1524.15  1620.97  1825.52  1839.81
                             1970.21  2533.15  3863.97  4262.97  4458.43
                             4777.04

 Zero-point correction=                           0.060194 (Hartree/Particle)
 Thermal correction to Energy=                    0.065777
 Thermal correction to Enthalpy=                  0.066721
 Thermal correction to Gibbs Free Energy=         0.031039
 Sum of electronic and zero-point Energies=           -192.574972
 Sum of electronic and thermal Energies=              -192.569389
 Sum of electronic and thermal Enthalpies=            -192.568445
 Sum of electronic and thermal Free Energies=         -192.604127

                     E (Thermal)             CV                S
                      KCal/Mol        Cal/Mol-Kelvin    Cal/Mol-Kelvin
 Total                   41.276             18.971             75.099
 Electronic               0.000              0.000              2.183
 Translational            0.889              2.981             38.389
 Rotational               0.889              2.981             24.764
 Vibrational             39.498             13.009              9.762
 Vibration     1          0.603              1.952              3.535
 Vibration     2          0.670              1.740              1.639
 Vibration     3          0.715              1.610              1.246
 Vibration     4          0.739              1.541              1.094
 Vibration     5          0.830              1.311              0.730

 Optimization completed.
    -- Stationary point found.
 Normal termination of Gaussian 09 at Wed Jun 22 04:19:09 2016.
