 Gaussian 09, Revision E.01,
 Gaussian 09:  EM64L-G09RevE.01 30-Nov-2015

 ---------------------------------------------
 #p b3lyp/6-311++G(3df,2p) freq symmetry=Loose
 ---------------------------------------------

 ---------
 b3lyp opt
 ---------
 Symbolic Z-matrix:
 Charge =  3 Multiplicity = 4

                         Standard orientation:
 ---------------------------------------------------------------------
 Center     Atomic      Atomic             Coordinates (Angstroms)
 Number     Number       Type             X           Y           Z
 ---------------------------------------------------------------------
      1          6           0       -0.000000    0.183953   -0.000000
      2          6           0       -1.119379   -0.464357   -0.000000
      3          6           0        1.134291    0.976452    0.000000
      4          1           0        0.972984    2.089553   -0.000000
      5          6           0        2.481663    0.438100    0.000000
      6          1           0        3.523440    0.828775    0.000000
      7          6           0       -2.305267   -1.142262   -0.000000
      8          1           0       -2.350233   -2.267208   -0.000000
      9          1           0       -3.294043   -0.602437   -0.000000
 ---------------------------------------------------------------------

 SCF Done:  E(UB3LYP) =  -191.116953034     A.U. after   16 cycles

 The electronic state is 4-A".
 Alpha  occ. eigenvalues --  -10.99843 -10.98679 -10.96681 -10.95548 -10.94966
 Alpha  occ. eigenvalues --   -1.55695  -1.49580  -1.41774  -1.32052  -1.18294
 Alpha  occ. eigenvalues --   -1.16936  -1.14194  -1.12190  -1.07719  -1.00849
 Alpha  occ. eigenvalues --   -0.98841  -0.93067
 Alpha virt. eigenvalues --   -0.82896  -0.71809  -0.71799  -0.58392  -0.53380
 Alpha virt. eigenvalues --   -0.50227  -0.45543  -0.44319  -0.42569  -0.41112
 Alpha virt. eigenvalues --   -0.39800  -0.39725  -0.38404  -0.36624  -0.36257

  Beta  occ. eigenvalues --  -10.99237 -10.97675 -10.95203 -10.94541 -10.94210
  Beta  occ. eigenvalues --   -1.52178  -1.46199  -1.38972  -1.28372  -1.16508
  Beta  occ. eigenvalues --   -1.13726  -1.11538  -1.09840  -1.04368
  Beta virt. eigenvalues --   -0.88845  -0.88526  -0.78832  -0.73409  -0.66545
  Beta virt. eigenvalues --   -0.66139  -0.54833  -0.50298  -0.49429  -0.44341
  Beta virt. eigenvalues --   -0.42962  -0.40966  -0.40319  -0.39448  -0.38913

 Mulliken charges and spin densities:
               1          2
     1  C    0.570553   0.300399
     2  C    0.845865   0.576754
     3  C    0.111522   0.607509
     4  H    0.324444   0.058968
     5  C    0.136561   1.181668
     6  H    0.392514   0.018265
     7  C   -0.127744   0.182960
     8  H    0.373155   0.037066
     9  H    0.373129   0.036411
 Sum of Mulliken charges =   3.00000   3.00000

 Dipole moment (field-independent basis, Debye):
    X=             -0.8128    Y=             -0.4121    Z=              0.0000  Tot=              0.9113
 Quadrupole moment (field-independent basis, Debye-Ang):
   XX=             48.9793   YY=             -3.0523   ZZ=            -22.5573
   XY=             27.4916   XZ=              0.0000   YZ=              0.0000

  Exact polarizability: 103.354  30.864  45.361  -0.000   0.000  23.368
 Approx polarizability: 177.628  60.731  74.956   0.000   0.000  33.256

                      1                      2                      3
                     A'                     A"                     A'
 Frequencies --    150.6439               187.6108               327.0800
 Red. masses --      3.4711                 2.6053                 3.0757
 Frc consts  --      0.0464                 0.0540                 0.1939
 IR Inten    --     16.5276                41.0733                 3.8300

                      4                      5                      6
                     A"                     A"                     A'
 Frequencies --    347.1552               443.5673               511.6448
 Red. masses --      1.7197                 1.5447                 4.4688
 Frc consts  --      0.1221                 0.1791                 0.6892
 IR Inten    --      2.5060                 7.9373                 5.3039

                      7                      8                      9
                     A"                     A'                     A'
 Frequencies --    569.3944               693.2962               828.1475
 Red. masses --      1.9153                 1.8986                 1.7488
 Frc consts  --      0.3659                 0.5377                 0.7067
 IR Inten    --     27.3404                18.9475                 8.4472

                     10                     11                     12
                     A'                     A"                     A"
 Frequencies --    843.0174               853.8885              1032.8597
 Red. masses --      1.8913                 1.4295                 1.3690
 Frc consts  --      0.7919                 0.6141                 0.8605
 IR Inten    --     31.3091                14.1010                28.5885

                     13                     14                     15
                     A'                     A'                     A'
 Frequencies --   1050.3632              1138.5587              1237.0820
 Red. masses --      7.0812                 1.7284                 1.0861
 Frc consts  --      4.6029                 1.3201                 0.9793
 IR Inten    --    403.4304                 0.7852               202.1089

                     16                     17                     18
                     A'                     A'                     A'
 Frequencies --   1282.1314              1859.6208              2707.5380
 Red. masses --      2.6934                11.3044                 1.0477
 Frc consts  --      2.6087                23.0328                 4.5252
 IR Inten    --    137.4661               192.4420              1211.1528

                     19                     20                     21
                     A'                     A'                     A'
 Frequencies --   2750.3236              2790.3178              2939.7546
 Red. masses --      1.0763                 1.1133                 1.1023
 Frc consts  --      4.7967                 5.1071                 5.6127
 IR Inten    --    255.3093               386.6769               434.6573

 - Thermochemistry -
 -------------------
 Temperature   298.150 Kelvin.  Pressure   1.00000 Atm.
 Atom     1 has atomic number  6 and mass  12.00000

 Molecular mass:    64.03130 amu.
 Principal axes and moments of inertia in atomic units:
                           1         2         3
     Eigenvalues --    41.49934 819.60127 861.10061
           X            0.92511  -0.37970   0.00000
           Y            0.37970   0.92511   0.00000
           Z           -0.00000   0.00000   1.00000
 This molecule is an asymmetric top.
 Rotational symmetry number  1.
 Rotational temperatures (Kelvin)      2.08711     0.10568     0.10059
 Rotational constants (GHZ):          43.48843     2.20197     2.09585
 Zero-point vibrational energy     146805.7 (Joules/Mol)
                                   35.08740 (Kcal/Mol)
 Warning -- explicit consideration of   7 degrees of freedom as
           vibrations may cause significant error
 Vibrational temperatures:    216.74   269.93   470.59   499.48   638.19
          (Kelvin)            736.14   819.23   997.50  1191.52  1212.91
                             1228.55  1486.05  1511.24  1638.13  1779.88
                             1844.70  2675.58  3895.54  3957.10  4014.64
                             4229.65

 Zero-point correction=                           0.055915 (Hartree/Particle)
 Thermal correction to Energy=                    0.061814
 Thermal correction to Enthalpy=                  0.062758
 Thermal correction to Gibbs Free Energy=         0.026424
 Sum of electronic and zero-point Energies=           -191.061038
 Sum of electronic and thermal Energies=              -191.055139
 Sum of electronic and thermal Enthalpies=            -191.054195
 Sum of electronic and thermal Free Energies=         -191.090529

                     E (Thermal)             CV                S
                      KCal/Mol        Cal/Mol-Kelvin    Cal/Mol-Kelvin
 Total                   38.789             20.493             76.471
 Electronic               0.000              0.000              2.755
 Translational            0.889              2.981             38.389
 Rotational               0.889              2.981             24.886
 Vibrational             37.011             14.532             10.441
 Vibration     1          0.618              1.902              2.664
 Vibration     2          0.632              1.857              2.251
 Vibration     3          0.711              1.621              1.274
 Vibration     4          0.725              1.581              1.179
 Vibration     5          0.803              1.375              0.815
 Vibration     6          0.867              1.224              0.630
 Vibration     7          0.925              1.097              0.505

 Optimization completed.
    -- Stationary point found.
 Normal termination of Gaussian 09 at Wed Jul 20 11:05:21 2016.
