 Gaussian 09, Revision E.01,
 Gaussian 09:  EM64L-G09RevE.01 30-Nov-2015

 ---------------------------------------------
 #p b3lyp/6-311++G(3df,2p) freq symmetry=Loose
 ---------------------------------------------

 ---------
 b3lyp opt
 ---------
 Symbolic Z-matrix:
 Charge =  3 Multiplicity = 2

                         Standard orientation:
 ---------------------------------------------------------------------
 Center     Atomic      Atomic             Coordinates (Angstroms)
 Number     Number       Type             X           Y           Z
 ---------------------------------------------------------------------
      1          6           0        0.000000   -1.994684   -0.535249
      2          6           0        0.000000    1.994684   -0.535249
      3          6           0       -0.000000    0.714148    0.144765
      4          6           0       -0.000000   -0.000000    1.299860
      5          6           0       -0.000000   -0.714148    0.144765
      6          1           0        0.965349   -2.497457   -0.778339
      7          1           0       -0.965349    2.497457   -0.778339
      8          1           0        0.965349    2.497457   -0.778339
      9          1           0       -0.965349   -2.497457   -0.778339
 ---------------------------------------------------------------------

 SCF Done:  E(UB3LYP) =  -191.130707675     A.U. after   13 cycles

 The electronic state is 2-A1.
 Alpha  occ. eigenvalues --  -11.00813 -10.99807 -10.99807 -10.99656 -10.99617
 Alpha  occ. eigenvalues --   -1.67975  -1.46836  -1.44738  -1.23091  -1.22934
 Alpha  occ. eigenvalues --   -1.17278  -1.16204  -1.13097  -1.11367  -1.06347
 Alpha  occ. eigenvalues --   -1.01516
 Alpha virt. eigenvalues --   -0.85386  -0.80523  -0.74238  -0.71624  -0.53485
 Alpha virt. eigenvalues --   -0.52007  -0.47185  -0.46449  -0.46033  -0.44027
 Alpha virt. eigenvalues --   -0.43958  -0.41697  -0.41587  -0.40042  -0.38642

  Beta  occ. eigenvalues --  -10.99726 -10.99726 -10.99605 -10.99562 -10.98782
  Beta  occ. eigenvalues --   -1.67276  -1.46450  -1.44237  -1.22674  -1.21413
  Beta  occ. eigenvalues --   -1.16056  -1.15197  -1.13070  -1.10315  -1.05703
  Beta virt. eigenvalues --   -0.85997  -0.84118  -0.77471  -0.74497  -0.68473
  Beta virt. eigenvalues --   -0.53105  -0.51692  -0.46692  -0.45788  -0.44489
  Beta virt. eigenvalues --   -0.43928  -0.43786  -0.41683  -0.41313  -0.39972

 Mulliken charges and spin densities:
               1          2
     1  C   -0.058593   0.084167
     2  C   -0.058593   0.084167
     3  C    0.604690  -0.024938
     4  C    0.439327   0.890719
     5  C    0.604690  -0.024938
     6  H    0.367120  -0.002294
     7  H    0.367120  -0.002294
     8  H    0.367120  -0.002294
     9  H    0.367120  -0.002294
 Sum of Mulliken charges =   3.00000   1.00000

 Dipole moment (field-independent basis, Debye):
    X=              0.0000    Y=              0.0000    Z=             -2.8827  Tot=              2.8827
 Quadrupole moment (field-independent basis, Debye-Ang):
   XX=            -17.1616   YY=             31.3755   ZZ=            -12.1175
   XY=              0.0000   XZ=              0.0000   YZ=             -0.0000

  Exact polarizability:  26.375   0.000  65.934  -0.000   0.000  34.591
 Approx polarizability:  37.675  -0.000 100.077  -0.000   0.000  63.078

                      1                      2                      3
                     A1                     A2                     B1
 Frequencies --    208.3251               209.0945               312.1777
 Red. masses --      3.3190                 1.1044                 1.6340
 Frc consts  --      0.0849                 0.0284                 0.0938
 IR Inten    --     22.4271                 0.0000                17.4700

                      4                      5                      6
                     B1                     B2                     A2
 Frequencies --    399.5014               406.5683               440.7145
 Red. masses --      1.5934                 4.9429                 2.2978
 Frc consts  --      0.1498                 0.4814                 0.2629
 IR Inten    --      4.7777                 0.1254                 0.0000

                      7                      8                      9
                     A1                     B2                     B1
 Frequencies --    679.9638               869.3238               945.9619
 Red. masses --      5.2113                 6.0072                 1.4270
 Frc consts  --      1.4196                 2.6748                 0.7524
 IR Inten    --     39.5635               163.9303                 0.0786

                     10                     11                     12
                     A2                     A1                     B2
 Frequencies --    979.3097              1052.7375              1166.8931
 Red. masses --      1.5608                 5.0247                 1.7214
 Frc consts  --      0.8819                 3.2809                 1.3810
 IR Inten    --      0.0000                17.1224                 8.6994

                     13                     14                     15
                     A1                     B2                     A1
 Frequencies --   1193.5971              1220.8885              1355.7234
 Red. masses --      1.6126                 4.5730                 1.1158
 Frc consts  --      1.3536                 4.0161                 1.2083
 IR Inten    --      7.1649               114.4090                17.8402

                     16                     17                     18
                     B2                     A1                     B2
 Frequencies --   1355.8148              1760.7839              2836.3034
 Red. masses --      1.1216                11.3192                 1.0484
 Frc consts  --      1.2148                20.6765                 4.9693
 IR Inten    --     85.0983                33.4980               733.7219

                     19                     20                     21
                     A1                     A2                     B1
 Frequencies --   2851.2977              2953.3672              2954.2225
 Red. masses --      1.0461                 1.1281                 1.1275
 Frc consts  --      5.0108                 5.7976                 5.7979
 IR Inten    --    107.5722                 0.0000               536.9018

 - Thermochemistry -
 -------------------
 Temperature   298.150 Kelvin.  Pressure   1.00000 Atm.
 Atom     1 has atomic number  6 and mass  12.00000

 Molecular mass:    64.03130 amu.
 Principal axes and moments of inertia in atomic units:
                           1         2         3
     Eigenvalues --   120.36041 487.92076 581.44989
           X           -0.00000   0.00000   1.00000
           Y            1.00000   0.00000   0.00000
           Z            0.00000   1.00000   0.00000
 This molecule is an asymmetric top.
 Rotational symmetry number  2.
 Rotational temperatures (Kelvin)      0.71962     0.17752     0.14896
 Rotational constants (GHZ):          14.99448     3.69884     3.10386
 Zero-point vibrational energy     156427.1 (Joules/Mol)
                                   37.38697 (Kcal/Mol)
 Warning -- explicit consideration of   6 degrees of freedom as
           vibrations may cause significant error
 Vibrational temperatures:    299.73   300.84   449.15   574.79   584.96
          (Kelvin)            634.09   978.32  1250.76  1361.03  1409.01
                             1514.65  1678.90  1717.32  1756.58  1950.58
                             1950.71  2533.37  4080.80  4102.38  4249.23
                             4250.46

 Zero-point correction=                           0.059580 (Hartree/Particle)
 Thermal correction to Energy=                    0.065165
 Thermal correction to Enthalpy=                  0.066109
 Thermal correction to Gibbs Free Energy=         0.031627
 Sum of electronic and zero-point Energies=           -191.071128
 Sum of electronic and thermal Energies=              -191.065543
 Sum of electronic and thermal Enthalpies=            -191.064599
 Sum of electronic and thermal Free Energies=         -191.099080

                     E (Thermal)             CV                S
                      KCal/Mol        Cal/Mol-Kelvin    Cal/Mol-Kelvin
 Total                   40.892             19.055             72.573
 Electronic               0.000              0.000              1.377
 Translational            0.889              2.981             38.389
 Rotational               0.889              2.981             23.661
 Vibrational             39.114             13.093              9.145
 Vibration     1          0.642              1.828              2.058
 Vibration     2          0.642              1.827              2.052
 Vibration     3          0.701              1.650              1.351
 Vibration     4          0.766              1.471              0.964
 Vibration     5          0.771              1.456              0.939
 Vibration     6          0.801              1.381              0.824

 Optimization completed.
    -- Stationary point found.
 Normal termination of Gaussian 09 at Wed Jul 20 03:32:14 2016.
