 Gaussian 09, Revision E.01,
 Gaussian 09:  EM64L-G09RevE.01 30-Nov-2015

 ---------------------------------------------
 #p b3lyp/6-311++G(3df,2p) freq symmetry=Loose
 ---------------------------------------------

 ---------
 b3lyp opt
 ---------
 Symbolic Z-matrix:
 Charge =  0 Multiplicity = 3

                         Standard orientation:
 ---------------------------------------------------------------------
 Center     Atomic      Atomic             Coordinates (Angstroms)
 Number     Number       Type             X           Y           Z
 ---------------------------------------------------------------------
      1          6           0        0.168349    1.861329    0.000000
      2          1           0       -0.678233    2.533234    0.000000
      3          1           0        1.157369    2.298465    0.000000
      4          6           0       -0.000000    0.547576    0.000000
      5          6           0       -1.116888   -0.433836    0.000000
      6          6           0        0.859018   -0.675311    0.000000
      7          1           0        1.930218   -0.821850    0.000000
      8          6           0       -0.249388   -1.534216    0.000000
      9          1           0       -0.375901   -2.603096    0.000000
 ---------------------------------------------------------------------

 SCF Done:  E(UB3LYP) =  -192.785387031     A.U. after   16 cycles

 The electronic state is 3-A".
 Alpha  occ. eigenvalues --  -10.22201 -10.20738 -10.20648 -10.20486 -10.17531
 Alpha  occ. eigenvalues --   -0.91021  -0.75429  -0.64993  -0.61601  -0.50551
 Alpha  occ. eigenvalues --   -0.48007  -0.46207  -0.40362  -0.39945  -0.37888
 Alpha  occ. eigenvalues --   -0.27019  -0.25829  -0.20219
 Alpha virt. eigenvalues --   -0.04697  -0.00203   0.00807   0.01970   0.03591
 Alpha virt. eigenvalues --    0.04415   0.05052   0.07005   0.07188   0.07963
 Alpha virt. eigenvalues --    0.09594   0.09697   0.10989   0.11246   0.11640

  Beta  occ. eigenvalues --  -10.20688 -10.20681 -10.19857 -10.19594 -10.17469
  Beta  occ. eigenvalues --   -0.88892  -0.75148  -0.61373  -0.61030  -0.50364
  Beta  occ. eigenvalues --   -0.46143  -0.43629  -0.39253  -0.37158  -0.36192
  Beta  occ. eigenvalues --   -0.25445
  Beta virt. eigenvalues --   -0.11208  -0.06940  -0.04188  -0.00135   0.00776
  Beta virt. eigenvalues --    0.02276   0.03654   0.04900   0.05636   0.07242
  Beta virt. eigenvalues --    0.07810   0.08163   0.09881   0.10795   0.11081

 Mulliken charges and spin densities:
               1          2
     1  C   -0.708244   0.054692
     2  H    0.171520   0.003097
     3  H    0.167822  -0.001296
     4  C    0.251776  -0.146110
     5  C   -0.089927   1.627771
     6  C   -0.019382   0.772839
     7  H    0.238253   0.022357
     8  C   -0.251228  -0.338122
     9  H    0.239410   0.004771
 Sum of Mulliken charges =  -0.00000   2.00000

 Dipole moment (field-independent basis, Debye):
    X=              1.0509    Y=             -0.4687    Z=              0.0000  Tot=              1.1507
 Quadrupole moment (field-independent basis, Debye-Ang):
   XX=            -29.1728   YY=            -25.0691   ZZ=            -32.9548
   XY=             -0.1386   XZ=              0.0000   YZ=              0.0000

  Exact polarizability:  58.724   3.307  84.377   0.001  -0.008  39.358
 Approx polarizability:  94.371   6.752 137.344  -0.000  -0.000  56.591

                      1                      2                      3
                     A"                     A'                     A"
 Frequencies --    253.6467               347.8659               561.0970
 Red. masses --      3.2190                 2.4058                 1.1731
 Frc consts  --      0.1220                 0.1715                 0.2176
 IR Inten    --     11.8252                 2.4844                45.5464

                      4                      5                      6
                     A"                     A"                     A'
 Frequencies --    688.0358               725.4198               745.2909
 Red. masses --      4.9786                 1.1564                 4.8464
 Frc consts  --      1.3886                 0.3585                 1.5861
 IR Inten    --      2.9639                 4.4738                 1.0142

                      7                      8                      9
                     A'                     A"                     A'
 Frequencies --    816.2309               867.2719               895.7465
 Red. masses --      3.4285                 1.3248                 2.0788
 Frc consts  --      1.3458                 0.5871                 0.9827
 IR Inten    --      0.9986                19.7777                 9.6757

                     10                     11                     12
                     A"                     A'                     A'
 Frequencies --    909.0172               970.4211              1076.1263
 Red. masses --      1.3492                 3.7133                 1.6422
 Frc consts  --      0.6569                 2.0603                 1.1205
 IR Inten    --     39.7961                 2.9310                 4.3851

                     13                     14                     15
                     A'                     A'                     A'
 Frequencies --   1142.4213              1271.0285              1371.3168
 Red. masses --      1.7457                 1.9479                 4.8174
 Frc consts  --      1.3424                 1.8540                 5.3375
 IR Inten    --      2.2756                 3.7386                 0.6728

                     16                     17                     18
                     A'                     A'                     A'
 Frequencies --   1441.5025              1733.3008              3145.0509
 Red. masses --      1.1615                 7.0863                 1.0589
 Frc consts  --      1.4220                12.5435                 6.1712
 IR Inten    --      0.9423                33.0031                 1.4048

                     19                     20                     21
                     A'                     A'                     A'
 Frequencies --   3185.6248              3228.6509              3254.7763
 Red. masses --      1.0917                 1.1165                 1.1025
 Frc consts  --      6.5277                 6.8572                 6.8812
 IR Inten    --      0.7777                 3.2848                 0.1939

 - Thermochemistry -
 -------------------
 Temperature   298.150 Kelvin.  Pressure   1.00000 Atm.
 Atom     1 has atomic number  6 and mass  12.00000

 Molecular mass:    64.03130 amu.
 Principal axes and moments of inertia in atomic units:
                           1         2         3
     Eigenvalues --   106.28328 361.45021 467.73348
           X            0.10552   0.99442   0.00000
           Y            0.99442  -0.10552   0.00000
           Z            0.00000  -0.00000   1.00000
 This molecule is an asymmetric top.
 Rotational symmetry number  1.
 Rotational temperatures (Kelvin)      0.81493     0.23963     0.18518
 Rotational constants (GHZ):          16.98048     4.99306     3.85848
 Zero-point vibrational energy     171244.5 (Joules/Mol)
                                   40.92841 (Kcal/Mol)
 Warning -- explicit consideration of   3 degrees of freedom as
           vibrations may cause significant error
 Vibrational temperatures:    364.94   500.50   807.29   989.93  1043.72
          (Kelvin)           1072.31  1174.37  1247.81  1288.78  1307.87
                             1396.22  1548.30  1643.69  1828.72  1973.02
                             2074.00  2493.83  4525.02  4583.40  4645.30
                             4682.89

 Zero-point correction=                           0.065224 (Hartree/Particle)
 Thermal correction to Energy=                    0.069761
 Thermal correction to Enthalpy=                  0.070705
 Thermal correction to Gibbs Free Energy=         0.037371
 Sum of electronic and zero-point Energies=           -192.720163
 Sum of electronic and thermal Energies=              -192.715626
 Sum of electronic and thermal Enthalpies=            -192.714682
 Sum of electronic and thermal Free Energies=         -192.748016

                     E (Thermal)             CV                S
                      KCal/Mol        Cal/Mol-Kelvin    Cal/Mol-Kelvin
 Total                   43.776             16.318             70.157
 Electronic               0.000              0.000              2.183
 Translational            0.889              2.981             38.389
 Rotational               0.889              2.981             24.400
 Vibrational             41.998             10.356              5.185
 Vibration     1          0.665              1.757              1.705
 Vibration     2          0.725              1.580              1.176
 Vibration     3          0.917              1.115              0.522

 Optimization completed.
    -- Stationary point found.
 Normal termination of Gaussian 09 at Mon Jun 20 02:44:08 2016.
