 Gaussian 09, Revision E.01,
 Gaussian 09:  EM64L-G09RevE.01 30-Nov-2015

 ---------------------------------------------
 #p b3lyp/6-311++G(3df,2p) freq symmetry=Loose
 ---------------------------------------------

 ---------
 b3lyp opt
 ---------
 Symbolic Z-matrix:
 Charge =  2 Multiplicity = 3

                         Standard orientation:
 ---------------------------------------------------------------------
 Center     Atomic      Atomic             Coordinates (Angstroms)
 Number     Number       Type             X           Y           Z
 ---------------------------------------------------------------------
      1          6           0       -1.034816   -0.695267    0.000109
      2          6           0        0.448150   -0.914727   -0.000057
      3          1           0       -1.531260   -1.092126   -0.903600
      4          1           0       -1.531059   -1.092141    0.903922
      5          6           0       -0.941253    0.829169    0.000111
      6          1           0       -1.718629    1.596697    0.000204
      7          6           0        0.434359    0.888980   -0.000041
      8          6           0        1.463952   -0.009952   -0.000163
      9          1           0        2.558595   -0.001648   -0.000284
 ---------------------------------------------------------------------

 SCF Done:  E(UB3LYP) =  -191.910542438     A.U. after   15 cycles

 The electronic state is 3-A.
 Alpha  occ. eigenvalues --  -10.80011 -10.79994 -10.75020 -10.74802 -10.69772
 Alpha  occ. eigenvalues --   -1.46457  -1.28600  -1.20090  -1.05413  -1.04671
 Alpha  occ. eigenvalues --   -0.97644  -0.95742  -0.94804  -0.90871  -0.84744
 Alpha  occ. eigenvalues --   -0.76969  -0.76470
 Alpha virt. eigenvalues --   -0.58148  -0.56082  -0.45899  -0.35665  -0.32899
 Alpha virt. eigenvalues --   -0.31363  -0.29244  -0.28512  -0.28125  -0.25946
 Alpha virt. eigenvalues --   -0.25426  -0.23763  -0.22352  -0.21380  -0.21212

  Beta  occ. eigenvalues --  -10.79110 -10.78330 -10.74844 -10.74034 -10.69720
  Beta  occ. eigenvalues --   -1.44364  -1.26847  -1.17419  -1.03969  -1.02040
  Beta  occ. eigenvalues --   -0.96285  -0.93161  -0.91803  -0.89909  -0.83314
  Beta virt. eigenvalues --   -0.64837  -0.64556  -0.51959  -0.51170  -0.42298
  Beta virt. eigenvalues --   -0.34758  -0.32036  -0.30103  -0.28381  -0.28271
  Beta virt. eigenvalues --   -0.27783  -0.25611  -0.24875  -0.23499  -0.21539

 Mulliken charges and spin densities:
               1          2
     1  C   -0.395080  -0.025514
     2  C    0.321038   0.969808
     3  H    0.280824   0.009471
     4  H    0.280824   0.009471
     5  C    0.133221   0.531028
     6  H    0.338680   0.014078
     7  C    0.529803   0.488899
     8  C    0.153059  -0.028084
     9  H    0.357630   0.030843
 Sum of Mulliken charges =   2.00000   2.00000

 Dipole moment (field-independent basis, Debye):
    X=             -0.0613    Y=              0.2950    Z=              0.0000  Tot=              0.3013
 Quadrupole moment (field-independent basis, Debye-Ang):
   XX=             -2.7595   YY=            -13.8504   ZZ=            -23.3199
   XY=             -0.4536   XZ=             -0.0023   YZ=              0.0001

  Exact polarizability:  53.484  -0.653  44.827  -0.003   0.000  26.406
 Approx polarizability:  91.919  -2.637 100.700  -0.006   0.001  40.033

                      1                      2                      3
                      A                      A                      A
 Frequencies --    337.7665               356.0462               399.5719
 Red. masses --      7.2691                 2.2126                 3.0751
 Frc consts  --      0.4886                 0.1653                 0.2893
 IR Inten    --     38.4775                14.3618                 1.1488

                      4                      5                      6
                      A                      A                      A
 Frequencies --    605.5625               715.6698               789.3800
 Red. masses --      8.0750                 1.2478                 1.2126
 Frc consts  --      1.7447                 0.3766                 0.4452
 IR Inten    --      7.0740                52.5570                 9.0696

                      7                      8                      9
                      A                      A                      A
 Frequencies --    807.0006               840.9831               885.6298
 Red. masses --      3.6603                 3.2938                 1.9677
 Frc consts  --      1.4045                 1.3725                 0.9093
 IR Inten    --      5.8993                 5.1066                 0.5542

                     10                     11                     12
                      A                      A                      A
 Frequencies --    970.1522              1045.0479              1090.2175
 Red. masses --      2.7795                 1.6999                 1.1169
 Frc consts  --      1.5413                 1.0938                 0.7822
 IR Inten    --     14.8107                 7.1163                 0.0347

                     13                     14                     15
                      A                      A                      A
 Frequencies --   1109.0509              1191.4223              1289.9576
 Red. masses --      1.3432                 1.3678                 1.4436
 Frc consts  --      0.9734                 1.1439                 1.4153
 IR Inten    --     33.1123                32.0175                35.5747

                     16                     17                     18
                      A                      A                      A
 Frequencies --   1385.6814              1582.5531              2930.5335
 Red. masses --      2.4580                 7.5839                 1.0547
 Frc consts  --      2.7808                11.1908                 5.3366
 IR Inten    --     35.3287                45.1915               260.5440

                     19                     20                     21
                      A                      A                      A
 Frequencies --   2979.0525              3094.7970              3111.9965
 Red. masses --      1.1066                 1.1122                 1.1009
 Frc consts  --      5.7861                 6.2764                 6.2815
 IR Inten    --    137.3688               420.3118               111.1189

 - Thermochemistry -
 -------------------
 Temperature   298.150 Kelvin.  Pressure   1.00000 Atm.
 Atom     1 has atomic number  6 and mass  12.00000

 Molecular mass:    64.03130 amu.
 Principal axes and moments of inertia in atomic units:
                           1         2         3
     Eigenvalues --   143.47919 249.10551 380.82625
           X            0.99979   0.02068   0.00011
           Y           -0.02068   0.99979  -0.00001
           Z           -0.00011   0.00001   1.00000
 This molecule is an asymmetric top.
 Rotational symmetry number  1.
 Rotational temperatures (Kelvin)      0.60367     0.34770     0.22744
 Rotational constants (GHZ):          12.57842     7.24489     4.73901
 Zero-point vibrational energy     164594.6 (Joules/Mol)
                                   39.33906 (Kcal/Mol)
 Warning -- explicit consideration of   4 degrees of freedom as
           vibrations may cause significant error
 Vibrational temperatures:    485.97   512.27   574.89   871.27  1029.69
          (Kelvin)           1135.74  1161.09  1209.99  1274.22  1395.83
                             1503.59  1568.58  1595.67  1714.19  1855.96
                             1993.68  2276.94  4216.38  4286.19  4452.72
                             4477.46

 Zero-point correction=                           0.062691 (Hartree/Particle)
 Thermal correction to Energy=                    0.067271
 Thermal correction to Enthalpy=                  0.068215
 Thermal correction to Gibbs Free Energy=         0.035003
 Sum of electronic and zero-point Energies=           -191.847852
 Sum of electronic and thermal Energies=              -191.843271
 Sum of electronic and thermal Enthalpies=            -191.842327
 Sum of electronic and thermal Free Energies=         -191.875539

                     E (Thermal)             CV                S
                      KCal/Mol        Cal/Mol-Kelvin    Cal/Mol-Kelvin
 Total                   42.213             16.662             69.900
 Electronic               0.000              0.000              2.183
 Translational            0.889              2.981             38.389
 Rotational               0.889              2.981             24.124
 Vibrational             40.436             10.700              5.204
 Vibration     1          0.718              1.600              1.223
 Vibration     2          0.732              1.563              1.139
 Vibration     3          0.766              1.471              0.964
 Vibration     4          0.964              1.020              0.440

 Optimization completed.
    -- Stationary point found.
 Normal termination of Gaussian 09 at Wed Jul 20 09:23:56 2016.
