 Gaussian 09, Revision E.01,
 Gaussian 09:  EM64L-G09RevE.01 30-Nov-2015

 ---------------------------------------------
 #p b3lyp/6-311++G(3df,2p) freq symmetry=Loose
 ---------------------------------------------

 ---------
 b3lyp opt
 ---------
 Symbolic Z-matrix:
 Charge =  2 Multiplicity = 1

                         Standard orientation:
 ---------------------------------------------------------------------
 Center     Atomic      Atomic             Coordinates (Angstroms)
 Number     Number       Type             X           Y           Z
 ---------------------------------------------------------------------
      1          6           0       -2.157178   -0.140963   -0.495672
      2          6           0        1.475947    0.696405   -0.127211
      3          1           0        2.472235    0.214098   -0.268144
      4          1           0        1.513243    1.793749   -0.173447
      5          6           0        0.368550   -0.085567    0.080659
      6          6           0        1.212160   -1.164248    0.008806
      7          6           0       -1.086537    0.194390    0.320542
      8          1           0       -1.362894    1.288813    0.454098
      9          1           0       -1.500238   -0.296765    1.264749
 ---------------------------------------------------------------------

 SCF Done:  E(RB3LYP) =  -191.795528687     A.U. after   12 cycles

 The electronic state is 1-A.
 Alpha  occ. eigenvalues --  -10.82155 -10.75653 -10.72214 -10.70803 -10.70308
 Alpha  occ. eigenvalues --   -1.37172  -1.31024  -1.10795  -1.08704  -0.97775
 Alpha  occ. eigenvalues --   -0.95868  -0.92112  -0.88082  -0.82755  -0.78370
 Alpha  occ. eigenvalues --   -0.75415
 Alpha virt. eigenvalues --   -0.60084  -0.57896  -0.55575  -0.52399  -0.45905
 Alpha virt. eigenvalues --   -0.34785  -0.32913  -0.30562  -0.28481  -0.27214
 Alpha virt. eigenvalues --   -0.26936  -0.25491  -0.24392  -0.21359  -0.20069

 Mulliken charges:
               1
     1  C    0.095346
     2  C   -0.289939
     3  H    0.259306
     4  H    0.292598
     5  C    0.964657
     6  C    0.021037
     7  C    0.037680
     8  H    0.306584
     9  H    0.312732
 Sum of Mulliken charges =   2.00000

 Dipole moment (field-independent basis, Debye):
    X=             -0.9894    Y=              2.5226    Z=              0.8270  Tot=              2.8331
 Quadrupole moment (field-independent basis, Debye-Ang):
   XX=             -0.3515   YY=            -17.2054   ZZ=            -22.4981
   XY=              3.1334   XZ=             -3.2338   YZ=             -0.5234

  Exact polarizability:  56.844   2.462  45.556   0.356  -0.529  32.729
 Approx polarizability:  84.378   9.384  87.721   2.464  -1.391  55.632

                      1                      2                      3
                      A                      A                      A
 Frequencies --     43.1807               195.0762               253.0978
 Red. masses --      2.6444                 8.0782                 1.9168
 Frc consts  --      0.0029                 0.1811                 0.0723
 IR Inten    --      5.6036                 3.6008                 0.8903

                      4                      5                      6
                      A                      A                      A
 Frequencies --    308.2200               411.3806               415.9126
 Red. masses --      2.1589                 3.3514                 3.3728
 Frc consts  --      0.1208                 0.3342                 0.3438
 IR Inten    --      7.8248                 9.8270                 5.3956

                      7                      8                      9
                      A                      A                      A
 Frequencies --    652.8067               702.0409               800.1842
 Red. masses --      1.0693                 4.0251                 2.0083
 Frc consts  --      0.2685                 1.1688                 0.7576
 IR Inten    --      0.2702                18.9716                30.2959

                     10                     11                     12
                      A                      A                      A
 Frequencies --    909.6331               984.7554              1052.6036
 Red. masses --      1.4104                 1.1973                 1.3551
 Frc consts  --      0.6876                 0.6841                 0.8846
 IR Inten    --     15.6335                13.6288                29.2169

                     13                     14                     15
                      A                      A                      A
 Frequencies --   1228.9104              1321.7851              1411.7099
 Red. masses --      1.0878                 1.8826                 1.8632
 Frc consts  --      0.9679                 1.9379                 2.1878
 IR Inten    --     72.0793               147.3202                74.7413

                     16                     17                     18
                      A                      A                      A
 Frequencies --   1438.0406              1606.5586              2654.4439
 Red. masses --      4.2578                 9.9440                 1.0714
 Frc consts  --      5.1877                15.1218                 4.4480
 IR Inten    --    201.7143                57.5566               220.3363

                     19                     20                     21
                      A                      A                      A
 Frequencies --   2699.1192              2864.3754              3045.1011
 Red. masses --      1.0719                 1.0685                 1.0992
 Frc consts  --      4.6011                 5.1654                 6.0052
 IR Inten    --    181.7248               249.9547               177.1038

 - Thermochemistry -
 -------------------
 Temperature   298.150 Kelvin.  Pressure   1.00000 Atm.
 Atom     1 has atomic number  6 and mass  12.00000

 Molecular mass:    64.03130 amu.
 Principal axes and moments of inertia in atomic units:
                           1         2         3
     Eigenvalues --   121.40753 479.91102 556.63430
           X            0.99942   0.01938  -0.02797
           Y           -0.01958   0.99978  -0.00713
           Z            0.02783   0.00768   0.99958
 This molecule is an asymmetric top.
 Rotational symmetry number  1.
 Rotational temperatures (Kelvin)      0.71341     0.18048     0.15560
 Rotational constants (GHZ):          14.86515     3.76057     3.24224
 Zero-point vibrational energy     149526.8 (Joules/Mol)
                                   35.73777 (Kcal/Mol)
 Warning -- explicit consideration of   6 degrees of freedom as
           vibrations may cause significant error
 Vibrational temperatures:     62.13   280.67   364.15   443.46   591.88
          (Kelvin)            598.40   939.24  1010.08  1151.29  1308.76
                             1416.84  1514.46  1768.13  1901.75  2031.13
                             2069.02  2311.48  3819.15  3883.43  4121.19
                             4381.22

 Zero-point correction=                           0.056952 (Hartree/Particle)
 Thermal correction to Energy=                    0.063173
 Thermal correction to Enthalpy=                  0.064117
 Thermal correction to Gibbs Free Energy=         0.027598
 Sum of electronic and zero-point Energies=           -191.738577
 Sum of electronic and thermal Energies=              -191.732356
 Sum of electronic and thermal Enthalpies=            -191.731411
 Sum of electronic and thermal Free Energies=         -191.767930

                     E (Thermal)             CV                S
                      KCal/Mol        Cal/Mol-Kelvin    Cal/Mol-Kelvin
 Total                   39.642             20.260             76.860
 Electronic               0.000              0.000              0.000
 Translational            0.889              2.981             38.389
 Rotational               0.889              2.981             24.987
 Vibrational             37.864             14.298             13.484
 Vibration     1          0.595              1.980              5.108
 Vibration     2          0.636              1.847              2.179
 Vibration     3          0.664              1.758              1.709
 Vibration     4          0.698              1.658              1.372
 Vibration     5          0.775              1.446              0.922
 Vibration     6          0.779              1.436              0.906

 Normal termination of Gaussian 09 at Mon Jun 20 07:51:57 2016.
