 Gaussian 09, Revision E.01,
 Gaussian 09:  EM64L-G09RevE.01 30-Nov-2015

 ---------------------------------------------
 #p b3lyp/6-311++G(3df,2p) freq symmetry=Loose
 ---------------------------------------------

 ---------
 b3lyp opt
 ---------
 Symbolic Z-matrix:
 Charge =  2 Multiplicity = 3

                         Standard orientation:
 ---------------------------------------------------------------------
 Center     Atomic      Atomic             Coordinates (Angstroms)
 Number     Number       Type             X           Y           Z
 ---------------------------------------------------------------------
      1          6           0       -0.424580   -0.000018    0.412445
      2          6           0        0.786525   -0.767704    0.037369
      3          6           0        1.838839    0.000012   -0.284252
      4          6           0        0.786525    0.767700    0.037434
      5          1           0       -0.652121   -0.000065    1.517236
      6          6           0       -1.753531    0.000012   -0.271143
      7          1           0       -2.773905   -0.000013    0.296899
      8          1           0       -1.988322    1.005861   -0.702584
      9          1           0       -1.988322   -1.005801   -0.702671
 ---------------------------------------------------------------------

 SCF Done:  E(UB3LYP) =  -191.776955710     A.U. after   16 cycles

 The electronic state is 3-A.
 Alpha  occ. eigenvalues --  -10.76893 -10.76867 -10.76487 -10.76033 -10.71375
 Alpha  occ. eigenvalues --   -1.50007  -1.29248  -1.18397  -1.04395  -1.02335
 Alpha  occ. eigenvalues --   -0.98215  -0.95400  -0.88120  -0.86983  -0.84858
 Alpha  occ. eigenvalues --   -0.81631  -0.76001
 Alpha virt. eigenvalues --   -0.54820  -0.51478  -0.48907  -0.37794  -0.34975
 Alpha virt. eigenvalues --   -0.32668  -0.30847  -0.28447  -0.27951  -0.25646
 Alpha virt. eigenvalues --   -0.23244  -0.22608  -0.21766  -0.21072  -0.19464

  Beta  occ. eigenvalues --  -10.76441 -10.76418 -10.76232 -10.74162 -10.70680
  Beta  occ. eigenvalues --   -1.49426  -1.27381  -1.15692  -1.02706  -0.99827
  Beta  occ. eigenvalues --   -0.96418  -0.94083  -0.86935  -0.83171  -0.78666
  Beta virt. eigenvalues --   -0.70939  -0.61454  -0.54053  -0.48940  -0.45513
  Beta virt. eigenvalues --   -0.35417  -0.34252  -0.31645  -0.30435  -0.27941
  Beta virt. eigenvalues --   -0.27440  -0.24851  -0.22785  -0.21668  -0.21204

 Mulliken charges and spin densities:
               1          2
     1  C    0.323120  -0.024218
     2  C    0.498712   0.151546
     3  C   -0.059339   0.865167
     4  C    0.498713   0.151546
     5  H    0.302995   0.094306
     6  C   -0.523602   0.461970
     7  H    0.323054   0.176976
     8  H    0.318174   0.061353
     9  H    0.318174   0.061353
 Sum of Mulliken charges =   2.00000   2.00000

 Dipole moment (field-independent basis, Debye):
    X=             -4.6434    Y=             -0.0000    Z=              0.4178  Tot=              4.6622
 Quadrupole moment (field-independent basis, Debye-Ang):
   XX=              4.6095   YY=            -21.4485   ZZ=            -20.1070
   XY=             -0.0000   XZ=              0.1849   YZ=             -0.0001

  Exact polarizability:  91.478  -0.000  38.354   4.345   0.001  32.570
 Approx polarizability: 157.796  -0.000  83.717   5.913   0.001  52.454

                      1                      2                      3
                      A                      A                      A
 Frequencies --    109.2146               237.4276               349.5942
 Red. masses --      1.1006                 4.6517                 1.1867
 Frc consts  --      0.0077                 0.1545                 0.0854
 IR Inten    --     31.7398                 7.2831               148.6497

                      4                      5                      6
                      A                      A                      A
 Frequencies --    383.0358               514.9607               645.1826
 Red. masses --      5.6459                 5.3063                 5.3322
 Frc consts  --      0.4880                 0.8291                 1.3077
 IR Inten    --      5.8828                56.7382                87.9993

                      7                      8                      9
                      A                      A                      A
 Frequencies --    674.2886               710.5950               857.3933
 Red. masses --      2.6837                 1.6021                 1.9111
 Frc consts  --      0.7189                 0.4766                 0.8277
 IR Inten    --    291.3745               101.1883               680.9110

                     10                     11                     12
                      A                      A                      A
 Frequencies --    904.9464              1002.3102              1076.7187
 Red. masses --      1.1774                 1.6519                 1.3649
 Frc consts  --      0.5681                 0.9778                 0.9323
 IR Inten    --      1.2672               527.3843                10.8066

                     13                     14                     15
                      A                      A                      A
 Frequencies --   1145.5259              1224.5197              1233.9035
 Red. masses --      1.1996                 1.9575                10.7578
 Frc consts  --      0.9275                 1.7294                 9.6502
 IR Inten    --     43.0439                35.7664                 2.8716

                     16                     17                     18
                      A                      A                      A
 Frequencies --   1311.4155              1671.8195              2308.0450
 Red. masses --      2.1573                10.5380                 1.0578
 Frc consts  --      2.1860                17.3535                 3.3202
 IR Inten    --     10.1438               214.3397               676.4823

                     19                     20                     21
                      A                      A                      A
 Frequencies --   2689.1211              2778.3032              2821.8765
 Red. masses --      1.0714                 1.0458                 1.1027
 Frc consts  --      4.5647                 4.7561                 5.1733
 IR Inten    --    492.6515               292.1411               248.2740

 - Thermochemistry -
 -------------------
 Temperature   298.150 Kelvin.  Pressure   1.00000 Atm.
 Atom     1 has atomic number  6 and mass  12.00000

 Molecular mass:    64.03130 amu.
 Principal axes and moments of inertia in atomic units:
                           1         2         3
     Eigenvalues --    83.93336 418.25110 449.90610
           X            0.99996   0.00000   0.00904
           Y            0.00000   1.00000  -0.00004
           Z           -0.00904   0.00004   0.99996
 This molecule is an asymmetric top.
 Rotational symmetry number  1.
 Rotational temperatures (Kelvin)      1.03194     0.20709     0.19252
 Rotational constants (GHZ):          21.50207     4.31497     4.01137
 Zero-point vibrational energy     147440.9 (Joules/Mol)
                                   35.23923 (Kcal/Mol)
 Warning -- explicit consideration of   5 degrees of freedom as
           vibrations may cause significant error
 Vibrational temperatures:    157.14   341.60   502.99   551.10   740.91
          (Kelvin)            928.27   970.15  1022.39  1233.60  1302.01
                             1442.10  1549.16  1648.15  1761.81  1775.31
                             1886.83  2405.37  3320.76  3869.04  3997.35
                             4060.05

 Zero-point correction=                           0.056157 (Hartree/Particle)
 Thermal correction to Energy=                    0.061725
 Thermal correction to Enthalpy=                  0.062670
 Thermal correction to Gibbs Free Energy=         0.027321
 Sum of electronic and zero-point Energies=           -191.720798
 Sum of electronic and thermal Energies=              -191.715230
 Sum of electronic and thermal Enthalpies=            -191.714286
 Sum of electronic and thermal Free Energies=         -191.749635

                     E (Thermal)             CV                S
                      KCal/Mol        Cal/Mol-Kelvin    Cal/Mol-Kelvin
 Total                   38.733             19.146             74.397
 Electronic               0.000              0.000              2.183
 Translational            0.889              2.981             38.389
 Rotational               0.889              2.981             24.272
 Vibrational             36.956             13.185              9.553
 Vibration     1          0.606              1.942              3.283
 Vibration     2          0.656              1.783              1.822
 Vibration     3          0.727              1.576              1.168
 Vibration     4          0.752              1.506              1.027
 Vibration     5          0.870              1.217              0.622

 Optimization completed.
    -- Stationary point found.
 Normal termination of Gaussian 09 at Wed Jul 20 04:42:06 2016.
