 Gaussian 09, Revision E.01,
 Gaussian 09:  EM64L-G09RevE.01 30-Nov-2015

 ---------------------------------------------
 #p b3lyp/6-311++G(3df,2p) freq symmetry=Loose
 ---------------------------------------------

 ---------
 b3lyp opt
 ---------
 Symbolic Z-matrix:
 Charge =  1 Multiplicity = 2

                         Standard orientation:
 ---------------------------------------------------------------------
 Center     Atomic      Atomic             Coordinates (Angstroms)
 Number     Number       Type             X           Y           Z
 ---------------------------------------------------------------------
      1          6           0        0.000006   -1.361628    0.737485
      2          6           0        0.000006   -1.361628   -0.737485
      3          6           0        0.000000   -0.043046   -0.000000
      4          1           0        0.921526   -1.546102    1.282337
      5          1           0       -0.921526   -1.546102   -1.282337
      6          1           0        0.921526   -1.546102   -1.282337
      7          1           0       -0.921526   -1.546102    1.282337
      8          6           0       -0.000000    1.233667    0.000000
      9          6           0       -0.000000    2.563369    0.000000
 ---------------------------------------------------------------------

 SCF Done:  E(UB3LYP) =  -192.443037163     A.U. after   15 cycles

 The electronic state is 2-A".
 Alpha  occ. eigenvalues --  -10.51801 -10.50522 -10.46908 -10.45453 -10.45425
 Alpha  occ. eigenvalues --   -1.15440  -1.05111  -0.93240  -0.86964  -0.76595
 Alpha  occ. eigenvalues --   -0.74436  -0.63792  -0.62284  -0.61411  -0.58481
 Alpha  occ. eigenvalues --   -0.54122  -0.52044
 Alpha virt. eigenvalues --   -0.37497  -0.26166  -0.17122  -0.16772  -0.14138
 Alpha virt. eigenvalues --   -0.13465  -0.12325  -0.09817  -0.08400  -0.07963
 Alpha virt. eigenvalues --   -0.07657  -0.06106  -0.06039  -0.05158  -0.02849

  Beta  occ. eigenvalues --  -10.51751 -10.49764 -10.46494 -10.45285 -10.45255
  Beta  occ. eigenvalues --   -1.14690  -1.03154  -0.91759  -0.86226  -0.75910
  Beta  occ. eigenvalues --   -0.74330  -0.62134  -0.60903  -0.60807  -0.57998
  Beta  occ. eigenvalues --   -0.52675
  Beta virt. eigenvalues --   -0.41732  -0.36920  -0.21831  -0.16703  -0.16658
  Beta virt. eigenvalues --   -0.13946  -0.13205  -0.12206  -0.09689  -0.07838
  Beta virt. eigenvalues --   -0.07726  -0.07635  -0.06048  -0.05376  -0.04942

 Mulliken charges and spin densities:
               1          2
     1  C   -0.235843   0.074072
     2  C   -0.235843   0.074072
     3  C   -0.169079   0.188205
     4  H    0.238419  -0.000317
     5  H    0.238416  -0.000317
     6  H    0.238419  -0.000317
     7  H    0.238416  -0.000317
     8  C    0.834839   0.326720
     9  C   -0.147744   0.338199
 Sum of Mulliken charges =   1.00000   1.00000

 Dipole moment (field-independent basis, Debye):
    X=              0.0000    Y=             -2.8137    Z=              0.0000  Tot=              2.8137
 Quadrupole moment (field-independent basis, Debye-Ang):
   XX=            -24.2289   YY=            -19.8128   ZZ=            -22.7245
   XY=             -0.0000   XZ=              0.0000   YZ=              0.0000

  Exact polarizability:  35.545   0.000  90.170   0.000   0.000  43.664
 Approx polarizability:  52.468   0.000 169.828   0.000   0.000  60.962

                      1                      2                      3
                     A"                     A'                     A"
 Frequencies --     93.2135               141.1125               260.7266
 Red. masses --      6.2471                 6.0376                 6.9817
 Frc consts  --      0.0320                 0.0708                 0.2796
 IR Inten    --      6.4209                 2.0668                20.8129

                      4                      5                      6
                     A'                     A"                     A'
 Frequencies --    345.2297               581.8795               609.8594
 Red. masses --      3.2636                 7.4265                 6.1374
 Frc consts  --      0.2292                 1.4815                 1.3449
 IR Inten    --      0.2100                 0.1587                19.7615

                      7                      8                      9
                     A'                     A"                     A'
 Frequencies --    743.1310               849.8193              1001.7040
 Red. masses --      1.0556                 1.1027                 1.4576
 Frc consts  --      0.3435                 0.4692                 0.8617
 IR Inten    --      4.2479                 0.0000                 0.4931

                     10                     11                     12
                     A'                     A'                     A"
 Frequencies --   1061.1889              1082.9025              1098.4676
 Red. masses --      2.5344                 1.4819                 1.3174
 Frc consts  --      1.6816                 1.0239                 0.9366
 IR Inten    --    111.3320                 7.9573                10.4251

                     13                     14                     15
                     A"                     A'                     A"
 Frequencies --   1192.3649              1333.9943              1419.3050
 Red. masses --      1.2805                 5.0043                 1.0826
 Frc consts  --      1.0727                 5.2469                 1.2849
 IR Inten    --      0.0000               166.1947                26.5970

                     16                     17                     18
                     A'                     A'                     A"
 Frequencies --   1446.2048              1918.9173              3088.1970
 Red. masses --      1.2728                11.1200                 1.0467
 Frc consts  --      1.5685                24.1249                 5.8812
 IR Inten    --      0.5504               161.3505                43.2192

                     19                     20                     21
                     A'                     A"                     A'
 Frequencies --   3091.5042              3174.7602              3188.7011
 Red. masses --      1.0581                 1.1193                 1.1156
 Frc consts  --      5.9581                 6.6466                 6.6830
 IR Inten    --     65.5182                 0.0000                54.4698

 - Thermochemistry -
 -------------------
 Temperature   298.150 Kelvin.  Pressure   1.00000 Atm.
 Atom     1 has atomic number  6 and mass  12.00000

 Molecular mass:    64.03130 amu.
 Principal axes and moments of inertia in atomic units:
                           1         2         3
     Eigenvalues --    82.51187 550.31691 608.37828
           X           -0.00000   0.00000   1.00000
           Y            1.00000   0.00000   0.00000
           Z           -0.00000   1.00000  -0.00000
 This molecule is an asymmetric top.
 Rotational symmetry number  1.
 Rotational temperatures (Kelvin)      1.04971     0.15739     0.14237
 Rotational constants (GHZ):          21.87250     3.27946     2.96648
 Zero-point vibrational energy     165821.5 (Joules/Mol)
                                   39.63228 (Kcal/Mol)
 Warning -- explicit consideration of   6 degrees of freedom as
           vibrations may cause significant error
 Vibrational temperatures:    134.11   203.03   375.13   496.71   837.19
          (Kelvin)            877.45  1069.20  1222.70  1441.23  1526.81
                             1558.05  1580.45  1715.55  1919.32  2042.06
                             2080.76  2760.89  4443.22  4447.98  4567.77
                             4587.82

 Zero-point correction=                           0.063158 (Hartree/Particle)
 Thermal correction to Energy=                    0.068880
 Thermal correction to Enthalpy=                  0.069824
 Thermal correction to Gibbs Free Energy=         0.033924
 Sum of electronic and zero-point Energies=           -192.379879
 Sum of electronic and thermal Energies=              -192.374157
 Sum of electronic and thermal Enthalpies=            -192.373213
 Sum of electronic and thermal Free Energies=         -192.409113

                     E (Thermal)             CV                S
                      KCal/Mol        Cal/Mol-Kelvin    Cal/Mol-Kelvin
 Total                   43.223             18.375             75.559
 Electronic               0.000              0.000              1.377
 Translational            0.889              2.981             38.389
 Rotational               0.889              2.981             24.828
 Vibrational             41.446             12.413             10.964
 Vibration     1          0.602              1.954              3.591
 Vibration     2          0.615              1.912              2.789
 Vibration     3          0.669              1.745              1.657
 Vibration     4          0.724              1.585              1.188
 Vibration     5          0.939              1.071              0.482
 Vibration     6          0.969              1.011              0.433

 Optimization completed.
    -- Stationary point found.
 Normal termination of Gaussian 09 at Wed Jul 20 01:53:48 2016.
