 Gaussian 09, Revision E.01,
 Gaussian 09:  EM64L-G09RevE.01 30-Nov-2015

 ---------------------------------------------
 #p b3lyp/6-311++G(3df,2p) freq symmetry=Loose
 ---------------------------------------------

 ---------
 b3lyp opt
 ---------
 Symbolic Z-matrix:
 Charge =  0 Multiplicity = 1

                         Standard orientation:
 ---------------------------------------------------------------------
 Center     Atomic      Atomic             Coordinates (Angstroms)
 Number     Number       Type             X           Y           Z
 ---------------------------------------------------------------------
      1          1           0       -2.452907    0.086991    0.420742
      2          6           0        0.638479   -0.027674   -0.256621
      3          6           0        1.847332   -0.109873    0.151293
      4          1           0        2.796384    0.361310    0.305749
      5          6           0       -0.534460   -1.004550   -0.093466
      6          1           0       -0.528816   -2.028224    0.256415
      7          6           0       -1.423855    0.041543    0.103059
      8          6           0       -0.437337    1.023906   -0.110630
      9          1           0       -0.355611    2.039812    0.255286
 ---------------------------------------------------------------------

 SCF Done:  E(RB3LYP) =  -192.755258640     A.U. after   16 cycles

 The electronic state is 1-A.
 Alpha  occ. eigenvalues --  -10.21656 -10.21320 -10.20224 -10.20114 -10.18034
 Alpha  occ. eigenvalues --   -0.89896  -0.73962  -0.65920  -0.59923  -0.53131
 Alpha  occ. eigenvalues --   -0.50934  -0.42403  -0.40296  -0.38126  -0.37159
 Alpha  occ. eigenvalues --   -0.25689  -0.18929
 Alpha virt. eigenvalues --   -0.11769  -0.03633  -0.00356   0.00913   0.01736
 Alpha virt. eigenvalues --    0.02890   0.04046   0.05879   0.06136   0.06701
 Alpha virt. eigenvalues --    0.08298   0.09094   0.09460   0.10316   0.11564

 Mulliken charges:
               1
     1  H    0.205187
     2  C    0.087027
     3  C   -0.422083
     4  H    0.238056
     5  C   -0.167363
     6  H    0.174911
     7  C   -0.133166
     8  C   -0.158953
     9  H    0.176383
 Sum of Mulliken charges =  -0.00000

 Dipole moment (field-independent basis, Debye):
    X=             -1.2239    Y=              0.6991    Z=              0.7894  Tot=              1.6155
 Quadrupole moment (field-independent basis, Debye-Ang):
   XX=            -26.8894   YY=            -27.9044   ZZ=            -32.8974
   XY=              1.8365   XZ=             -0.6558   YZ=              0.4877

  Exact polarizability: 106.829  -5.800  64.770   6.078  -1.647  43.097
 Approx polarizability: 335.743 -36.214 113.277  41.122  -7.021  69.868

                      1                      2                      3
                      A                      A                      A
 Frequencies --    183.0649               240.8690               383.0728
 Red. masses --      2.1874                 1.5765                 3.0465
 Frc consts  --      0.0432                 0.0539                 0.2634
 IR Inten    --    174.6727               142.7507               148.8253

                      4                      5                      6
                      A                      A                      A
 Frequencies --    467.3189               503.4348               661.1416
 Red. masses --      1.5078                 2.2045                 1.6355
 Frc consts  --      0.1940                 0.3292                 0.4212
 IR Inten    --     86.4825                 6.0047                41.2996

                      7                      8                      9
                      A                      A                      A
 Frequencies --    689.5591               787.0850               877.4755
 Red. masses --      2.7245                 2.1140                 2.8248
 Frc consts  --      0.7633                 0.7716                 1.2815
 IR Inten    --     50.6687                22.7240                13.3818

                     10                     11                     12
                      A                      A                      A
 Frequencies --    906.8132               932.4153               991.5685
 Red. masses --      1.6902                 2.0473                 1.2290
 Frc consts  --      0.8189                 1.0487                 0.7120
 IR Inten    --      1.6965                 0.7584                 3.8094

                     13                     14                     15
                      A                      A                      A
 Frequencies --   1141.9578              1189.7924              1340.5052
 Red. masses --      1.8384                 1.4354                 2.3653
 Frc consts  --      1.4125                 1.1972                 2.5042
 IR Inten    --     17.4516                 1.9251                 9.9926

                     16                     17                     18
                      A                      A                      A
 Frequencies --   1423.9669              1734.7798              3178.9958
 Red. masses --      3.8864                 6.7630                 1.0897
 Frc consts  --      4.6430                11.9916                 6.4886
 IR Inten    --      3.4810                19.4669                11.8055

                     19                     20                     21
                      A                      A                      A
 Frequencies --   3192.4749              3237.9062              3329.9741
 Red. masses --      1.0915                 1.1070                 1.1144
 Frc consts  --      6.5545                 6.8379                 7.2810
 IR Inten    --     10.8093                 0.9385                30.9690

 - Thermochemistry -
 -------------------
 Temperature   298.150 Kelvin.  Pressure   1.00000 Atm.
 Atom     1 has atomic number  1 and mass   1.00783

 Molecular mass:    64.03130 amu.
 Principal axes and moments of inertia in atomic units:
                           1         2         3
     Eigenvalues --   125.48968 328.86375 441.33722
           X            0.99979   0.01990  -0.00458
           Y           -0.01988   0.99979   0.00476
           Z            0.00468  -0.00467   0.99998
 This molecule is an asymmetric top.
 Rotational symmetry number  1.
 Rotational temperatures (Kelvin)      0.69021     0.26337     0.19625
 Rotational constants (GHZ):          14.38159     5.48781     4.08926
 Zero-point vibrational energy     163853.5 (Joules/Mol)
                                   39.16193 (Kcal/Mol)
 Warning -- explicit consideration of   5 degrees of freedom as
           vibrations may cause significant error
 Vibrational temperatures:    263.39   346.56   551.16   672.37   724.33
          (Kelvin)            951.23   992.12  1132.44  1262.49  1304.70
                             1341.54  1426.64  1643.02  1711.84  1928.69
                             2048.77  2495.96  4573.86  4593.25  4658.62
                             4791.08

 Zero-point correction=                           0.062409 (Hartree/Particle)
 Thermal correction to Energy=                    0.067708
 Thermal correction to Enthalpy=                  0.068652
 Thermal correction to Gibbs Free Energy=         0.034985
 Sum of electronic and zero-point Energies=           -192.692850
 Sum of electronic and thermal Energies=              -192.687551
 Sum of electronic and thermal Enthalpies=            -192.686607
 Sum of electronic and thermal Free Energies=         -192.720273

                     E (Thermal)             CV                S
                      KCal/Mol        Cal/Mol-Kelvin    Cal/Mol-Kelvin
 Total                   42.487             18.684             70.858
 Electronic               0.000              0.000              0.000
 Translational            0.889              2.981             38.389
 Rotational               0.889              2.981             24.414
 Vibrational             40.710             12.722              8.055
 Vibration     1          0.631              1.863              2.297
 Vibration     2          0.658              1.778              1.796
 Vibration     3          0.752              1.506              1.027
 Vibration     4          0.825              1.323              0.745
 Vibration     5          0.859              1.242              0.650

 Optimization completed.
    -- Stationary point found.
 Normal termination of Gaussian 09 at Wed Jun 22 02:47:03 2016.
