 Gaussian 09, Revision E.01,
 Gaussian 09:  EM64L-G09RevE.01 30-Nov-2015

 ---------------------------------------------
 #p b3lyp/6-311++G(3df,2p) freq symmetry=Loose
 ---------------------------------------------

 ---------
 b3lyp opt
 ---------
 Symbolic Z-matrix:
 Charge =  1 Multiplicity = 2

                         Standard orientation:
 ---------------------------------------------------------------------
 Center     Atomic      Atomic             Coordinates (Angstroms)
 Number     Number       Type             X           Y           Z
 ---------------------------------------------------------------------
      1          6           0        1.228403    1.173769    0.000000
      2          1           0        1.805867    0.966702    0.904223
      3          1           0        1.805867    0.966702   -0.904223
      4          1           0        0.960079    2.235815    0.000000
      5          6           0       -1.129051   -1.880905   -0.000000
      6          6           0       -0.000000    0.267194    0.000000
      7          6           0       -1.006359    1.175280    0.000000
      8          6           0       -0.008350   -1.142208   -0.000000
      9          1           0        0.920332   -1.728005   -0.000000
 ---------------------------------------------------------------------

 SCF Done:  E(UB3LYP) =  -192.360262740     A.U. after   21 cycles

 The electronic state is 2-A".
 Alpha  occ. eigenvalues --  -10.53087 -10.52896 -10.49314 -10.46481 -10.42751
 Alpha  occ. eigenvalues --   -1.12907  -1.04126  -0.92664  -0.86130  -0.74871
 Alpha  occ. eigenvalues --   -0.68711  -0.68200  -0.63921  -0.60408  -0.56244
 Alpha  occ. eigenvalues --   -0.54757  -0.52529
 Alpha virt. eigenvalues --   -0.36305  -0.34694  -0.31851  -0.18878  -0.16300
 Alpha virt. eigenvalues --   -0.13439  -0.11691  -0.11226  -0.09941  -0.08426
 Alpha virt. eigenvalues --   -0.07062  -0.06769  -0.06757  -0.06441  -0.05068

  Beta  occ. eigenvalues --  -10.52598 -10.52187 -10.49090 -10.46381 -10.42755
  Beta  occ. eigenvalues --   -1.11771  -1.02691  -0.91634  -0.85391  -0.74606
  Beta  occ. eigenvalues --   -0.67732  -0.67451  -0.63668  -0.57703  -0.55303
  Beta  occ. eigenvalues --   -0.53824
  Beta virt. eigenvalues --   -0.42694  -0.35737  -0.33867  -0.27922  -0.16273
  Beta virt. eigenvalues --   -0.16237  -0.13380  -0.11562  -0.10864  -0.09891
  Beta virt. eigenvalues --   -0.08341  -0.06702  -0.06641  -0.06382  -0.06314

 Mulliken charges and spin densities:
               1          2
     1  C   -0.607783  -0.016157
     2  H    0.230154   0.019131
     3  H    0.230154   0.019131
     4  H    0.206157  -0.000421
     5  C   -0.317348   0.271500
     6  C    0.893012   0.203203
     7  C   -0.210223   0.390609
     8  C    0.339245   0.117840
     9  H    0.236632  -0.004837
 Sum of Mulliken charges =   1.00000   1.00000

 Dipole moment (field-independent basis, Debye):
    X=              2.7972    Y=             -0.4872    Z=             -0.0000  Tot=              2.8394
 Quadrupole moment (field-independent basis, Debye-Ang):
   XX=            -23.3922   YY=            -19.4793   ZZ=            -27.2728
   XY=              1.9491   XZ=             -0.0000   YZ=             -0.0000

  Exact polarizability:  56.240   9.540  76.111   0.000   0.000  37.290
 Approx polarizability:  93.819  12.264 125.513  -0.000  -0.000  53.641

                      1                      2                      3
                     A"                     A'                     A'
 Frequencies --    144.4968               151.0907               183.3806
 Red. masses --      3.7811                10.8038                 4.3965
 Frc consts  --      0.0465                 0.1453                 0.0871
 IR Inten    --      4.2045                 7.6946                 5.8002

                      4                      5                      6
                     A"                     A'                     A"
 Frequencies --    229.4293               339.2345               378.7982
 Red. masses --      1.0652                 3.7113                 3.2257
 Frc consts  --      0.0330                 0.2516                 0.2727
 IR Inten    --      0.4251                 5.0698                 0.2384

                      7                      8                      9
                     A"                     A'                     A"
 Frequencies --    728.6478               770.5388               957.8620
 Red. masses --      1.4750                 5.3601                 1.3858
 Frc consts  --      0.4614                 1.8750                 0.7492
 IR Inten    --      3.7039                12.0880                20.8443

                     10                     11                     12
                     A'                     A'                     A'
 Frequencies --    965.9289              1003.9942              1111.5487
 Red. masses --      1.5091                 1.3510                 4.2325
 Frc consts  --      0.8296                 0.8024                 3.0811
 IR Inten    --     18.5129                13.6985                 6.2785

                     13                     14                     15
                     A'                     A'                     A"
 Frequencies --   1365.1007              1419.5417              1434.5914
 Red. masses --      1.1873                 1.1631                 1.0408
 Frc consts  --      1.3036                 1.3809                 1.2620
 IR Inten    --     22.1633                 0.9359                 9.1801

                     16                     17                     18
                     A'                     A'                     A'
 Frequencies --   1519.9029              1626.8464              2995.5581
 Red. masses --      3.5471                10.1798                 1.0305
 Frc consts  --      4.8279                15.8739                 5.4482
 IR Inten    --    333.4667               126.3428                78.5834

                     19                     20                     21
                     A'                     A'                     A"
 Frequencies --   3035.4880              3065.0519              3096.2685
 Red. masses --      1.0832                 1.0990                 1.1048
 Frc consts  --      5.8806                 6.0830                 6.2403
 IR Inten    --     79.9445                11.0680                17.8472

 - Thermochemistry -
 -------------------
 Temperature   298.150 Kelvin.  Pressure   1.00000 Atm.
 Atom     1 has atomic number  6 and mass  12.00000

 Molecular mass:    64.03130 amu.
 Principal axes and moments of inertia in atomic units:
                           1         2         3
     Eigenvalues --   138.29543 428.29182 554.81679
           X            0.44901   0.89353   0.00000
           Y            0.89353  -0.44901   0.00000
           Z           -0.00000  -0.00000   1.00000
 This molecule is an asymmetric top.
 Rotational symmetry number  1.
 Rotational temperatures (Kelvin)      0.62630     0.20223     0.15611
 Rotational constants (GHZ):          13.04990     4.21381     3.25286
 Zero-point vibrational energy     158644.6 (Joules/Mol)
                                   37.91696 (Kcal/Mol)
 Warning -- explicit consideration of   6 degrees of freedom as
           vibrations may cause significant error
 Vibrational temperatures:    207.90   217.39   263.84   330.10   488.08
          (Kelvin)            545.01  1048.36  1108.63  1378.15  1389.75
                             1444.52  1599.27  1964.07  2042.40  2064.05
                             2186.80  2340.67  4309.93  4367.38  4409.92
                             4454.83

 Zero-point correction=                           0.060425 (Hartree/Particle)
 Thermal correction to Energy=                    0.066722
 Thermal correction to Enthalpy=                  0.067667
 Thermal correction to Gibbs Free Energy=         0.030819
 Sum of electronic and zero-point Energies=           -192.299838
 Sum of electronic and thermal Energies=              -192.293540
 Sum of electronic and thermal Enthalpies=            -192.292596
 Sum of electronic and thermal Free Energies=         -192.329444

                     E (Thermal)             CV                S
                      KCal/Mol        Cal/Mol-Kelvin    Cal/Mol-Kelvin
 Total                   41.869             19.934             77.552
 Electronic               0.000              0.000              1.377
 Translational            0.889              2.981             38.389
 Rotational               0.889              2.981             25.000
 Vibrational             40.091             13.972             12.786
 Vibration     1          0.616              1.909              2.743
 Vibration     2          0.619              1.901              2.658
 Vibration     3          0.631              1.862              2.294
 Vibration     4          0.652              1.796              1.883
 Vibration     5          0.719              1.597              1.216
 Vibration     6          0.749              1.515              1.044

 Normal termination of Gaussian 09 at Wed Jul 20 06:09:37 2016.
