 Gaussian 09, Revision E.01,
 Gaussian 09:  EM64L-G09RevE.01 30-Nov-2015

 ---------------------------------------------
 #p b3lyp/6-311++G(3df,2p) freq symmetry=Loose
 ---------------------------------------------

 ---------
 b3lyp opt
 ---------
 Symbolic Z-matrix:
 Charge =  1 Multiplicity = 4

                         Standard orientation:
 ---------------------------------------------------------------------
 Center     Atomic      Atomic             Coordinates (Angstroms)
 Number     Number       Type             X           Y           Z
 ---------------------------------------------------------------------
      1          6           0        2.156506   -0.227682   -0.002703
      2          6           0       -1.502906   -0.355575   -0.427173
      3          1           0       -2.389347    0.146183   -0.810383
      4          1           0       -1.243602   -1.311110   -0.880941
      5          6           0       -0.307243    0.608628   -0.137701
      6          1           0       -0.496645    1.678621   -0.175593
      7          6           0       -1.180846   -0.176582    0.964218
      8          6           0        0.994387    0.159691   -0.097107
      9          1           0        3.170201   -0.564573    0.069717
 ---------------------------------------------------------------------

 SCF Done:  E(UB3LYP) =  -192.379707614     A.U. after   18 cycles

 The electronic state is 4-A.
 Alpha  occ. eigenvalues --  -10.49482 -10.47680 -10.46026 -10.45558 -10.44860
 Alpha  occ. eigenvalues --   -1.13759  -1.03067  -0.91456  -0.81318  -0.78037
 Alpha  occ. eigenvalues --   -0.75140  -0.68291  -0.64906  -0.61385  -0.57881
 Alpha  occ. eigenvalues --   -0.53671  -0.50433  -0.45816
 Alpha virt. eigenvalues --   -0.23187  -0.22187  -0.15285  -0.13038  -0.12563
 Alpha virt. eigenvalues --   -0.11424  -0.11091  -0.10719  -0.08631  -0.07005
 Alpha virt. eigenvalues --   -0.06543  -0.05532  -0.05230  -0.04581  -0.02897

  Beta  occ. eigenvalues --  -10.47282 -10.45993 -10.45500 -10.45100 -10.44612
  Beta  occ. eigenvalues --   -1.10891  -1.00555  -0.89647  -0.77648  -0.75852
  Beta  occ. eigenvalues --   -0.73905  -0.64387  -0.63113  -0.56504  -0.52766
  Beta virt. eigenvalues --   -0.42539  -0.36650  -0.27415  -0.21418  -0.18570
  Beta virt. eigenvalues --   -0.14815  -0.12717  -0.12277  -0.10791  -0.10339
  Beta virt. eigenvalues --   -0.09013  -0.07278  -0.06720  -0.05717  -0.04725

 Mulliken charges and spin densities:
               1          2
     1  C    0.402607   0.479698
     2  C   -0.232211   0.103932
     3  H    0.217009   0.046063
     4  H    0.228378   0.049629
     5  C   -0.142015   0.146464
     6  H    0.259035   0.007842
     7  C    0.059202   2.039868
     8  C   -0.176177   0.141791
     9  H    0.384173  -0.015287
 Sum of Mulliken charges =   1.00000   3.00000

 Dipole moment (field-independent basis, Debye):
    X=              1.0590    Y=             -0.0450    Z=             -0.7437  Tot=              1.2948
 Quadrupole moment (field-independent basis, Debye-Ang):
   XX=             -7.0959   YY=            -24.0402   ZZ=            -26.1170
   XY=             -2.2410   XZ=              1.8782   YZ=              0.2402

  Exact polarizability:  90.449  -2.227  38.108  -2.560  -0.613  40.083
 Approx polarizability: 155.319  -6.457  56.500 -11.068  -2.994  65.035

                      1                      2                      3
                      A                      A                      A
 Frequencies --    169.6216               202.8625               436.8071
 Red. masses --      4.5032                 3.2519                 4.3396
 Frc consts  --      0.0763                 0.0788                 0.4878
 IR Inten    --      4.0644                 4.0995                49.0270

                      4                      5                      6
                      A                      A                      A
 Frequencies --    482.3094               518.7090               676.5922
 Red. masses --      6.6989                 4.8231                 1.3130
 Frc consts  --      0.9181                 0.7646                 0.3541
 IR Inten    --    100.4716                88.6618                34.8966

                      7                      8                      9
                      A                      A                      A
 Frequencies --    700.7110               724.7044               847.4939
 Red. masses --      1.4880                 3.1357                 1.2086
 Frc consts  --      0.4305                 0.9703                 0.5114
 IR Inten    --     25.9596                 6.8267                49.0897

                     10                     11                     12
                      A                      A                      A
 Frequencies --    938.4685               981.2861              1058.8879
 Red. masses --      1.3657                 1.4659                 1.4442
 Frc consts  --      0.7087                 0.8317                 0.9541
 IR Inten    --      2.5634                15.0144                17.2507

                     13                     14                     15
                      A                      A                      A
 Frequencies --   1118.3079              1178.8229              1324.8754
 Red. masses --      1.7643                 2.8266                 1.7114
 Frc consts  --      1.3000                 2.3142                 1.7699
 IR Inten    --     16.4560                15.0651                28.9347

                     16                     17                     18
                      A                      A                      A
 Frequencies --   1426.7799              2066.4132              3049.1192
 Red. masses --      1.1139                 6.5861                 1.0485
 Frc consts  --      1.3361                16.5696                 5.7436
 IR Inten    --     27.5500                95.8963                25.3430

                     19                     20                     21
                      A                      A                      A
 Frequencies --   3121.0015              3147.2709              3376.2445
 Red. masses --      1.0877                 1.1190                 1.1472
 Frc consts  --      6.2425                 6.5307                 7.7047
 IR Inten    --     25.7384                18.1927               153.3577

 - Thermochemistry -
 -------------------
 Temperature   298.150 Kelvin.  Pressure   1.00000 Atm.
 Atom     1 has atomic number  6 and mass  12.00000

 Molecular mass:    64.03130 amu.
 Principal axes and moments of inertia in atomic units:
                           1         2         3
     Eigenvalues --    97.07873 508.69540 519.93079
           X            0.99951   0.03080  -0.00492
           Y            0.01142  -0.21459   0.97664
           Z           -0.02902   0.97622   0.21484
 This molecule is an asymmetric top.
 Rotational symmetry number  1.
 Rotational temperatures (Kelvin)      0.89220     0.17027     0.16659
 Rotational constants (GHZ):          18.59049     3.54778     3.47112
 Zero-point vibrational energy     164769.4 (Joules/Mol)
                                   39.38083 (Kcal/Mol)
 Warning -- explicit consideration of   5 degrees of freedom as
           vibrations may cause significant error
 Vibrational temperatures:    244.05   291.87   628.47   693.93   746.31
          (Kelvin)            973.46  1008.17  1042.69  1219.35  1350.25
                             1411.85  1523.50  1608.99  1696.06  1906.20
                             2052.82  2973.10  4387.00  4490.42  4528.22
                             4857.66

 Zero-point correction=                           0.062757 (Hartree/Particle)
 Thermal correction to Energy=                    0.068057
 Thermal correction to Enthalpy=                  0.069002
 Thermal correction to Gibbs Free Energy=         0.033781
 Sum of electronic and zero-point Energies=           -192.316950
 Sum of electronic and thermal Energies=              -192.311650
 Sum of electronic and thermal Enthalpies=            -192.310706
 Sum of electronic and thermal Free Energies=         -192.345927

                     E (Thermal)             CV                S
                      KCal/Mol        Cal/Mol-Kelvin    Cal/Mol-Kelvin
 Total                   42.707             18.517             74.129
 Electronic               0.000              0.000              2.755
 Translational            0.889              2.981             38.389
 Rotational               0.889              2.981             24.755
 Vibrational             40.929             12.556              8.230
 Vibration     1          0.625              1.880              2.440
 Vibration     2          0.639              1.836              2.107
 Vibration     3          0.797              1.390              0.837
 Vibration     4          0.839              1.289              0.704
 Vibration     5          0.874              1.209              0.613

 Optimization completed.
    -- Stationary point found.
 Normal termination of Gaussian 09 at Mon Jun 20 05:33:49 2016.
