 Gaussian 09, Revision E.01,
 Gaussian 09:  EM64L-G09RevE.01 30-Nov-2015

 ---------------------------------------------
 #p b3lyp/6-311++G(3df,2p) freq symmetry=Loose
 ---------------------------------------------

 ---------
 b3lyp opt
 ---------
 Symbolic Z-matrix:
 Charge =  3 Multiplicity = 4

                         Standard orientation:
 ---------------------------------------------------------------------
 Center     Atomic      Atomic             Coordinates (Angstroms)
 Number     Number       Type             X           Y           Z
 ---------------------------------------------------------------------
      1          6           0       -2.400770   -0.074966    0.014479
      2          1           0       -2.841499   -0.061864    1.069950
      3          1           0       -2.822979   -1.014792   -0.523402
      4          1           0       -2.926151    0.757210   -0.602361
      5          6           0        2.713725   -0.442098    0.000313
      6          6           0       -1.061225    0.010622   -0.002146
      7          6           0        0.240074    0.074529   -0.002652
      8          6           0        1.599168    0.261145   -0.000832
      9          1           0        2.044797    1.344051    0.000841
 ---------------------------------------------------------------------

 SCF Done:  E(UB3LYP) =  -191.042874928     A.U. after   19 cycles

 The electronic state is 4-A.
 Alpha  occ. eigenvalues --  -11.08974 -10.98898 -10.98776 -10.95452 -10.85017
 Alpha  occ. eigenvalues --   -1.56623  -1.51542  -1.42365  -1.33669  -1.18338
 Alpha  occ. eigenvalues --   -1.15079  -1.12115  -1.10433  -1.08188  -1.05857
 Alpha  occ. eigenvalues --   -0.98388  -0.97922
 Alpha virt. eigenvalues --   -0.83299  -0.76295  -0.70501  -0.60664  -0.51609
 Alpha virt. eigenvalues --   -0.49788  -0.47408  -0.42920  -0.42866  -0.41723
 Alpha virt. eigenvalues --   -0.40323  -0.39773  -0.38265  -0.36750  -0.36297

  Beta  occ. eigenvalues --  -11.05689 -10.98469 -10.97251 -10.95522 -10.84726
  Beta  occ. eigenvalues --   -1.53551  -1.48316  -1.39503  -1.31198  -1.16369
  Beta  occ. eigenvalues --   -1.13347  -1.07075  -1.04587  -1.02163
  Beta virt. eigenvalues --   -0.88813  -0.86559  -0.85564  -0.77853  -0.70761
  Beta virt. eigenvalues --   -0.65926  -0.56497  -0.49797  -0.48603  -0.46159
  Beta virt. eigenvalues --   -0.42101  -0.41341  -0.40874  -0.39310  -0.39265

 Mulliken charges and spin densities:
               1          2
     1  C   -0.138721   0.184209
     2  H    0.343132   0.069795
     3  H    0.358008   0.121044
     4  H    0.351038   0.114733
     5  C    0.480648   1.517019
     6  C    0.585591   0.302036
     7  C    0.176828   0.830068
     8  C    0.508256  -0.149812
     9  H    0.335220   0.010908
 Sum of Mulliken charges =   3.00000   3.00000

 Dipole moment (field-independent basis, Debye):
    X=              1.0354    Y=              0.1207    Z=             -0.1711  Tot=              1.0564
 Quadrupole moment (field-independent basis, Debye-Ang):
   XX=             57.9987   YY=            -15.3949   ZZ=            -20.9418
   XY=              0.7213   XZ=              0.5975   YZ=              0.0265

  Exact polarizability: 123.331  -0.172  31.698   0.308  -0.014  26.645
 Approx polarizability: 225.826  -7.663  52.510   0.039   0.043  37.867

                      1                      2                      3
                      A                      A                      A
 Frequencies --     30.9400               151.6813               191.3031
 Red. masses --      1.3110                 5.0057                 2.7251
 Frc consts  --      0.0007                 0.0679                 0.0588
 IR Inten    --      4.0103                20.2921                38.6585

                      4                      5                      6
                      A                      A                      A
 Frequencies --    304.0556               398.5395               407.4435
 Red. masses --      3.4770                 2.3874                 3.1667
 Frc consts  --      0.1894                 0.2234                 0.3097
 IR Inten    --      2.1417                 1.8840                13.1437

                      7                      8                      9
                      A                      A                      A
 Frequencies --    622.2367               694.0971               701.8326
 Red. masses --      2.2286                 4.6654                 2.0683
 Frc consts  --      0.5084                 1.3243                 0.6002
 IR Inten    --     54.7505                18.5578                37.2389

                     10                     11                     12
                      A                      A                      A
 Frequencies --    719.2475               841.2202               851.7493
 Red. masses --      1.6529                 1.1442                 1.1169
 Frc consts  --      0.5038                 0.4770                 0.4774
 IR Inten    --    121.9040                97.2526                80.3247

                     13                     14                     15
                      A                      A                      A
 Frequencies --    898.0234              1128.6546              1296.1225
 Red. masses --      1.2308                 1.1894                 6.2209
 Frc consts  --      0.5848                 0.8927                 6.1574
 IR Inten    --     11.3297               357.6825                56.4096

                     16                     17                     18
                      A                      A                      A
 Frequencies --   1542.8517              1907.0730              2329.9950
 Red. masses --      8.3060                 9.0451                 1.0690
 Frc consts  --     11.6490                19.3820                 3.4194
 IR Inten    --    438.5875                32.2403               432.7456

                     19                     20                     21
                      A                      A                      A
 Frequencies --   2382.2620              2450.7810              2557.5286
 Red. masses --      1.0675                 1.0883                 1.0592
 Frc consts  --      3.5696                 3.8511                 4.0818
 IR Inten    --   1127.0786              1294.5970              1280.3178

 - Thermochemistry -
 -------------------
 Temperature   298.150 Kelvin.  Pressure   1.00000 Atm.
 Atom     1 has atomic number  6 and mass  12.00000

 Molecular mass:    64.03130 amu.
 Principal axes and moments of inertia in atomic units:
                           1         2         3
     Eigenvalues --    30.24102 830.75269 848.15268
           X            0.99988   0.01535   0.00094
           Y           -0.01536   0.99988   0.00249
           Z           -0.00090  -0.00250   1.00000
 This molecule is an asymmetric top.
 Rotational symmetry number  1.
 Rotational temperatures (Kelvin)      2.86412     0.10426     0.10212
 Rotational constants (GHZ):          59.67858     2.17242     2.12785
 Zero-point vibrational energy     134027.4 (Joules/Mol)
                                   32.03333 (Kcal/Mol)
 Warning -- explicit consideration of   6 degrees of freedom as
           vibrations may cause significant error
 Vibrational temperatures:     44.52   218.24   275.24   437.47   573.41
          (Kelvin)            586.22   895.26   998.65  1009.78  1034.84
                             1210.33  1225.48  1292.05  1623.88  1864.83
                             2219.82  2743.85  3352.34  3427.54  3526.12
                             3679.71

 Zero-point correction=                           0.051048 (Hartree/Particle)
 Thermal correction to Energy=                    0.057705
 Thermal correction to Enthalpy=                  0.058649
 Thermal correction to Gibbs Free Energy=         0.019906
 Sum of electronic and zero-point Energies=           -190.991827
 Sum of electronic and thermal Energies=              -190.985170
 Sum of electronic and thermal Enthalpies=            -190.984226
 Sum of electronic and thermal Free Energies=         -191.022969

                     E (Thermal)             CV                S
                      KCal/Mol        Cal/Mol-Kelvin    Cal/Mol-Kelvin
 Total                   36.210             21.889             81.542
 Electronic               0.000              0.000              2.755
 Translational            0.889              2.981             38.389
 Rotational               0.889              2.981             24.570
 Vibrational             34.433             15.928             15.829
 Vibration     1          0.594              1.984              5.768
 Vibration     2          0.619              1.901              2.651
 Vibration     3          0.634              1.852              2.215
 Vibration     4          0.695              1.666              1.394
 Vibration     5          0.765              1.473              0.968
 Vibration     6          0.772              1.454              0.936

 Normal termination of Gaussian 09 at Mon Jun 20 12:02:40 2016.
