 Gaussian 09, Revision E.01,
 Gaussian 09:  EM64L-G09RevE.01 30-Nov-2015

 ------------------------------------------------------
 #p b3lyp/6-311++G(3df,2p) freq IOp(2/17=3) IOp(2/18=3)
 ------------------------------------------------------

 ---------
 b3lyp opt
 ---------
 Symbolic Z-matrix:
 Charge =  2 Multiplicity = 3

                         Standard orientation:
 ---------------------------------------------------------------------
 Center     Atomic      Atomic             Coordinates (Angstroms)
 Number     Number       Type             X           Y           Z
 ---------------------------------------------------------------------
      1          6           0       -0.624543   -1.078975    0.000000
      2          6           0        0.804224   -0.625130    0.000000
      3          1           0       -0.896367   -1.653488   -0.903600
      4          1           0       -0.896367   -1.653488    0.903600
      5          6           0       -1.209710    0.331783    0.000000
      6          1           0       -2.245118    0.680125    0.000000
      7          6           0        0.000000    0.989421    0.000000
      8          6           0        1.319708    0.633738    0.000000
      9          1           0        2.299583    1.121752    0.000000
 ---------------------------------------------------------------------

 SCF Done:  E(UB3LYP) =  -191.910540258     A.U. after   15 cycles

 The electronic state is 3-A".
 Alpha  occ. eigenvalues --  -10.80012 -10.79994 -10.75021 -10.74802 -10.69771
 Alpha  occ. eigenvalues --   -1.46457  -1.28600  -1.20090  -1.05414  -1.04671
 Alpha  occ. eigenvalues --   -0.97644  -0.95742  -0.94805  -0.90874  -0.84744
 Alpha  occ. eigenvalues --   -0.76969  -0.76470
 Alpha virt. eigenvalues --   -0.58148  -0.56082  -0.45899  -0.35666  -0.32902
 Alpha virt. eigenvalues --   -0.31364  -0.29245  -0.28514  -0.28126  -0.25948
 Alpha virt. eigenvalues --   -0.25427  -0.23765  -0.22350  -0.21377  -0.21207

  Beta  occ. eigenvalues --  -10.79110 -10.78331 -10.74845 -10.74035 -10.69719
  Beta  occ. eigenvalues --   -1.44364  -1.26848  -1.17419  -1.03970  -1.02040
  Beta  occ. eigenvalues --   -0.96285  -0.93161  -0.91803  -0.89913  -0.83314
  Beta virt. eigenvalues --   -0.64837  -0.64557  -0.51960  -0.51171  -0.42298
  Beta virt. eigenvalues --   -0.34759  -0.32037  -0.30104  -0.28381  -0.28271
  Beta virt. eigenvalues --   -0.27783  -0.25613  -0.24876  -0.23494  -0.21535

 Mulliken charges and spin densities:
               1          2
     1  C   -0.395860  -0.025469
     2  C    0.321457   0.969786
     3  H    0.280860   0.009471
     4  H    0.280860   0.009471
     5  C    0.133240   0.530913
     6  H    0.338666   0.014079
     7  C    0.529891   0.489102
     8  C    0.153258  -0.028187
     9  H    0.357629   0.030833
 Sum of Mulliken charges =   2.00000   2.00000

 Dipole moment (field-independent basis, Debye):
    X=             -0.1848    Y=              0.2382    Z=              0.0000  Tot=              0.3015
 Quadrupole moment (field-independent basis, Debye-Ang):
   XX=             -4.5384   YY=            -12.0702   ZZ=            -23.3208
   XY=              4.0963   XZ=              0.0000   YZ=             -0.0000

  Exact polarizability:  52.329   3.014  45.979  -0.000   0.000  26.404
 Approx polarizability:  95.691  -5.084  96.927   0.000  -0.000  40.030

                      1                      2                      3
                     A'                     A"                     A"
 Frequencies --    336.8904               356.5079               399.4660
 Red. masses --      7.2688                 2.2178                 3.0696
 Frc consts  --      0.4861                 0.1661                 0.2886
 IR Inten    --     38.4644                14.3602                 1.1258

                      4                      5                      6
                     A'                     A"                     A"
 Frequencies --    604.8047               715.4584               789.5149
 Red. masses --      8.0749                 1.2462                 1.2135
 Frc consts  --      1.7403                 0.3759                 0.4457
 IR Inten    --      7.1139                52.3873                 9.2728

                      7                      8                      9
                     A'                     A'                     A"
 Frequencies --    807.1385               841.3103               885.8246
 Red. masses --      3.6554                 3.2890                 1.9665
 Frc consts  --      1.4031                 1.3716                 0.9092
 IR Inten    --      5.8879                 5.1200                 0.5406

                     10                     11                     12
                     A'                     A'                     A"
 Frequencies --    970.1532              1045.0162              1089.2830
 Red. masses --      2.7821                 1.6987                 1.1172
 Frc consts  --      1.5428                 1.0930                 0.7810
 IR Inten    --     14.7902                 7.1224                 0.0342

                     13                     14                     15
                     A'                     A'                     A'
 Frequencies --   1108.5925              1190.7339              1289.9238
 Red. masses --      1.3443                 1.3685                 1.4482
 Frc consts  --      0.9734                 1.1432                 1.4197
 IR Inten    --     33.3166                31.9228                35.2976

                     16                     17                     18
                     A'                     A'                     A'
 Frequencies --   1385.7452              1582.6019              2931.7410
 Red. masses --      2.4446                 7.5837                 1.0547
 Frc consts  --      2.7658                11.1911                 5.3410
 IR Inten    --     35.5265                45.1738               260.6785

                     19                     20                     21
                     A"                     A'                     A'
 Frequencies --   2980.3177              3094.7148              3112.0631
 Red. masses --      1.1066                 1.1123                 1.1008
 Frc consts  --      5.7910                 6.2763                 6.2816
 IR Inten    --    137.3187               419.3345               111.9744

 - Thermochemistry -
 -------------------
 Temperature   298.150 Kelvin.  Pressure   1.00000 Atm.
 Atom     1 has atomic number  6 and mass  12.00000

 Molecular mass:    64.03130 amu.
 Principal axes and moments of inertia in atomic units:
                           1         2         3
     Eigenvalues --   143.47701 249.10564 380.82839
           X            0.90737  -0.42033   0.00000
           Y            0.42033   0.90737   0.00000
           Z            0.00000   0.00000   1.00000
 This molecule is an asymmetric top.
 Rotational symmetry number  1.
 Rotational temperatures (Kelvin)      0.60368     0.34770     0.22744
 Rotational constants (GHZ):          12.57861     7.24488     4.73899
 Zero-point vibrational energy     164593.0 (Joules/Mol)
                                   39.33867 (Kcal/Mol)
 Warning -- explicit consideration of   4 degrees of freedom as
           vibrations may cause significant error
 Vibrational temperatures:    484.71   512.93   574.74   870.18  1029.38
          (Kelvin)           1135.93  1161.29  1210.46  1274.50  1395.83
                             1503.54  1567.23  1595.02  1713.20  1855.91
                             1993.78  2277.01  4218.12  4288.01  4452.60
                             4477.56

 Zero-point correction=                           0.062690 (Hartree/Particle)
 Thermal correction to Energy=                    0.067272
 Thermal correction to Enthalpy=                  0.068216
 Thermal correction to Gibbs Free Energy=         0.035002
 Sum of electronic and zero-point Energies=           -191.847850
 Sum of electronic and thermal Energies=              -191.843269
 Sum of electronic and thermal Enthalpies=            -191.842324
 Sum of electronic and thermal Free Energies=         -191.875538

                     E (Thermal)             CV                S
                      KCal/Mol        Cal/Mol-Kelvin    Cal/Mol-Kelvin
 Total                   42.214             16.665             69.904
 Electronic               0.000              0.000              2.183
 Translational            0.889              2.981             38.389
 Rotational               0.889              2.981             24.124
 Vibrational             40.436             10.704              5.208
 Vibration     1          0.718              1.602              1.227
 Vibration     2          0.732              1.562              1.137
 Vibration     3          0.766              1.471              0.965
 Vibration     4          0.963              1.022              0.441

 Optimization completed.
    -- Stationary point found.
 Normal termination of Gaussian 09 at Thu Jan 31 08:23:15 2019.
