 Gaussian 09, Revision E.01,
 Gaussian 09:  EM64L-G09RevE.01 30-Nov-2015

 ---------------------------------------------
 #p b3lyp/6-311++G(3df,2p) freq symmetry=Loose
 ---------------------------------------------

 ---------
 b3lyp opt
 ---------
 Symbolic Z-matrix:
 Charge =  3 Multiplicity = 4

                         Standard orientation:
 ---------------------------------------------------------------------
 Center     Atomic      Atomic             Coordinates (Angstroms)
 Number     Number       Type             X           Y           Z
 ---------------------------------------------------------------------
      1          6           0       -0.389271    1.030070    0.000996
      2          1           0       -0.384983    1.883903   -0.802788
      3          1           0       -0.387040    1.880935    0.807891
      4          6           0        0.677590   -0.023211    0.000919
      5          6           0        2.071603   -0.029387   -0.001825
      6          6           0       -1.387156   -0.094677   -0.001674
      7          1           0       -2.493901   -0.128224   -0.005846
      8          6           0       -0.377787   -1.118871    0.001132
      9          1           0       -0.303952   -2.220155    0.003453
 ---------------------------------------------------------------------

 SCF Done:  E(UB3LYP) =  -190.978519492     A.U. after   16 cycles

 The electronic state is 4-A.
 Alpha  occ. eigenvalues --  -11.15561 -11.03404 -10.97264 -10.96914 -10.95531
 Alpha  occ. eigenvalues --   -1.64662  -1.53281  -1.40384  -1.30994  -1.23696
 Alpha  occ. eigenvalues --   -1.18020  -1.16471  -1.15756  -1.10565  -1.08598
 Alpha  occ. eigenvalues --   -1.07018  -0.99717
 Alpha virt. eigenvalues --   -0.90421  -0.80431  -0.71440  -0.56873  -0.52707
 Alpha virt. eigenvalues --   -0.51513  -0.50342  -0.49715  -0.46476  -0.45600
 Alpha virt. eigenvalues --   -0.43199  -0.41797  -0.41554  -0.38831  -0.37707

  Beta  occ. eigenvalues --  -11.12208 -11.03013 -10.96540 -10.96438 -10.95153
  Beta  occ. eigenvalues --   -1.62636  -1.48164  -1.37776  -1.28593  -1.21753
  Beta  occ. eigenvalues --   -1.14864  -1.10915  -1.10575  -1.08513
  Beta virt. eigenvalues --   -0.93088  -0.92668  -0.87000  -0.85613  -0.73084
  Beta virt. eigenvalues --   -0.65390  -0.55770  -0.51775  -0.49832  -0.49133
  Beta virt. eigenvalues --   -0.46817  -0.45525  -0.44506  -0.42445  -0.40864

 Mulliken charges and spin densities:
               1          2
     1  C   -0.289436   0.220396
     2  H    0.343183   0.146882
     3  H    0.343405   0.146697
     4  C    0.689222   0.265163
     5  C    0.581576   1.432607
     6  C    0.490175   0.259976
     7  H    0.431687   0.007767
     8  C    0.002037   0.532421
     9  H    0.408151  -0.011911
 Sum of Mulliken charges =   3.00000   3.00000

 Dipole moment (field-independent basis, Debye):
    X=              2.1033    Y=              1.3794    Z=             -0.0016  Tot=              2.5153
 Quadrupole moment (field-independent basis, Debye-Ang):
   XX=             11.2606   YY=             -1.3198   ZZ=            -20.7887
   XY=             -0.7891   XZ=             -0.0034   YZ=              0.0021

  Exact polarizability:  62.567  -2.860  47.131  -0.008   0.003  24.645
 Approx polarizability: 132.022  -7.937  80.863  -0.034   0.001  37.843

                      1                      2                      3
                      A                      A                      A
 Frequencies --     79.6678               300.9658               429.7285
 Red. masses --      2.2575                 5.4654                 2.1912
 Frc consts  --      0.0084                 0.2917                 0.2384
 IR Inten    --      0.0010                 1.4432                58.2676

                      4                      5                      6
                      A                      A                      A
 Frequencies --    551.4229               607.7682               710.9501
 Red. masses --      1.5344                 4.9953                 1.1052
 Frc consts  --      0.2749                 1.0871                 0.3291
 IR Inten    --     44.6306               105.1946                14.5548

                      7                      8                      9
                      A                      A                      A
 Frequencies --    754.0756               805.2747               811.4709
 Red. masses --      4.9604                 1.4388                 3.7590
 Frc consts  --      1.6619                 0.5497                 1.4584
 IR Inten    --     13.7868                10.6493                88.2918

                     10                     11                     12
                      A                      A                      A
 Frequencies --    888.8127               940.8965               973.9471
 Red. masses --      1.2038                 2.0479                 1.6982
 Frc consts  --      0.5603                 1.0682                 0.9491
 IR Inten    --    365.4754                 1.8125                 0.0384

                     13                     14                     15
                      A                      A                      A
 Frequencies --   1033.3677              1100.8448              1136.8124
 Red. masses --      2.3010                 2.1614                 1.5484
 Frc consts  --      1.4477                 1.5432                 1.1790
 IR Inten    --      0.1905                58.7263                41.7474

                     16                     17                     18
                      A                      A                      A
 Frequencies --   1232.8901              1320.7333              2132.8725
 Red. masses --      1.8258                 3.3148                 1.0529
 Frc consts  --      1.6351                 3.4068                 2.8220
 IR Inten    --     89.4655                90.4251               442.6793

                     19                     20                     21
                      A                      A                      A
 Frequencies --   2440.2430              2971.1286              3017.4718
 Red. masses --      1.0986                 1.1015                 1.1112
 Frc consts  --      3.8542                 5.7290                 5.9610
 IR Inten    --    827.4394               430.6019               286.1284

 - Thermochemistry -
 -------------------
 Temperature   298.150 Kelvin.  Pressure   1.00000 Atm.
 Atom     1 has atomic number  6 and mass  12.00000

 Molecular mass:    64.03130 amu.
 Principal axes and moments of inertia in atomic units:
                           1         2         3
     Eigenvalues --   147.40298 326.42516 464.49006
           X            0.99994  -0.01063   0.00011
           Y            0.01063   0.99994   0.00001
           Z           -0.00011  -0.00001   1.00000
 This molecule is an asymmetric top.
 Rotational symmetry number  1.
 Rotational temperatures (Kelvin)      0.58760     0.26534     0.18647
 Rotational constants (GHZ):          12.24359     5.52881     3.88542
 Zero-point vibrational energy     144995.4 (Joules/Mol)
                                   34.65474 (Kcal/Mol)
 Warning -- explicit consideration of   5 degrees of freedom as
           vibrations may cause significant error
 Vibrational temperatures:    114.62   433.02   618.28   793.37   874.44
          (Kelvin)           1022.90  1084.95  1158.61  1167.52  1278.80
                             1353.74  1401.29  1486.78  1583.87  1635.62
                             1773.85  1900.24  3068.72  3510.96  4274.79
                             4341.46

 Zero-point correction=                           0.055226 (Hartree/Particle)
 Thermal correction to Energy=                    0.060478
 Thermal correction to Enthalpy=                  0.061422
 Thermal correction to Gibbs Free Energy=         0.026035
 Sum of electronic and zero-point Energies=           -190.923294
 Sum of electronic and thermal Energies=              -190.918041
 Sum of electronic and thermal Enthalpies=            -190.917097
 Sum of electronic and thermal Free Energies=         -190.952485

                     E (Thermal)             CV                S
                      KCal/Mol        Cal/Mol-Kelvin    Cal/Mol-Kelvin
 Total                   37.951             18.538             74.480
 Electronic               0.000              0.000              2.755
 Translational            0.889              2.981             38.389
 Rotational               0.889              2.981             24.617
 Vibrational             36.173             12.576              8.719
 Vibration     1          0.600              1.963              3.899
 Vibration     2          0.693              1.672              1.412
 Vibration     3          0.791              1.406              0.860
 Vibration     4          0.907              1.137              0.541
 Vibration     5          0.967              1.015              0.436

 Normal termination of Gaussian 09 at Mon Jun 20 12:20:21 2016.
