 Gaussian 09, Revision E.01,
 Gaussian 09:  EM64L-G09RevE.01 30-Nov-2015

 ---------------------------------------------
 #p b3lyp/6-311++G(3df,2p) freq symmetry=Loose
 ---------------------------------------------

 ---------
 b3lyp opt
 ---------
 Symbolic Z-matrix:
 Charge =  2 Multiplicity = 1

                         Standard orientation:
 ---------------------------------------------------------------------
 Center     Atomic      Atomic             Coordinates (Angstroms)
 Number     Number       Type             X           Y           Z
 ---------------------------------------------------------------------
      1          6           0       -0.270822    1.121477    0.000595
      2          1           0       -0.391019    1.790624   -0.871691
      3          1           0       -0.468194    1.768167    0.875991
      4          6           0        1.084763    0.406401   -0.017664
      5          1           0        2.031059    0.764575   -0.439270
      6          6           0        0.787487   -0.908437    0.330730
      7          6           0       -0.285501   -1.166360   -0.329961
      8          6           0       -1.151450   -0.132767    0.016481
      9          1           0       -2.158705   -0.245247    0.433887
 ---------------------------------------------------------------------

 SCF Done:  E(RB3LYP) =  -191.898670180     A.U. after   13 cycles

 The electronic state is 1-A.
 Alpha  occ. eigenvalues --  -10.77711 -10.77708 -10.76799 -10.76678 -10.68969
 Alpha  occ. eigenvalues --   -1.44564  -1.23128  -1.22920  -1.07269  -1.00926
 Alpha  occ. eigenvalues --   -0.99432  -0.93575  -0.90480  -0.88393  -0.83984
 Alpha  occ. eigenvalues --   -0.79440
 Alpha virt. eigenvalues --   -0.62796  -0.61623  -0.54772  -0.49808  -0.32322
 Alpha virt. eigenvalues --   -0.31897  -0.31325  -0.28718  -0.28544  -0.26262
 Alpha virt. eigenvalues --   -0.24712  -0.24509  -0.23245  -0.22847  -0.22207

 Mulliken charges:
               1
     1  C   -0.348855
     2  H    0.277707
     3  H    0.278235
     4  C    0.176518
     5  H    0.325735
     6  C    0.395905
     7  C    0.392702
     8  C    0.175838
     9  H    0.326214
 Sum of Mulliken charges =   2.00000

 Dipole moment (field-independent basis, Debye):
    X=             -0.3043    Y=              1.2472    Z=             -0.0016  Tot=              1.2838
 Quadrupole moment (field-independent basis, Debye-Ang):
   XX=             -7.9474   YY=            -12.6254   ZZ=            -22.4490
   XY=              1.1938   XZ=             -1.7910   YZ=             -0.4274

  Exact polarizability:  46.518  -0.345  47.757   0.821   0.197  28.402
 Approx polarizability:  88.989  -1.115  92.966   9.586   2.283  50.240

                      1                      2                      3
                      A                      A                      A
 Frequencies --     36.1574               443.3546               450.2716
 Red. masses --      2.0363                 4.6562                 2.6775
 Frc consts  --      0.0016                 0.5392                 0.3198
 IR Inten    --     11.2716                 0.0286                17.4693

                      4                      5                      6
                      A                      A                      A
 Frequencies --    718.4796               727.4866               834.2500
 Red. masses --      1.5379                 6.0672                 2.4725
 Frc consts  --      0.4677                 1.8918                 1.0139
 IR Inten    --     15.6162                 9.9634                27.3310

                      7                      8                      9
                      A                      A                      A
 Frequencies --    847.0840               933.3744              1010.9723
 Red. masses --      2.4141                 1.3270                 2.1500
 Frc consts  --      1.0206                 0.6811                 1.2947
 IR Inten    --      3.5372                 0.0292                 1.0708

                     10                     11                     12
                      A                      A                      A
 Frequencies --   1125.9768              1170.2322              1184.1083
 Red. masses --      1.4228                 1.4184                 1.4703
 Frc consts  --      1.0628                 1.1444                 1.2146
 IR Inten    --     58.3759                11.5743                20.5428

                     13                     14                     15
                      A                      A                      A
 Frequencies --   1232.8002              1251.2273              1289.2258
 Red. masses --      2.0245                 1.6333                 2.2688
 Frc consts  --      1.8128                 1.5065                 2.2218
 IR Inten    --      8.4638                60.9796                82.6568

                     16                     17                     18
                      A                      A                      A
 Frequencies --   1368.3445              1644.0165              2932.3082
 Red. masses --      1.5624                10.2574                 1.0613
 Frc consts  --      1.7236                16.3343                 5.3766
 IR Inten    --     40.0108                31.8209               210.2415

                     19                     20                     21
                      A                      A                      A
 Frequencies --   2948.5668              3082.4218              3089.4830
 Red. masses --      1.0982                 1.0941                 1.1003
 Frc consts  --      5.6252                 6.1247                 6.1880
 IR Inten    --    103.7016               294.6958                 7.7968

 - Thermochemistry -
 -------------------
 Temperature   298.150 Kelvin.  Pressure   1.00000 Atm.
 Atom     1 has atomic number  6 and mass  12.00000

 Molecular mass:    64.03130 amu.
 Principal axes and moments of inertia in atomic units:
                           1         2         3
     Eigenvalues --   189.14742 195.98568 353.24970
           X           -0.25300   0.96652  -0.04280
           Y            0.96747   0.25279  -0.01028
           Z           -0.00088   0.04400   0.99903
 This molecule is an asymmetric top.
 Rotational symmetry number  1.
 Rotational temperatures (Kelvin)      0.45792     0.44194     0.24519
 Rotational constants (GHZ):           9.54145     9.20854     5.10897
 Zero-point vibrational energy     169392.1 (Joules/Mol)
                                   40.48567 (Kcal/Mol)
 Warning -- explicit consideration of   3 degrees of freedom as
           vibrations may cause significant error
 Vibrational temperatures:     52.02   637.89   647.84  1033.73  1046.69
          (Kelvin)           1200.30  1218.76  1342.92  1454.56  1620.03
                             1683.70  1703.67  1773.72  1800.23  1854.91
                             1968.74  2365.37  4218.93  4242.32  4434.91
                             4445.07

 Zero-point correction=                           0.064518 (Hartree/Particle)
 Thermal correction to Energy=                    0.069284
 Thermal correction to Enthalpy=                  0.070228
 Thermal correction to Gibbs Free Energy=         0.036521
 Sum of electronic and zero-point Energies=           -191.834152
 Sum of electronic and thermal Energies=              -191.829386
 Sum of electronic and thermal Enthalpies=            -191.828442
 Sum of electronic and thermal Free Energies=         -191.862149

                     E (Thermal)             CV                S
                      KCal/Mol        Cal/Mol-Kelvin    Cal/Mol-Kelvin
 Total                   43.476             15.619             70.943
 Electronic               0.000              0.000              0.000
 Translational            0.889              2.981             38.389
 Rotational               0.889              2.981             24.086
 Vibrational             41.699              9.658              8.468
 Vibration     1          0.594              1.982              5.459
 Vibration     2          0.803              1.376              0.816
 Vibration     3          0.809              1.360              0.795

 Normal termination of Gaussian 09 at Mon Jun 20 08:26:38 2016.
