 Gaussian 09, Revision E.01,
 Gaussian 09:  EM64L-G09RevE.01 30-Nov-2015

 ---------------------------------------------
 #p b3lyp/6-311++G(3df,2p) freq symmetry=Loose
 ---------------------------------------------

 ---------
 b3lyp opt
 ---------
 Symbolic Z-matrix:
 Charge =  3 Multiplicity = 4

                         Standard orientation:
 ---------------------------------------------------------------------
 Center     Atomic      Atomic             Coordinates (Angstroms)
 Number     Number       Type             X           Y           Z
 ---------------------------------------------------------------------
      1          6           0        0.428026   -0.054517    0.268260
      2          6           0       -1.726557   -0.140989   -0.064092
      3          6           0       -0.614846   -1.093070   -0.135774
      4          1           0        0.559833   -0.134516    1.429275
      5          6           0        1.871359    0.020704   -0.148805
      6          1           0        2.389236    0.999317   -0.209043
      7          1           0        2.439908   -0.916216   -0.325695
      8          6           0       -0.727295    0.941125   -0.014140
      9          1           0       -0.773099    2.011904   -0.327218
 ---------------------------------------------------------------------

 SCF Done:  E(UB3LYP) =  -190.973095010     A.U. after   16 cycles

 The electronic state is 4-A.
 Alpha  occ. eigenvalues --  -11.06387 -11.04090 -11.03011 -11.00184 -10.98339
 Alpha  occ. eigenvalues --   -1.67392  -1.48900  -1.38366  -1.34120  -1.22639
 Alpha  occ. eigenvalues --   -1.19521  -1.18186  -1.16718  -1.10901  -1.06058
 Alpha  occ. eigenvalues --   -1.03434  -1.01588
 Alpha virt. eigenvalues --   -0.85446  -0.82780  -0.75815  -0.59733  -0.56158
 Alpha virt. eigenvalues --   -0.54781  -0.50239  -0.48838  -0.47725  -0.46151
 Alpha virt. eigenvalues --   -0.44129  -0.43646  -0.41817  -0.39045  -0.38007

  Beta  occ. eigenvalues --  -11.04223 -11.02466 -11.01258 -11.00019 -10.98062
  Beta  occ. eigenvalues --   -1.63820  -1.46890  -1.34987  -1.31443  -1.18858
  Beta  occ. eigenvalues --   -1.17087  -1.15960  -1.14458  -1.09662
  Beta virt. eigenvalues --   -0.93658  -0.84930  -0.82998  -0.80587  -0.79857
  Beta virt. eigenvalues --   -0.67358  -0.58046  -0.54166  -0.53307  -0.49499
  Beta virt. eigenvalues --   -0.47828  -0.45617  -0.44528  -0.42805  -0.41835

 Mulliken charges and spin densities:
               1          2
     1  C    0.291077  -0.078940
     2  C    0.608837   1.381195
     3  C    0.440419   1.135387
     4  H    0.367206   0.088818
     5  C   -0.050618   0.142687
     6  H    0.345904  -0.000935
     7  H    0.349120   0.002644
     8  C    0.256413   0.300660
     9  H    0.391640   0.028483
 Sum of Mulliken charges =   3.00000   3.00000

 Dipole moment (field-independent basis, Debye):
    X=              2.4674    Y=              1.1521    Z=              0.3765  Tot=              2.7490
 Quadrupole moment (field-independent basis, Debye-Ang):
   XX=             11.9840   YY=             -8.7026   ZZ=            -17.7437
   XY=             -0.9240   XZ=             -0.2775   YZ=             -0.9074

  Exact polarizability:  52.260   0.006  39.731   0.709  -0.254  25.930
 Approx polarizability:  81.562  -0.236  71.354   2.268   0.715  42.147

                      1                      2                      3
                      A                      A                      A
 Frequencies --    236.8729               290.2335               348.9284
 Red. masses --      3.4450                 1.4380                 1.7540
 Frc consts  --      0.1139                 0.0714                 0.1258
 IR Inten    --      1.4727                 1.3680                 0.4148

                      4                      5                      6
                      A                      A                      A
 Frequencies --    395.1071               629.4544               708.8885
 Red. masses --      2.7028                 6.0119                 3.3368
 Frc consts  --      0.2486                 1.4034                 0.9880
 IR Inten    --     17.2777                24.7135                15.6446

                      7                      8                      9
                      A                      A                      A
 Frequencies --    770.0280               808.6261               911.3827
 Red. masses --      1.3523                 1.6149                 1.8423
 Frc consts  --      0.4724                 0.6222                 0.9016
 IR Inten    --     12.0527                17.9551                10.3396

                     10                     11                     12
                      A                      A                      A
 Frequencies --    968.1435              1006.7076              1046.8868
 Red. masses --      1.9668                 1.8245                 1.7568
 Frc consts  --      1.0862                 1.0894                 1.1344
 IR Inten    --     15.4958                 4.2736                36.8866

                     13                     14                     15
                      A                      A                      A
 Frequencies --   1101.9434              1126.2526              1218.8263
 Red. masses --      2.9231                 5.0918                 2.3177
 Frc consts  --      2.0913                 3.8053                 2.0286
 IR Inten    --     86.0877               137.7222                20.6849

                     16                     17                     18
                      A                      A                      A
 Frequencies --   1245.5054              1401.9012              2338.0290
 Red. masses --      1.8960                 1.1023                 1.0721
 Frc consts  --      1.7329                 1.2764                 3.4531
 IR Inten    --     10.1318                15.6121               438.2919

                     19                     20                     21
                      A                      A                      A
 Frequencies --   2886.6200              2903.3244              3021.8030
 Red. masses --      1.0989                 1.0525                 1.1314
 Frc consts  --      5.3951                 5.2272                 6.0871
 IR Inten    --    372.6493               232.3948               199.6493

 - Thermochemistry -
 -------------------
 Temperature   298.150 Kelvin.  Pressure   1.00000 Atm.
 Atom     1 has atomic number  6 and mass  12.00000

 Molecular mass:    64.03130 amu.
 Principal axes and moments of inertia in atomic units:
                           1         2         3
     Eigenvalues --   124.36797 381.89574 479.87333
           X            0.99983  -0.01849  -0.00172
           Y            0.01843   0.99948  -0.02662
           Z            0.00221   0.02658   0.99964
 This molecule is an asymmetric top.
 Rotational symmetry number  1.
 Rotational temperatures (Kelvin)      0.69643     0.22680     0.18049
 Rotational constants (GHZ):          14.51130     4.72574     3.76087
 Zero-point vibrational energy     151719.2 (Joules/Mol)
                                   36.26175 (Kcal/Mol)
 Warning -- explicit consideration of   4 degrees of freedom as
           vibrations may cause significant error
 Vibrational temperatures:    340.81   417.58   502.03   568.47   905.64
          (Kelvin)           1019.93  1107.90  1163.43  1311.27  1392.94
                             1448.43  1506.23  1585.45  1620.42  1753.62
                             1792.00  2017.02  3363.90  4153.20  4177.23
                             4347.70

 Zero-point correction=                           0.057787 (Hartree/Particle)
 Thermal correction to Energy=                    0.062895
 Thermal correction to Enthalpy=                  0.063839
 Thermal correction to Gibbs Free Energy=         0.029164
 Sum of electronic and zero-point Energies=           -190.915308
 Sum of electronic and thermal Energies=              -190.910200
 Sum of electronic and thermal Enthalpies=            -190.909256
 Sum of electronic and thermal Free Energies=         -190.943931

                     E (Thermal)             CV                S
                      KCal/Mol        Cal/Mol-Kelvin    Cal/Mol-Kelvin
 Total                   39.467             18.229             72.979
 Electronic               0.000              0.000              2.755
 Translational            0.889              2.981             38.389
 Rotational               0.889              2.981             24.636
 Vibrational             37.690             12.267              7.198
 Vibration     1          0.656              1.784              1.826
 Vibration     2          0.686              1.692              1.473
 Vibration     3          0.726              1.577              1.171
 Vibration     4          0.762              1.481              0.981

 Optimization completed.
    -- Stationary point found.
 Normal termination of Gaussian 09 at Mon Jun 20 12:37:52 2016.
