 Gaussian 09, Revision E.01,
 Gaussian 09:  EM64L-G09RevE.01 30-Nov-2015

 ---------------------------------------------
 #p b3lyp/6-311++G(3df,2p) freq symmetry=Loose
 ---------------------------------------------

 ---------
 b3lyp opt
 ---------
 Symbolic Z-matrix:
 Charge =  1 Multiplicity = 2

                         Standard orientation:
 ---------------------------------------------------------------------
 Center     Atomic      Atomic             Coordinates (Angstroms)
 Number     Number       Type             X           Y           Z
 ---------------------------------------------------------------------
      1          6           0       -0.227202    0.777809    0.000000
      2          6           0       -0.355908   -0.503621    0.790754
      3          1           0       -1.123913    1.391068    0.000000
      4          6           0        1.045377    1.464912   -0.000000
      5          1           0        1.062676    2.544025    0.000000
      6          1           0        1.974160    0.913548   -0.000000
      7          6           0       -0.355908   -0.503621   -0.790754
      8          6           0       -0.355908   -1.598013   -0.000000
      9          1           0       -0.415628   -2.673441   -0.000000
 ---------------------------------------------------------------------

 SCF Done:  E(UB3LYP) =  -192.473678637     A.U. after   14 cycles

 The electronic state is 2-A".
 Alpha  occ. eigenvalues --  -10.51437 -10.51421 -10.49274 -10.49172 -10.42598
 Alpha  occ. eigenvalues --   -1.24365  -1.02828  -0.90257  -0.80495  -0.79875
 Alpha  occ. eigenvalues --   -0.73730  -0.69658  -0.67283  -0.62799  -0.60199
 Alpha  occ. eigenvalues --   -0.54342  -0.46158
 Alpha virt. eigenvalues --   -0.31707  -0.26495  -0.25823  -0.15141  -0.13269
 Alpha virt. eigenvalues --   -0.12700  -0.11436  -0.10366  -0.08655  -0.07798
 Alpha virt. eigenvalues --   -0.07414  -0.06712  -0.05581  -0.04849  -0.03625

  Beta  occ. eigenvalues --  -10.51199 -10.51182 -10.49258 -10.49208 -10.41359
  Beta  occ. eigenvalues --   -1.24184  -1.01648  -0.88186  -0.79782  -0.79513
  Beta  occ. eigenvalues --   -0.73531  -0.68780  -0.66173  -0.62180  -0.59841
  Beta  occ. eigenvalues --   -0.53307
  Beta virt. eigenvalues --   -0.34136  -0.30220  -0.25431  -0.24036  -0.15080
  Beta virt. eigenvalues --   -0.13232  -0.12473  -0.10992  -0.10288  -0.08559
  Beta virt. eigenvalues --   -0.07665  -0.07030  -0.06523  -0.04868  -0.04807

 Mulliken charges and spin densities:
               1          2
     1  C    0.269827  -0.060932
     2  C    0.091354   0.090947
     3  H    0.260447   0.002248
     4  C   -0.517655   0.891609
     5  H    0.221228  -0.023221
     6  H    0.232090  -0.023938
     7  C    0.091354   0.090947
     8  C    0.032014   0.032244
     9  H    0.319341   0.000095
 Sum of Mulliken charges =   1.00000   1.00000

 Dipole moment (field-independent basis, Debye):
    X=             -0.0968    Y=             -0.6408    Z=              0.0000  Tot=              0.6481
 Quadrupole moment (field-independent basis, Debye-Ang):
   XX=            -22.5226   YY=            -10.9020   ZZ=            -29.1642
   XY=              3.0243   XZ=              0.0000   YZ=              0.0000

  Exact polarizability:  41.928  11.507  61.368  -0.000   0.000  41.432
 Approx polarizability:  62.639  15.727  92.489  -0.000   0.000  91.410

                      1                      2                      3
                     A'                     A"                     A"
 Frequencies --    223.1150               272.6425               396.1508
 Red. masses --      3.1704                 1.1008                 4.1375
 Frc consts  --      0.0930                 0.0482                 0.3826
 IR Inten    --     10.6903                 0.0052                11.5003

                      4                      5                      6
                     A"                     A'                     A"
 Frequencies --    486.1601               584.2730               768.6577
 Red. masses --      4.5944                 4.3507                 1.4315
 Frc consts  --      0.6398                 0.8751                 0.4983
 IR Inten    --     45.8133                10.8495                43.2836

                      7                      8                      9
                     A'                     A'                     A'
 Frequencies --    782.7004               847.1107               943.7401
 Red. masses --      4.4683                 1.2396                 2.5573
 Frc consts  --      1.6128                 0.5241                 1.3419
 IR Inten    --     16.9801                14.8485                16.0046

                     10                     11                     12
                     A"                     A"                     A'
 Frequencies --   1048.7559              1093.9644              1128.7075
 Red. masses --      1.2561                 1.2409                 2.1398
 Frc consts  --      0.8140                 0.8750                 1.6062
 IR Inten    --      3.0140                10.7274                18.3339

                     13                     14                     15
                     A'                     A"                     A'
 Frequencies --   1159.2766              1165.5624              1376.5829
 Red. masses --      2.9628                 5.7330                 1.4502
 Frc consts  --      2.3460                 4.5888                 1.6191
 IR Inten    --     20.7729                 2.3366                 6.8626

                     16                     17                     18
                     A'                     A'                     A'
 Frequencies --   1474.1056              1629.4795              3141.4210
 Red. masses --      1.1516                 6.5584                 1.0896
 Frc consts  --      1.4743                10.2599                 6.3354
 IR Inten    --     16.0376                27.1560                24.0742

                     19                     20                     21
                     A'                     A'                     A'
 Frequencies --   3158.5908              3280.4222              3285.4139
 Red. masses --      1.0504                 1.1234                 1.1224
 Frc consts  --      6.1744                 7.1230                 7.1381
 IR Inten    --     22.9780                18.7643                83.1010

 - Thermochemistry -
 -------------------
 Temperature   298.150 Kelvin.  Pressure   1.00000 Atm.
 Atom     1 has atomic number  6 and mass  12.00000

 Molecular mass:    64.03130 amu.
 Principal axes and moments of inertia in atomic units:
                           1         2         3
     Eigenvalues --    94.82411 396.24128 408.59925
           X            0.38797   0.00000   0.92167
           Y            0.92167   0.00000  -0.38797
           Z           -0.00000   1.00000  -0.00000
 This molecule is an asymmetric top.
 Rotational symmetry number  1.
 Rotational temperatures (Kelvin)      0.91342     0.21859     0.21198
 Rotational constants (GHZ):          19.03251     4.55465     4.41690
 Zero-point vibrational energy     168953.6 (Joules/Mol)
                                   40.38087 (Kcal/Mol)
 Warning -- explicit consideration of   5 degrees of freedom as
           vibrations may cause significant error
 Vibrational temperatures:    321.01   392.27   569.97   699.48   840.64
          (Kelvin)           1105.93  1126.13  1218.80  1357.83  1508.92
                             1573.97  1623.96  1667.94  1676.98  1980.59
                             2120.91  2344.45  4519.80  4544.50  4719.79
                             4726.97

 Zero-point correction=                           0.064351 (Hartree/Particle)
 Thermal correction to Energy=                    0.069298
 Thermal correction to Enthalpy=                  0.070242
 Thermal correction to Gibbs Free Energy=         0.036626
 Sum of electronic and zero-point Energies=           -192.409328
 Sum of electronic and thermal Energies=              -192.404381
 Sum of electronic and thermal Enthalpies=            -192.403437
 Sum of electronic and thermal Free Energies=         -192.437052

                     E (Thermal)             CV                S
                      KCal/Mol        Cal/Mol-Kelvin    Cal/Mol-Kelvin
 Total                   43.485             17.292             70.750
 Electronic               0.000              0.000              1.377
 Translational            0.889              2.981             38.389
 Rotational               0.889              2.981             24.244
 Vibrational             41.708             11.331              6.739
 Vibration     1          0.649              1.806              1.934
 Vibration     2          0.676              1.724              1.579
 Vibration     3          0.763              1.478              0.977
 Vibration     4          0.842              1.281              0.694
 Vibration     5          0.941              1.065              0.478

 Optimization completed.
    -- Stationary point found.
 Normal termination of Gaussian 09 at Wed Jul 20 05:50:39 2016.
