 Gaussian 09, Revision E.01,
 Gaussian 09:  EM64L-G09RevE.01 30-Nov-2015

 ---------------------------------------------
 #p b3lyp/6-311++G(3df,2p) freq symmetry=Loose
 ---------------------------------------------

 ---------
 b3lyp opt
 ---------
 Symbolic Z-matrix:
 Charge =  2 Multiplicity = 1

                         Standard orientation:
 ---------------------------------------------------------------------
 Center     Atomic      Atomic             Coordinates (Angstroms)
 Number     Number       Type             X           Y           Z
 ---------------------------------------------------------------------
      1          6           0        2.183558    0.067315   -0.000033
      2          1           0        2.619766    1.081319   -0.000872
      3          1           0        2.581113   -0.571854   -0.850159
      4          1           0        2.580202   -0.569320    0.852579
      5          6           0       -1.778189   -0.784891    0.000087
      6          6           0        0.831312   -0.019840   -0.000260
      7          6           0       -0.483696   -0.113444   -0.000138
      8          6           0       -1.709159    0.588955    0.000060
      9          1           0       -2.044037    1.631282    0.000155
 ---------------------------------------------------------------------

 SCF Done:  E(RB3LYP) =  -191.894491105     A.U. after   15 cycles

 The electronic state is 1-A.
 Alpha  occ. eigenvalues --  -10.79602 -10.74425 -10.74271 -10.72609 -10.66044
 Alpha  occ. eigenvalues --   -1.41826  -1.30131  -1.19592  -1.04508  -0.96856
 Alpha  occ. eigenvalues --   -0.93397  -0.90399  -0.90171  -0.84938  -0.84739
 Alpha  occ. eigenvalues --   -0.72135
 Alpha virt. eigenvalues --   -0.65000  -0.58064  -0.47155  -0.43004  -0.34440
 Alpha virt. eigenvalues --   -0.31663  -0.29523  -0.27751  -0.27416  -0.26488
 Alpha virt. eigenvalues --   -0.25369  -0.25280  -0.23708  -0.22301  -0.20983

 Mulliken charges:
               1
     1  C   -0.053166
     2  H    0.278335
     3  H    0.303954
     4  H    0.304032
     5  C    0.145408
     6  C    0.378335
     7  C    0.145975
     8  C    0.136096
     9  H    0.361032
 Sum of Mulliken charges =   2.00000

 Dipole moment (field-independent basis, Debye):
    X=              2.8956    Y=              2.0835    Z=              0.0019  Tot=              3.5673
 Quadrupole moment (field-independent basis, Debye-Ang):
   XX=             13.7721   YY=            -19.2387   ZZ=            -22.3922
   XY=             -6.0292   XZ=              0.0047   YZ=             -0.0000

  Exact polarizability: 104.689   4.447  37.920   0.003   0.001  29.778
 Approx polarizability: 276.688  28.540  66.776  -0.003  -0.004  46.321

                      1                      2                      3
                      A                      A                      A
 Frequencies --     70.1845               170.9576               201.5107
 Red. masses --      1.1741                 3.4785                 3.8575
 Frc consts  --      0.0034                 0.0599                 0.0923
 IR Inten    --     45.4945                 8.5751                 0.3483

                      4                      5                      6
                      A                      A                      A
 Frequencies --    401.8614               411.4174               666.0958
 Red. masses --      3.4334                 1.8238                 5.2326
 Frc consts  --      0.3267                 0.1819                 1.3679
 IR Inten    --      2.5348                10.2259                 1.1806

                      7                      8                      9
                      A                      A                      A
 Frequencies --    732.0018               773.2470               890.4968
 Red. masses --      3.8201                 2.4672                 1.9912
 Frc consts  --      1.2060                 0.8692                 0.9303
 IR Inten    --     21.6883                70.7439               131.0311

                     10                     11                     12
                      A                      A                      A
 Frequencies --    891.5093               966.4922              1043.3707
 Red. masses --      1.5264                 1.2050                 1.1826
 Frc consts  --      0.7148                 0.6632                 0.7585
 IR Inten    --      1.3029                10.1757               164.7140

                     13                     14                     15
                      A                      A                      A
 Frequencies --   1152.1726              1185.9767              1330.5487
 Red. masses --      1.0512                 2.8730                 1.4149
 Frc consts  --      0.8222                 2.3808                 1.4758
 IR Inten    --     56.4547                36.9910                46.2634

                     16                     17                     18
                      A                      A                      A
 Frequencies --   1437.1375              1817.8253              2642.0738
 Red. masses --      6.8514                11.1817                 1.0717
 Frc consts  --      8.3373                21.7703                 4.4077
 IR Inten    --      9.0958               771.9152               267.1118

                     19                     20                     21
                      A                      A                      A
 Frequencies --   2694.4072              2960.8843              3116.8740
 Red. masses --      1.0539                 1.0871                 1.1172
 Frc consts  --      4.5079                 5.6152                 6.3947
 IR Inten    --    984.6318               221.8806               228.2834

 - Thermochemistry -
 -------------------
 Temperature   298.150 Kelvin.  Pressure   1.00000 Atm.
 Atom     1 has atomic number  6 and mass  12.00000

 Molecular mass:    64.03130 amu.
 Principal axes and moments of inertia in atomic units:
                           1         2         3
     Eigenvalues --    62.97937 595.98358 648.52825
           X            0.99976  -0.02199   0.00002
           Y            0.02199   0.99976   0.00000
           Z           -0.00002  -0.00000   1.00000
 This molecule is an asymmetric top.
 Rotational symmetry number  1.
 Rotational temperatures (Kelvin)      1.37527     0.14533     0.13355
 Rotational constants (GHZ):          28.65607     3.02817     2.78283
 Zero-point vibrational energy     152865.1 (Joules/Mol)
                                   36.53563 (Kcal/Mol)
 Warning -- explicit consideration of   5 degrees of freedom as
           vibrations may cause significant error
 Vibrational temperatures:    100.98   245.97   289.93   578.19   591.94
          (Kelvin)            958.36  1053.19  1112.53  1281.22  1282.68
                             1390.56  1501.18  1657.72  1706.35  1914.36
                             2067.72  2615.44  3801.35  3876.65  4260.05
                             4484.48

 Zero-point correction=                           0.058223 (Hartree/Particle)
 Thermal correction to Energy=                    0.064175
 Thermal correction to Enthalpy=                  0.065120
 Thermal correction to Gibbs Free Energy=         0.029427
 Sum of electronic and zero-point Energies=           -191.836268
 Sum of electronic and thermal Energies=              -191.830316
 Sum of electronic and thermal Enthalpies=            -191.829371
 Sum of electronic and thermal Free Energies=         -191.865064

                     E (Thermal)             CV                S
                      KCal/Mol        Cal/Mol-Kelvin    Cal/Mol-Kelvin
 Total                   40.271             19.396             75.122
 Electronic               0.000              0.000              0.000
 Translational            0.889              2.981             38.389
 Rotational               0.889              2.981             24.702
 Vibrational             38.493             13.434             12.031
 Vibration     1          0.598              1.968              4.148
 Vibration     2          0.626              1.878              2.425
 Vibration     3          0.638              1.838              2.119
 Vibration     4          0.767              1.466              0.956
 Vibration     5          0.775              1.445              0.922

 Normal termination of Gaussian 09 at Mon Jun 20 07:51:12 2016.
