 Gaussian 09, Revision E.01,
 Gaussian 09:  EM64L-G09RevE.01 30-Nov-2015

 ---------------------------------------------
 #p b3lyp/6-311++G(3df,2p) freq symmetry=Loose
 ---------------------------------------------

 ---------
 b3lyp opt
 ---------
 Symbolic Z-matrix:
 Charge =  3 Multiplicity = 2

                         Standard orientation:
 ---------------------------------------------------------------------
 Center     Atomic      Atomic             Coordinates (Angstroms)
 Number     Number       Type             X           Y           Z
 ---------------------------------------------------------------------
      1          6           0       -0.851911   -0.146971    0.318528
      2          6           0        1.931775   -0.432640   -0.051343
      3          1           0       -1.161534   -0.495684    1.388136
      4          1           0        2.544497   -0.409338   -0.987603
      5          1           0        2.380947   -0.871338    0.870964
      6          6           0       -1.986450   -0.768740   -0.369064
      7          6           0        0.600135    0.107498   -0.061765
      8          6           0       -0.242833    1.162412   -0.027459
      9          1           0       -0.468211    2.247012   -0.124883
 ---------------------------------------------------------------------

 SCF Done:  E(UB3LYP) =  -191.028414002     A.U. after   21 cycles

 The electronic state is 2-A.
 Alpha  occ. eigenvalues --  -11.09525 -10.99578 -10.99467 -10.98695 -10.96724
 Alpha  occ. eigenvalues --   -1.65599  -1.48022  -1.43968  -1.25735  -1.22390
 Alpha  occ. eigenvalues --   -1.19914  -1.13784  -1.13446  -1.08228  -1.04770
 Alpha  occ. eigenvalues --   -0.99799
 Alpha virt. eigenvalues --   -0.85079  -0.82797  -0.81680  -0.72691  -0.55381
 Alpha virt. eigenvalues --   -0.53397  -0.51385  -0.49273  -0.48108  -0.45175
 Alpha virt. eigenvalues --   -0.43933  -0.43288  -0.42737  -0.40184  -0.38979

  Beta  occ. eigenvalues --  -11.08979 -10.99507 -10.98913 -10.98333 -10.96645
  Beta  occ. eigenvalues --   -1.64277  -1.46735  -1.42875  -1.24925  -1.21270
  Beta  occ. eigenvalues --   -1.18777  -1.12898  -1.12133  -1.07430  -1.02422
  Beta virt. eigenvalues --   -0.89818  -0.84423  -0.82103  -0.79815  -0.69528
  Beta virt. eigenvalues --   -0.54317  -0.52861  -0.50575  -0.48575  -0.47599
  Beta virt. eigenvalues --   -0.44757  -0.43391  -0.43064  -0.42337  -0.39633

 Mulliken charges and spin densities:
               1          2
     1  C    0.107461  -0.011491
     2  C    0.061142   0.042359
     3  H    0.345766   0.090162
     4  H    0.366831   0.017122
     5  H    0.367592   0.013125
     6  C    0.366037   0.293572
     7  C    0.532263   0.356952
     8  C    0.420413   0.202151
     9  H    0.432496  -0.003952
 Sum of Mulliken charges =   3.00000   1.00000

 Dipole moment (field-independent basis, Debye):
    X=              1.3627    Y=             -0.7445    Z=              0.4973  Tot=              1.6305
 Quadrupole moment (field-independent basis, Debye-Ang):
   XX=             18.8316   YY=             -8.2298   ZZ=            -16.2520
   XY=             -1.9953   XZ=             -1.3160   YZ=             -1.3077

  Exact polarizability:  77.746   5.785  41.489   1.243   0.374  30.300
 Approx polarizability: 150.550  25.449  79.082   9.525   5.667  51.029

                      1                      2                      3
                      A                      A                      A
 Frequencies --    148.2695               182.1898               298.3106
 Red. masses --      2.2681                 1.4758                 2.2797
 Frc consts  --      0.0294                 0.0289                 0.1195
 IR Inten    --      7.6628                24.1570                12.8516

                      4                      5                      6
                      A                      A                      A
 Frequencies --    315.7577               387.2007               550.2935
 Red. masses --      3.7159                 3.9719                 4.8848
 Frc consts  --      0.2183                 0.3509                 0.8715
 IR Inten    --     12.1239                11.4291                20.0932

                      7                      8                      9
                      A                      A                      A
 Frequencies --    605.8505               789.5897               828.8488
 Red. masses --      1.4812                 1.6774                 1.6989
 Frc consts  --      0.3203                 0.6162                 0.6877
 IR Inten    --     32.2051                28.6493                15.4761

                     10                     11                     12
                      A                      A                      A
 Frequencies --    865.6658               907.6148               931.1705
 Red. masses --      2.5965                 2.6433                 1.5931
 Frc consts  --      1.1464                 1.2829                 0.8139
 IR Inten    --      9.3069                42.4191                42.1062

                     13                     14                     15
                      A                      A                      A
 Frequencies --    988.5685              1035.8305              1162.7181
 Red. masses --      1.7083                 2.2091                 1.4369
 Frc consts  --      0.9836                 1.3965                 1.1445
 IR Inten    --     30.9755               385.3197                16.4202

                     16                     17                     18
                      A                      A                      A
 Frequencies --   1333.5350              1514.2326              2378.7234
 Red. masses --      1.1221                 5.9865                 1.0731
 Frc consts  --      1.1756                 8.0873                 3.5773
 IR Inten    --     61.8928               192.0702               547.6899

                     19                     20                     21
                      A                      A                      A
 Frequencies --   2805.9246              2920.5955              2943.3904
 Red. masses --      1.0470                 1.1222                 1.1266
 Frc consts  --      4.8570                 5.6397                 5.7509
 IR Inten    --    622.4122               301.7750               373.4135

 - Thermochemistry -
 -------------------
 Temperature   298.150 Kelvin.  Pressure   1.00000 Atm.
 Atom     1 has atomic number  6 and mass  12.00000

 Molecular mass:    64.03130 amu.
 Principal axes and moments of inertia in atomic units:
                           1         2         3
     Eigenvalues --   138.06662 450.78097 542.20715
           X            0.99902  -0.04148  -0.01544
           Y            0.04069   0.99799  -0.04860
           Z            0.01743   0.04792   0.99870
 This molecule is an asymmetric top.
 Rotational symmetry number  1.
 Rotational temperatures (Kelvin)      0.62733     0.19214     0.15974
 Rotational constants (GHZ):          13.07152     4.00359     3.32851
 Zero-point vibrational energy     142919.5 (Joules/Mol)
                                   34.15859 (Kcal/Mol)
 Warning -- explicit consideration of   7 degrees of freedom as
           vibrations may cause significant error
 Vibrational temperatures:    213.33   262.13   429.20   454.30   557.09
          (Kelvin)            791.75   871.68  1136.04  1192.53  1245.50
                             1305.85  1339.74  1422.33  1490.33  1672.89
                             1918.66  2178.64  3422.45  4037.09  4202.08
                             4234.88

 Zero-point correction=                           0.054435 (Hartree/Particle)
 Thermal correction to Energy=                    0.060413
 Thermal correction to Enthalpy=                  0.061357
 Thermal correction to Gibbs Free Energy=         0.025424
 Sum of electronic and zero-point Energies=           -190.973979
 Sum of electronic and thermal Energies=              -190.968001
 Sum of electronic and thermal Enthalpies=            -190.967057
 Sum of electronic and thermal Free Energies=         -191.002990

                     E (Thermal)             CV                S
                      KCal/Mol        Cal/Mol-Kelvin    Cal/Mol-Kelvin
 Total                   37.910             20.644             75.628
 Electronic               0.000              0.000              1.377
 Translational            0.889              2.981             38.389
 Rotational               0.889              2.981             25.026
 Vibrational             36.132             14.682             10.835
 Vibration     1          0.618              1.905              2.694
 Vibration     2          0.630              1.864              2.306
 Vibration     3          0.691              1.677              1.426
 Vibration     4          0.703              1.644              1.332
 Vibration     5          0.756              1.498              1.011
 Vibration     6          0.906              1.139              0.544
 Vibration     7          0.964              1.019              0.440

 Optimization completed.
    -- Stationary point found.
 Normal termination of Gaussian 09 at Mon Jun 20 10:49:40 2016.
