 Gaussian 09, Revision E.01,
 Gaussian 09:  EM64L-G09RevE.01 30-Nov-2015

 ---------------------------------------------
 #p b3lyp/6-311++G(3df,2p) freq symmetry=Loose
 ---------------------------------------------

 ---------
 b3lyp opt
 ---------
 Symbolic Z-matrix:
 Charge =  1 Multiplicity = 4

                         Standard orientation:
 ---------------------------------------------------------------------
 Center     Atomic      Atomic             Coordinates (Angstroms)
 Number     Number       Type             X           Y           Z
 ---------------------------------------------------------------------
      1          6           0       -0.004611    1.042278    0.008756
      2          6           0        0.910195   -0.039968   -0.474674
      3          6           0       -0.918113   -0.078886    0.481880
      4          1           0        0.357742    1.646993    0.832365
      5          1           0       -0.411491    1.639958   -0.800960
      6          1           0        0.793924   -0.382459   -1.505547
      7          1           0       -0.856050   -0.433578    1.513003
      8          6           0        1.826445   -0.669546    0.316141
      9          6           0       -1.794603   -0.665698   -0.338580
 ---------------------------------------------------------------------

 SCF Done:  E(UB3LYP) =  -192.285332905     A.U. after   24 cycles

 The electronic state is 4-A.
 Alpha  occ. eigenvalues --  -10.51597 -10.49987 -10.49606 -10.45476 -10.44916
 Alpha  occ. eigenvalues --   -1.11879  -1.02649  -0.94046  -0.81110  -0.76764
 Alpha  occ. eigenvalues --   -0.71362  -0.69019  -0.64755  -0.61899  -0.58395
 Alpha  occ. eigenvalues --   -0.53330  -0.51505  -0.47842
 Alpha virt. eigenvalues --   -0.34458  -0.28120  -0.22007  -0.14861  -0.14521
 Alpha virt. eigenvalues --   -0.12750  -0.11134  -0.09963  -0.08268  -0.07860
 Alpha virt. eigenvalues --   -0.07238  -0.05996  -0.05601  -0.03949  -0.03175

  Beta  occ. eigenvalues --  -10.49421 -10.49271 -10.47527 -10.45266 -10.44726
  Beta  occ. eigenvalues --   -1.10208  -0.99045  -0.90897  -0.79192  -0.74379
  Beta  occ. eigenvalues --   -0.70127  -0.66962  -0.62988  -0.54411  -0.52441
  Beta virt. eigenvalues --   -0.40787  -0.39859  -0.33773  -0.28331  -0.22338
  Beta virt. eigenvalues --   -0.19267  -0.14637  -0.14034  -0.12425  -0.10679
  Beta virt. eigenvalues --   -0.09409  -0.07827  -0.07244  -0.06905  -0.05417

 Mulliken charges and spin densities:
               1          2
     1  C    0.040544   0.098547
     2  C    0.190243  -0.091802
     3  C    0.350432   0.102544
     4  H    0.210213   0.003991
     5  H    0.220250   0.005910
     6  H    0.229719   0.056747
     7  H    0.233160   0.000671
     8  C   -0.079624   2.477746
     9  C   -0.394938   0.345646
 Sum of Mulliken charges =   1.00000   3.00000

 Dipole moment (field-independent basis, Debye):
    X=              1.5387    Y=              0.7175    Z=              0.9187  Tot=              1.9303
 Quadrupole moment (field-independent basis, Debye-Ang):
   XX=            -22.1647   YY=            -24.0335   ZZ=            -22.6692
   XY=             -1.7606   XZ=             -2.1395   YZ=             -1.5357

  Exact polarizability:  81.211   0.340  44.437   1.793  -0.517  43.193
 Approx polarizability: 148.097   3.553  66.956   7.422  -2.715  68.943

                      1                      2                      3
                      A                      A                      A
 Frequencies --    130.5513               200.2477               232.0912
 Red. masses --      7.4565                 5.3109                 3.7080
 Frc consts  --      0.0749                 0.1255                 0.1177
 IR Inten    --      7.7230                11.4937                 1.5549

                      4                      5                      6
                      A                      A                      A
 Frequencies --    314.9510               466.3651               744.1059
 Red. masses --      3.5331                 3.3786                 1.3437
 Frc consts  --      0.2065                 0.4330                 0.4383
 IR Inten    --      1.7917                 0.4691                19.7151

                      7                      8                      9
                      A                      A                      A
 Frequencies --    846.3278               851.8606               907.8745
 Red. masses --      1.4564                 3.9568                 1.1895
 Frc consts  --      0.6146                 1.6917                 0.5777
 IR Inten    --     16.7297                 6.1303                 6.2535

                     10                     11                     12
                      A                      A                      A
 Frequencies --   1007.3403              1057.3131              1140.3572
 Red. masses --      1.7249                 2.3743                 1.2068
 Frc consts  --      1.0313                 1.5639                 0.9246
 IR Inten    --      2.6442                19.0162                 5.4258

                     13                     14                     15
                      A                      A                      A
 Frequencies --   1211.1840              1269.1544              1358.0732
 Red. masses --      1.3052                 1.2834                 3.4148
 Frc consts  --      1.1281                 1.2180                 3.7107
 IR Inten    --      9.9217                11.2325               116.9626

                     16                     17                     18
                      A                      A                      A
 Frequencies --   1478.9707              1543.7528              3069.3848
 Red. masses --      1.1290                 5.3293                 1.0863
 Frc consts  --      1.4550                 7.4830                 6.0297
 IR Inten    --     12.0371               199.4804                22.7585

                     19                     20                     21
                      A                      A                      A
 Frequencies --   3094.0964              3108.1154              3187.7805
 Red. masses --      1.0863                 1.0567                 1.1148
 Frc consts  --      6.1271                 6.0146                 6.6748
 IR Inten    --     60.4882                 9.7477                17.2677

 - Thermochemistry -
 -------------------
 Temperature   298.150 Kelvin.  Pressure   1.00000 Atm.
 Atom     1 has atomic number  6 and mass  12.00000

 Molecular mass:    64.03130 amu.
 Principal axes and moments of inertia in atomic units:
                           1         2         3
     Eigenvalues --   155.26131 408.56774 464.10415
           X            0.99977  -0.00035  -0.02138
           Y            0.00032   1.00000  -0.00133
           Z            0.02138   0.00132   0.99977
 This molecule is an asymmetric top.
 Rotational symmetry number  1.
 Rotational temperatures (Kelvin)      0.55786     0.21199     0.18663
 Rotational constants (GHZ):          11.62389     4.41724     3.88866
 Zero-point vibrational energy     162811.1 (Joules/Mol)
                                   38.91280 (Kcal/Mol)
 Warning -- explicit consideration of   5 degrees of freedom as
           vibrations may cause significant error
 Vibrational temperatures:    187.83   288.11   333.93   453.14   670.99
          (Kelvin)           1070.60  1217.68  1225.64  1306.23  1449.34
                             1521.24  1640.72  1742.62  1826.03  1953.96
                             2127.91  2221.11  4416.15  4451.71  4471.88
                             4586.50

 Zero-point correction=                           0.062011 (Hartree/Particle)
 Thermal correction to Energy=                    0.067659
 Thermal correction to Enthalpy=                  0.068603
 Thermal correction to Gibbs Free Energy=         0.032437
 Sum of electronic and zero-point Energies=           -192.223321
 Sum of electronic and thermal Energies=              -192.217674
 Sum of electronic and thermal Enthalpies=            -192.216730
 Sum of electronic and thermal Free Energies=         -192.252896

                     E (Thermal)             CV                S
                      KCal/Mol        Cal/Mol-Kelvin    Cal/Mol-Kelvin
 Total                   42.457             18.433             76.118
 Electronic               0.000              0.000              2.755
 Translational            0.889              2.981             38.389
 Rotational               0.889              2.981             24.891
 Vibrational             40.679             12.471             10.083
 Vibration     1          0.612              1.923              2.938
 Vibration     2          0.638              1.840              2.131
 Vibration     3          0.653              1.792              1.863
 Vibration     4          0.702              1.645              1.336
 Vibration     5          0.824              1.325              0.748

 Optimization completed.
    -- Stationary point found.
 Normal termination of Gaussian 09 at Mon Jun 20 06:28:53 2016.
