 Gaussian 09, Revision E.01,
 Gaussian 09:  EM64L-G09RevE.01 30-Nov-2015

 ---------------------------------------------
 #p b3lyp/6-311++G(3df,2p) freq symmetry=Loose
 ---------------------------------------------

 ---------
 b3lyp opt
 ---------
 Symbolic Z-matrix:
 Charge =  3 Multiplicity = 4

                         Standard orientation:
 ---------------------------------------------------------------------
 Center     Atomic      Atomic             Coordinates (Angstroms)
 Number     Number       Type             X           Y           Z
 ---------------------------------------------------------------------
      1          6           0       -0.076663   -0.620529    0.931552
      2          6           0       -0.076663    0.579651   -0.000000
      3          6           0       -0.076663   -0.620529   -0.931552
      4          6           0       -0.587523   -1.624556   -0.000000
      5          1           0       -1.129010    1.077147   -0.000000
      6          1           0       -1.086685   -2.622734   -0.000000
      7          6           0        0.816806    1.790897    0.000000
      8          1           0        1.109969    2.257990   -0.963834
      9          1           0        1.109969    2.257990    0.963834
 ---------------------------------------------------------------------

 SCF Done:  E(UB3LYP) =  -190.977390148     A.U. after   18 cycles

 The electronic state is 4-A".
 Alpha  occ. eigenvalues --  -11.05488 -11.05487 -11.01766 -11.00268 -10.98407
 Alpha  occ. eigenvalues --   -1.68959  -1.49234  -1.36028  -1.34862  -1.24847
 Alpha  occ. eigenvalues --   -1.18906  -1.17465  -1.15154  -1.10541  -1.09737
 Alpha  occ. eigenvalues --   -1.05526  -0.97738
 Alpha virt. eigenvalues --   -0.82792  -0.81368  -0.77016  -0.58502  -0.54000
 Alpha virt. eigenvalues --   -0.52666  -0.51891  -0.49601  -0.48034  -0.46222
 Alpha virt. eigenvalues --   -0.43675  -0.42332  -0.41887  -0.38105  -0.37695

  Beta  occ. eigenvalues --  -11.03022 -11.03022 -11.01087 -11.00137 -10.98277
  Beta  occ. eigenvalues --   -1.65422  -1.47835  -1.34582  -1.27977  -1.22971
  Beta  occ. eigenvalues --   -1.16131  -1.15667  -1.13850  -1.09419
  Beta virt. eigenvalues --   -0.93895  -0.89612  -0.82092  -0.78204  -0.72879
  Beta virt. eigenvalues --   -0.69886  -0.56257  -0.52276  -0.51519  -0.50066
  Beta virt. eigenvalues --   -0.47127  -0.46649  -0.45034  -0.43235  -0.41430

 Mulliken charges and spin densities:
               1          2
     1  C    0.360394   1.337946
     2  C    0.359433  -0.207750
     3  C    0.360394   1.337946
     4  C    0.479126   0.293791
     5  H    0.369296   0.085351
     6  H    0.457615  -0.001572
     7  C   -0.093030   0.152585
     8  H    0.353385   0.000851
     9  H    0.353385   0.000851
 Sum of Mulliken charges =   3.00000   3.00000

 Dipole moment (field-independent basis, Debye):
    X=             -0.2317    Y=              1.5007    Z=             -0.0000  Tot=              1.5185
 Quadrupole moment (field-independent basis, Debye-Ang):
   XX=            -12.7226   YY=             18.0873   ZZ=            -14.5977
   XY=             14.2613   XZ=              0.0000   YZ=              0.0000

  Exact polarizability:  28.899   9.484  53.341   0.000   0.000  34.838
 Approx polarizability:  44.478  11.708  78.872   0.000   0.000  69.419

                      1                      2                      3
                     A'                     A"                     A"
 Frequencies --    265.7487               278.0360               327.8963
 Red. masses --      3.0834                 1.4304                 1.7800
 Frc consts  --      0.1283                 0.0651                 0.1128
 IR Inten    --     20.4806                 3.3241                 3.7906

                      4                      5                      6
                     A'                     A"                     A'
 Frequencies --    523.0616               646.4549               664.3562
 Red. masses --      2.9121                 2.7386                 4.7020
 Frc consts  --      0.4694                 0.6743                 1.2228
 IR Inten    --      5.6376                14.4414                17.0404

                      7                      8                      9
                     A"                     A'                     A'
 Frequencies --    796.0537               802.1315               871.4450
 Red. masses --      1.5460                 2.4154                 1.6599
 Frc consts  --      0.5772                 0.9156                 0.7427
 IR Inten    --     25.7049                 5.7890                20.6446

                     10                     11                     12
                     A"                     A'                     A"
 Frequencies --    907.5354               982.4975              1002.6492
 Red. masses --      2.1100                 1.7980                 1.3227
 Frc consts  --      1.0239                 1.0226                 0.7834
 IR Inten    --      0.0056                 8.7569                 7.1387

                     13                     14                     15
                     A"                     A'                     A'
 Frequencies --   1102.4528              1114.3627              1219.7180
 Red. masses --      2.1146                 5.6807                 2.0295
 Frc consts  --      1.5143                 4.1563                 1.7789
 IR Inten    --     48.0362               214.6171                24.7931

                     16                     17                     18
                     A'                     A'                     A'
 Frequencies --   1265.6458              1393.8078              2392.7069
 Red. masses --      2.9360                 1.1071                 1.0732
 Frc consts  --      2.7709                 1.2672                 3.6199
 IR Inten    --      2.7267                20.0542               478.5232

                     19                     20                     21
                     A'                     A'                     A"
 Frequencies --   2889.8725              2899.0000              3011.3281
 Red. masses --      1.0659                 1.0928                 1.1315
 Frc consts  --      5.2446                 5.4110                 6.0451
 IR Inten    --    650.9041               131.4646               208.9077

 - Thermochemistry -
 -------------------
 Temperature   298.150 Kelvin.  Pressure   1.00000 Atm.
 Atom     1 has atomic number  6 and mass  12.00000

 Molecular mass:    64.03130 amu.
 Principal axes and moments of inertia in atomic units:
                           1         2         3
     Eigenvalues --    94.77027 424.92893 492.28088
           X            0.34798  -0.00000   0.93750
           Y            0.93750  -0.00000  -0.34798
           Z            0.00000   1.00000   0.00000
 This molecule is an asymmetric top.
 Rotational symmetry number  1.
 Rotational temperatures (Kelvin)      0.91393     0.20383     0.17594
 Rotational constants (GHZ):          19.04333     4.24716     3.66608
 Zero-point vibrational energy     151667.1 (Joules/Mol)
                                   36.24931 (Kcal/Mol)
 Warning -- explicit consideration of   4 degrees of freedom as
           vibrations may cause significant error
 Vibrational temperatures:    382.35   400.03   471.77   752.57   930.10
          (Kelvin)            955.86  1145.34  1154.09  1253.81  1305.74
                             1413.59  1442.59  1586.18  1603.32  1754.90
                             1820.98  2005.38  3442.57  4157.88  4171.01
                             4332.62

 Zero-point correction=                           0.057767 (Hartree/Particle)
 Thermal correction to Energy=                    0.062801
 Thermal correction to Enthalpy=                  0.063745
 Thermal correction to Gibbs Free Energy=         0.029287
 Sum of electronic and zero-point Energies=           -190.919623
 Sum of electronic and thermal Energies=              -190.914589
 Sum of electronic and thermal Enthalpies=            -190.913645
 Sum of electronic and thermal Free Energies=         -190.948103

                     E (Thermal)             CV                S
                      KCal/Mol        Cal/Mol-Kelvin    Cal/Mol-Kelvin
 Total                   39.408             18.185             72.522
 Electronic               0.000              0.000              2.755
 Translational            0.889              2.981             38.389
 Rotational               0.889              2.981             24.498
 Vibrational             37.631             12.224              6.880
 Vibration     1          0.672              1.736              1.624
 Vibration     2          0.679              1.714              1.546
 Vibration     3          0.711              1.620              1.270
 Vibration     4          0.878              1.199              0.603

 Optimization completed.
    -- Stationary point found.
 Normal termination of Gaussian 09 at Wed Jul 20 15:30:47 2016.
