 Gaussian 09, Revision E.01,
 Gaussian 09:  EM64L-G09RevE.01 30-Nov-2015

 ---------------------------------------------
 #p b3lyp/6-311++G(3df,2p) freq symmetry=Loose
 ---------------------------------------------

 ---------
 b3lyp opt
 ---------
 Symbolic Z-matrix:
 Charge =  0 Multiplicity = 3

                         Standard orientation:
 ---------------------------------------------------------------------
 Center     Atomic      Atomic             Coordinates (Angstroms)
 Number     Number       Type             X           Y           Z
 ---------------------------------------------------------------------
      1          6           0        1.570962   -0.263701    0.000320
      2          6           0       -1.790238    0.006749    0.000078
      3          1           0       -2.421798   -0.870905    0.000084
      4          1           0       -2.269566    0.975209    0.000225
      5          6           0       -0.469928   -0.106092   -0.000086
      6          6           0        0.554335   -1.140589   -0.000225
      7          6           0        0.680640    0.962749   -0.000155
      8          1           0        0.708150    1.570226    0.904078
      9          1           0        0.708592    1.570773   -0.903982
 ---------------------------------------------------------------------

 SCF Done:  E(UB3LYP) =  -192.738476998     A.U. after   17 cycles

 The electronic state is 3-A.
 Alpha  occ. eigenvalues --  -10.23160 -10.22200 -10.22134 -10.21703 -10.17976
 Alpha  occ. eigenvalues --   -0.91400  -0.75811  -0.68469  -0.58411  -0.48170
 Alpha  occ. eigenvalues --   -0.47303  -0.47199  -0.46118  -0.38302  -0.32910
 Alpha  occ. eigenvalues --   -0.29604  -0.26023  -0.25717
 Alpha virt. eigenvalues --   -0.04785  -0.00561   0.01369   0.01500   0.02606
 Alpha virt. eigenvalues --    0.04510   0.04853   0.04934   0.06253   0.08532
 Alpha virt. eigenvalues --    0.08745   0.09344   0.10041   0.12023   0.12596

  Beta  occ. eigenvalues --  -10.21772 -10.21528 -10.21325 -10.20654 -10.17973
  Beta  occ. eigenvalues --   -0.88906  -0.75018  -0.66600  -0.56229  -0.46837
  Beta  occ. eigenvalues --   -0.46802  -0.44747  -0.43311  -0.36212  -0.32150
  Beta  occ. eigenvalues --   -0.24719
  Beta virt. eigenvalues --   -0.14429  -0.09815  -0.03417  -0.00416   0.01529
  Beta virt. eigenvalues --    0.02040   0.02866   0.05209   0.05303   0.05544
  Beta virt. eigenvalues --    0.06523   0.08855   0.09131   0.09604   0.10330

 Mulliken charges and spin densities:
               1          2
     1  C    0.093343   0.920904
     2  C   -0.596030   0.030561
     3  H    0.169274   0.011034
     4  H    0.171681   0.003528
     5  C    0.674674   0.099863
     6  C   -0.237343   0.829486
     7  C   -0.615012   0.092414
     8  H    0.169730   0.006128
     9  H    0.169682   0.006082
 Sum of Mulliken charges =  -0.00000   2.00000

 Dipole moment (field-independent basis, Debye):
    X=             -0.8211    Y=              1.5600    Z=              0.0001  Tot=              1.7629
 Quadrupole moment (field-independent basis, Debye-Ang):
   XX=            -29.9980   YY=            -29.1302   ZZ=            -31.5173
   XY=              1.4166   XZ=             -0.0010   YZ=             -0.0010

  Exact polarizability:  81.267  -0.873  56.738   0.007   0.005  43.304
 Approx polarizability: 137.186   1.394  86.747   0.015   0.011  61.135

                      1                      2                      3
                      A                      A                      A
 Frequencies --    214.2288               351.3686               478.2068
 Red. masses --      4.5354                 2.5147                 2.5692
 Frc consts  --      0.1226                 0.1829                 0.3462
 IR Inten    --      0.0004                 0.9026                13.4214

                      4                      5                      6
                      A                      A                      A
 Frequencies --    677.8708               706.3791               776.0965
 Red. masses --      5.1969                 1.1112                 5.3894
 Frc consts  --      1.4070                 0.3267                 1.9126
 IR Inten    --      4.7758                 0.7566                 0.1761

                      7                      8                      9
                      A                      A                      A
 Frequencies --    886.9216               929.5622               950.3869
 Red. masses --      1.3000                 1.6185                 3.1207
 Frc consts  --      0.6025                 0.8240                 1.6608
 IR Inten    --     49.4947                 6.8361                 0.0180

                     10                     11                     12
                      A                      A                      A
 Frequencies --    988.2269              1053.4931              1080.0245
 Red. masses --      4.9644                 1.0933                 1.6146
 Frc consts  --      2.8565                 0.7149                 1.1096
 IR Inten    --      0.9507                 0.8557                15.7277

                     13                     14                     15
                      A                      A                      A
 Frequencies --   1189.6873              1435.9583              1456.4102
 Red. masses --      1.7667                 1.1578                 1.1561
 Frc consts  --      1.4733                 1.4065                 1.4449
 IR Inten    --      6.6466                 0.0315                 0.5845

                     16                     17                     18
                      A                      A                      A
 Frequencies --   1556.8029              1707.6708              3043.7286
 Red. masses --      7.6194                 7.1345                 1.0519
 Frc consts  --     10.8802                12.2580                 5.7418
 IR Inten    --      2.3278                44.0320                15.3167

                     19                     20                     21
                      A                      A                      A
 Frequencies --   3109.7512              3143.9771              3230.2362
 Red. masses --      1.1111                 1.0581                 1.1169
 Frc consts  --      6.3307                 6.1620                 6.8662
 IR Inten    --      4.7464                 1.1191                 2.8133

 - Thermochemistry -
 -------------------
 Temperature   298.150 Kelvin.  Pressure   1.00000 Atm.
 Atom     1 has atomic number  6 and mass  12.00000

 Molecular mass:    64.03130 amu.
 Principal axes and moments of inertia in atomic units:
                           1         2         3
     Eigenvalues --   127.91061 334.36786 450.51301
           X            0.99944   0.03359  -0.00001
           Y           -0.03359   0.99944  -0.00001
           Z            0.00001   0.00001   1.00000
 This molecule is an asymmetric top.
 Rotational symmetry number  1.
 Rotational temperatures (Kelvin)      0.67714     0.25904     0.19226
 Rotational constants (GHZ):          14.10939     5.39747     4.00597
 Zero-point vibrational energy     173261.1 (Joules/Mol)
                                   41.41039 (Kcal/Mol)
 Warning -- explicit consideration of   3 degrees of freedom as
           vibrations may cause significant error
 Vibrational temperatures:    308.23   505.54   688.03   975.30  1016.32
          (Kelvin)           1116.63  1276.08  1337.43  1367.39  1421.84
                             1515.74  1553.91  1711.69  2066.02  2095.45
                             2239.89  2456.95  4379.24  4474.23  4523.48
                             4647.58

 Zero-point correction=                           0.065992 (Hartree/Particle)
 Thermal correction to Energy=                    0.070562
 Thermal correction to Enthalpy=                  0.071506
 Thermal correction to Gibbs Free Energy=         0.038010
 Sum of electronic and zero-point Energies=           -192.672485
 Sum of electronic and thermal Energies=              -192.667915
 Sum of electronic and thermal Enthalpies=            -192.666971
 Sum of electronic and thermal Free Energies=         -192.700467

                     E (Thermal)             CV                S
                      KCal/Mol        Cal/Mol-Kelvin    Cal/Mol-Kelvin
 Total                   44.278             15.946             70.497
 Electronic               0.000              0.000              2.183
 Translational            0.889              2.981             38.389
 Rotational               0.889              2.981             24.470
 Vibrational             42.501              9.984              5.455
 Vibration     1          0.644              1.819              2.007
 Vibration     2          0.728              1.572              1.160
 Vibration     3          0.835              1.298              0.715

 Optimization completed.
    -- Stationary point found.
 Normal termination of Gaussian 09 at Mon Jun 20 02:30:24 2016.
