 Gaussian 09, Revision E.01,
 Gaussian 09:  EM64L-G09RevE.01 30-Nov-2015

 ---------------------------------------------
 #p b3lyp/6-311++G(3df,2p) freq symmetry=Loose
 ---------------------------------------------

 ---------
 b3lyp opt
 ---------
 Symbolic Z-matrix:
 Charge =  0 Multiplicity = 1

                         Standard orientation:
 ---------------------------------------------------------------------
 Center     Atomic      Atomic             Coordinates (Angstroms)
 Number     Number       Type             X           Y           Z
 ---------------------------------------------------------------------
      1          6           0       -0.000000    0.000000   -2.506789
      2          1           0       -0.000000    1.019228   -2.897861
      3          1           0       -0.882677   -0.509614   -2.897861
      4          1           0        0.882677   -0.509614   -2.897861
      5          6           0       -0.000000    0.000000   -1.056324
      6          6           0        0.000000   -0.000000    0.150539
      7          6           0        0.000000   -0.000000    1.513096
      8          6           0        0.000000   -0.000000    2.718433
      9          1           0        0.000000   -0.000000    3.779852
 ---------------------------------------------------------------------

 SCF Done:  E(RB3LYP) =  -192.882440429     A.U. after   12 cycles

 The electronic state is 1-A1.
 Alpha  occ. eigenvalues --  -10.20320 -10.19478 -10.19447 -10.18710 -10.18209
 Alpha  occ. eigenvalues --   -0.81153  -0.77527  -0.71924  -0.61566  -0.52450
 Alpha  occ. eigenvalues --   -0.47855  -0.44817  -0.44817  -0.35008  -0.35008
 Alpha  occ. eigenvalues --   -0.25607  -0.25607
 Alpha virt. eigenvalues --   -0.02605  -0.02605  -0.01141   0.00755   0.03047
 Alpha virt. eigenvalues --    0.03047   0.03875   0.06539   0.07047   0.07047
 Alpha virt. eigenvalues --    0.08651   0.08651   0.09672   0.09672   0.10628

 Mulliken charges:
               1
     1  C   -0.572238
     2  H    0.157294
     3  H    0.157294
     4  H    0.157294
     5  C    0.778317
     6  C   -0.889955
     7  C   -0.541208
     8  C    0.439583
     9  H    0.313620
 Sum of Mulliken charges =  -0.00000

 Dipole moment (field-independent basis, Debye):
    X=              0.0000    Y=              0.0000    Z=             -1.3555  Tot=              1.3555
 Quadrupole moment (field-independent basis, Debye-Ang):
   XX=            -30.8239   YY=            -30.8239   ZZ=            -18.0984
   XY=              0.0000   XZ=             -0.0000   YZ=             -0.0000

  Exact polarizability:  39.379  -0.000  39.380   0.000  -0.001 119.032
 Approx polarizability:  54.812  -0.000  54.812   0.000   0.000 213.053

                      1                      2                      3
                      E                      E                      E
 Frequencies --    146.4037               146.4045               341.9392
 Red. masses --      3.5997                 3.5997                 4.1768
 Frc consts  --      0.0455                 0.0455                 0.2877
 IR Inten    --      7.3395                 7.3387                 0.0433

                      4                      5                      6
                      E                      E                      E
 Frequencies --    341.9533               555.5310               555.5379
 Red. masses --      4.1768                 7.6439                 7.6439
 Frc consts  --      0.2878                 1.3899                 1.3899
 IR Inten    --      0.0431                 1.2871                 1.2863

                      7                      8                      9
                      E                      E                     A1
 Frequencies --    649.4932               649.4932               680.0884
 Red. masses --      1.2897                 1.2897                 4.8439
 Frc consts  --      0.3205                 0.3205                 1.3200
 IR Inten    --     45.8820                45.8820                 0.1257

                     10                     11                     12
                      E                      E                     A1
 Frequencies --   1048.0530              1048.0547              1180.0384
 Red. masses --      1.4056                 1.4056                 5.8759
 Frc consts  --      0.9096                 0.9096                 4.8208
 IR Inten    --      1.1885                 1.1890                 1.7699

                     13                     14                     15
                     A1                      E                      E
 Frequencies --   1415.5284              1474.1963              1474.1964
 Red. masses --      1.2517                 1.0387                 1.0387
 Frc consts  --      1.4777                 1.3300                 1.3300
 IR Inten    --      3.2449                 8.7513                 8.7532

                     16                     17                     18
                     A1                     A1                     A1
 Frequencies --   2162.5678              2342.3538              3018.8873
 Red. masses --      6.6025                10.8557                 1.0338
 Frc consts  --     18.1928                35.0923                 5.5514
 IR Inten    --      7.0925                35.4504                21.2284

                     19                     20                     21
                      E                      E                     A1
 Frequencies --   3075.9462              3075.9468              3464.7102
 Red. masses --      1.1007                 1.1007                 1.1542
 Frc consts  --      6.1356                 6.1356                 8.1630
 IR Inten    --      4.9827                 4.9802               109.3996

 - Thermochemistry -
 -------------------
 Temperature   298.150 Kelvin.  Pressure   1.00000 Atm.
 Atom     1 has atomic number  6 and mass  12.00000

 Molecular mass:    64.03130 amu.
 Principal axes and moments of inertia in atomic units:
                           1         2         3
     Eigenvalues --    11.21622 879.23191 879.23191
           X            0.00000   0.98625  -0.16528
           Y            0.00000   0.16528   0.98625
           Z            1.00000   0.00000  -0.00000
 This molecule is a prolate symmetric top.
 Rotational symmetry number  3.
 Rotational temperatures (Kelvin)      7.72219     0.09851     0.09851
 Rotational constants (GHZ):         160.90463     2.05263     2.05263
 Zero-point vibrational energy     172545.3 (Joules/Mol)
                                   41.23932 (Kcal/Mol)
 Warning -- explicit consideration of   6 degrees of freedom as
           vibrations may cause significant error
 Vibrational temperatures:    210.64   210.64   491.97   491.99   799.28
          (Kelvin)            799.29   934.47   934.47   978.49  1507.91
                             1507.92  1697.81  2036.63  2121.04  2121.04
                             3111.45  3370.12  4343.50  4425.60  4425.60
                             4984.94

 Zero-point correction=                           0.065719 (Hartree/Particle)
 Thermal correction to Energy=                    0.071452
 Thermal correction to Enthalpy=                  0.072396
 Thermal correction to Gibbs Free Energy=         0.039085
 Sum of electronic and zero-point Energies=           -192.816721
 Sum of electronic and thermal Energies=              -192.810989
 Sum of electronic and thermal Enthalpies=            -192.810045
 Sum of electronic and thermal Free Energies=         -192.843355

                     E (Thermal)             CV                S
                      KCal/Mol        Cal/Mol-Kelvin    Cal/Mol-Kelvin
 Total                   44.837             19.086             70.108
 Electronic               0.000              0.000              0.000
 Translational            0.889              2.981             38.389
 Rotational               0.889              2.981             21.493
 Vibrational             43.059             13.125             10.226
 Vibration     1          0.617              1.907              2.718
 Vibration     2          0.617              1.907              2.718
 Vibration     3          0.721              1.592              1.203
 Vibration     4          0.721              1.592              1.203
 Vibration     5          0.911              1.128              0.533
 Vibration     6          0.911              1.128              0.533

 Optimization completed.
    -- Stationary point found.
 Normal termination of Gaussian 09 at Tue Jul 19 21:53:19 2016.
