 Gaussian 09, Revision E.01,
 Gaussian 09:  EM64L-G09RevE.01 30-Nov-2015

 ---------------------------------------------
 #p b3lyp/6-311++G(3df,2p) freq symmetry=Loose
 ---------------------------------------------

 ---------
 b3lyp opt
 ---------
 Symbolic Z-matrix:
 Charge =  3 Multiplicity = 2

                         Standard orientation:
 ---------------------------------------------------------------------
 Center     Atomic      Atomic             Coordinates (Angstroms)
 Number     Number       Type             X           Y           Z
 ---------------------------------------------------------------------
      1          6           0       -0.226388   -0.483685    0.985449
      2          1           0       -0.690419   -0.491785    1.994132
      3          6           0       -0.226388   -0.483685   -0.985449
      4          1           0       -0.690419   -0.491785   -1.994132
      5          6           0        0.000000    0.587195   -0.000000
      6          6           0        0.304710    1.909958    0.000000
      7          1           0        0.608853    2.997402    0.000000
      8          6           0        0.175252   -1.453068    0.000000
      9          1           0        0.608874   -2.474126    0.000000
 ---------------------------------------------------------------------

 SCF Done:  E(UB3LYP) =  -191.154309329     A.U. after   14 cycles

 The electronic state is 2-A'.
 Alpha  occ. eigenvalues --  -11.08380 -11.00574 -11.00082 -11.00082 -10.97536
 Alpha  occ. eigenvalues --   -1.67715  -1.52636  -1.37472  -1.33352  -1.24937
 Alpha  occ. eigenvalues --   -1.22539  -1.15953  -1.13565  -1.12225  -1.10540
 Alpha  occ. eigenvalues --   -1.01633
 Alpha virt. eigenvalues --   -0.87952  -0.80511  -0.78053  -0.68296  -0.57015
 Alpha virt. eigenvalues --   -0.51997  -0.50496  -0.50476  -0.48572  -0.46164
 Alpha virt. eigenvalues --   -0.45587  -0.42349  -0.42038  -0.41073  -0.39284

  Beta  occ. eigenvalues --  -11.07154 -11.00595 -10.99974 -10.99973 -10.97223
  Beta  occ. eigenvalues --   -1.67113  -1.49907  -1.37128  -1.32149  -1.23922
  Beta  occ. eigenvalues --   -1.22276  -1.15726  -1.13133  -1.10304  -1.09518
  Beta virt. eigenvalues --   -0.90115  -0.86405  -0.79442  -0.73920  -0.66006
  Beta virt. eigenvalues --   -0.55906  -0.51511  -0.50152  -0.50145  -0.48334
  Beta virt. eigenvalues --   -0.46058  -0.45260  -0.42308  -0.41646  -0.40628

 Mulliken charges and spin densities:
               1          2
     1  C    0.239169   0.087269
     2  H    0.397490  -0.002564
     3  C    0.239169   0.087269
     4  H    0.397490  -0.002564
     5  C    0.240221   0.039173
     6  C    0.462782   0.601429
     7  H    0.524502  -0.016534
     8  C    0.113845   0.200911
     9  H    0.385331   0.005610
 Sum of Mulliken charges =   3.00000   1.00000

 Dipole moment (field-independent basis, Debye):
    X=              0.5045    Y=              2.9481    Z=             -0.0000  Tot=              2.9909
 Quadrupole moment (field-independent basis, Debye-Ang):
   XX=            -19.6461   YY=             19.5969   ZZ=             -6.7757
   XY=              4.0023   XZ=             -0.0000   YZ=             -0.0000

  Exact polarizability:  23.637   2.860  61.161   0.000   0.000  37.483
 Approx polarizability:  35.616   5.778 112.391   0.000  -0.000  66.119

                      1                      2                      3
                     A'                     A"                     A'
 Frequencies --    224.6600               293.5134               409.0861
 Red. masses --      2.4766                 2.5389                 2.2081
 Frc consts  --      0.0736                 0.1289                 0.2177
 IR Inten    --     10.0997                19.5618                41.0074

                      4                      5                      6
                     A'                     A'                     A"
 Frequencies --    514.7536               623.8827               800.0825
 Red. masses --      1.3577                 3.8934                 2.1717
 Frc consts  --      0.2120                 0.8929                 0.8191
 IR Inten    --     24.5480                 7.4132                38.9312

                      7                      8                      9
                     A'                     A'                     A"
 Frequencies --    852.0323               938.0647               948.9766
 Red. masses --      2.3290                 1.6034                 1.3237
 Frc consts  --      0.9962                 0.8313                 0.7024
 IR Inten    --     33.0383                30.5976                 6.9399

                     10                     11                     12
                     A'                     A"                     A"
 Frequencies --    985.3484              1002.3879              1064.1841
 Red. masses --      1.6881                 1.5716                 2.0854
 Frc consts  --      0.9657                 0.9304                 1.3915
 IR Inten    --      7.1897                 0.3642                 0.3548

                     13                     14                     15
                     A'                     A"                     A"
 Frequencies --   1118.9533              1151.4703              1245.6159
 Red. masses --      1.8838                 1.2707                 3.1393
 Frc consts  --      1.3897                 0.9926                 2.8698
 IR Inten    --     15.3012                 1.9422               149.9035

                     16                     17                     18
                     A'                     A'                     A'
 Frequencies --   1275.2406              1374.7624              2800.6352
 Red. masses --      3.7129                 5.4606                 1.1218
 Frc consts  --      3.5576                 6.0806                 5.1844
 IR Inten    --     36.2747               345.5980               740.1504

                     19                     20                     21
                     A'                     A"                     A'
 Frequencies --   2942.9192              2952.1389              2976.0186
 Red. masses --      1.0992                 1.1087                 1.1220
 Frc consts  --      5.6089                 5.6929                 5.8547
 IR Inten    --    241.4752               538.3433               222.0078

 - Thermochemistry -
 -------------------
 Temperature   298.150 Kelvin.  Pressure   1.00000 Atm.
 Atom     1 has atomic number  6 and mass  12.00000

 Molecular mass:    64.03130 amu.
 Principal axes and moments of inertia in atomic units:
                           1         2         3
     Eigenvalues --   125.38998 353.51080 451.82642
           X            0.08299   0.00000   0.99655
           Y            0.99655   0.00000  -0.08299
           Z            0.00000   1.00000   0.00000
 This molecule is an asymmetric top.
 Rotational symmetry number  1.
 Rotational temperatures (Kelvin)      0.69076     0.24501     0.19170
 Rotational constants (GHZ):          14.39303     5.10519     3.99432
 Zero-point vibrational energy     158473.7 (Joules/Mol)
                                   37.87611 (Kcal/Mol)
 Warning -- explicit consideration of   4 degrees of freedom as
           vibrations may cause significant error
 Vibrational temperatures:    323.24   422.30   588.58   740.61   897.63
          (Kelvin)           1151.14  1225.88  1349.66  1365.36  1417.69
                             1442.21  1531.12  1609.92  1656.71  1792.16
                             1834.78  1977.97  4029.48  4234.20  4247.46
                             4281.82

 Zero-point correction=                           0.060359 (Hartree/Particle)
 Thermal correction to Energy=                    0.065222
 Thermal correction to Enthalpy=                  0.066166
 Thermal correction to Gibbs Free Energy=         0.032584
 Sum of electronic and zero-point Energies=           -191.093950
 Sum of electronic and thermal Energies=              -191.089088
 Sum of electronic and thermal Enthalpies=            -191.088144
 Sum of electronic and thermal Free Energies=         -191.121726

                     E (Thermal)             CV                S
                      KCal/Mol        Cal/Mol-Kelvin    Cal/Mol-Kelvin
 Total                   40.927             17.244             70.680
 Electronic               0.000              0.000              1.377
 Translational            0.889              2.981             38.389
 Rotational               0.889              2.981             24.508
 Vibrational             39.150             11.282              6.405
 Vibration     1          0.649              1.803              1.921
 Vibration     2          0.688              1.686              1.454
 Vibration     3          0.773              1.450              0.930
 Vibration     4          0.870              1.217              0.622

 Optimization completed.
    -- Stationary point found.
 Normal termination of Gaussian 09 at Wed Jul 20 06:17:54 2016.
