 Gaussian 09, Revision E.01,
 Gaussian 09:  EM64L-G09RevE.01 30-Nov-2015

 ---------------------------------------------
 #p b3lyp/6-311++G(3df,2p) freq symmetry=Loose
 ---------------------------------------------

 ---------
 b3lyp opt
 ---------
 Symbolic Z-matrix:
 Charge =  1 Multiplicity = 4

                         Standard orientation:
 ---------------------------------------------------------------------
 Center     Atomic      Atomic             Coordinates (Angstroms)
 Number     Number       Type             X           Y           Z
 ---------------------------------------------------------------------
      1          6           0        0.670872   -0.086628    0.318885
      2          6           0       -0.505280    0.971215    0.022149
      3          1           0        1.110625   -0.102218    1.343406
      4          1           0       -0.320172    1.544756   -0.888961
      5          1           0       -0.796494    1.627366    0.844373
      6          6           0        1.975437    0.007067   -0.366610
      7          6           0       -1.390210   -0.237262   -0.167556
      8          6           0       -0.339782   -1.106512    0.022215
      9          1           0       -2.460183   -0.357189   -0.273315
 ---------------------------------------------------------------------

 SCF Done:  E(UB3LYP) =  -192.312522959     A.U. after   21 cycles

 The electronic state is 4-A.
 Alpha  occ. eigenvalues --  -10.51612 -10.49157 -10.47999 -10.46834 -10.44025
 Alpha  occ. eigenvalues --   -1.15809  -1.00123  -0.91038  -0.84051  -0.75693
 Alpha  occ. eigenvalues --   -0.70039  -0.68665  -0.66692  -0.62970  -0.57153
 Alpha  occ. eigenvalues --   -0.53015  -0.51809  -0.45688
 Alpha virt. eigenvalues --   -0.34569  -0.27890  -0.15944  -0.14515  -0.13153
 Alpha virt. eigenvalues --   -0.12222  -0.09877  -0.09303  -0.08012  -0.07574
 Alpha virt. eigenvalues --   -0.07233  -0.06863  -0.05881  -0.03559  -0.03085

  Beta  occ. eigenvalues --  -10.49556 -10.47339 -10.47110 -10.46645 -10.43699
  Beta  occ. eigenvalues --   -1.13200  -0.96921  -0.88655  -0.81252  -0.73902
  Beta  occ. eigenvalues --   -0.66259  -0.65889  -0.64425  -0.61794  -0.50894
  Beta virt. eigenvalues --   -0.42733  -0.34803  -0.32081  -0.29288  -0.22985
  Beta virt. eigenvalues --   -0.15558  -0.14082  -0.12656  -0.11322  -0.09373
  Beta virt. eigenvalues --   -0.09036  -0.07380  -0.06825  -0.06665  -0.06159

 Mulliken charges and spin densities:
               1          2
     1  C    0.531883  -0.098651
     2  C   -0.477486   0.110225
     3  H    0.232650   0.022741
     4  H    0.233976   0.027141
     5  H    0.204335   0.027509
     6  C   -0.201168   1.316225
     7  C    0.259068   0.319840
     8  C   -0.069090   1.280997
     9  H    0.285831  -0.006026
 Sum of Mulliken charges =   1.00000   3.00000

 Dipole moment (field-independent basis, Debye):
    X=             -1.5332    Y=              0.6743    Z=              0.8029  Tot=              1.8575
 Quadrupole moment (field-independent basis, Debye-Ang):
   XX=            -18.3282   YY=            -24.8618   ZZ=            -24.1646
   XY=             -0.3335   XZ=              2.3768   YZ=             -0.0893

  Exact polarizability: 110.146   5.742  48.548  -5.588  -0.928  37.689
 Approx polarizability: 224.288  18.271  78.304 -15.984  -4.125  61.476

                      1                      2                      3
                      A                      A                      A
 Frequencies --    190.7509               291.8803               421.0843
 Red. masses --      4.0489                 3.3673                 3.6308
 Frc consts  --      0.0868                 0.1690                 0.3793
 IR Inten    --      1.8115                 2.1416                 3.5812

                      4                      5                      6
                      A                      A                      A
 Frequencies --    647.4738               726.7863               765.2268
 Red. masses --      4.6849                 1.3332                 2.8051
 Frc consts  --      1.1572                 0.4149                 0.9678
 IR Inten    --     33.6331                 9.9216                 2.8578

                      7                      8                      9
                      A                      A                      A
 Frequencies --    850.8998               897.9128               931.5138
 Red. masses --      1.3734                 1.8525                 4.3737
 Frc consts  --      0.5859                 0.8800                 2.2360
 IR Inten    --     14.6447                30.5464                43.4803

                     10                     11                     12
                      A                      A                      A
 Frequencies --    958.2358              1014.9911              1105.7242
 Red. masses --      1.2258                 1.8271                 1.2480
 Frc consts  --      0.6632                 1.1090                 0.8990
 IR Inten    --     30.3473                60.2176                 1.4953

                     13                     14                     15
                      A                      A                      A
 Frequencies --   1116.6054              1178.3055              1211.7396
 Red. masses --      4.5246                 1.3839                 1.8556
 Frc consts  --      3.3238                 1.1320                 1.6053
 IR Inten    --     76.0590                 7.3874                10.9427

                     16                     17                     18
                      A                      A                      A
 Frequencies --   1349.7340              1428.0677              2874.4342
 Red. masses --      3.8754                 1.2089                 1.0785
 Frc consts  --      4.1597                 1.4526                 5.2502
 IR Inten    --    379.4786                55.2215                90.6193

                     19                     20                     21
                      A                      A                      A
 Frequencies --   3028.5450              3100.8712              3216.3259
 Red. masses --      1.0534                 1.1100                 1.0987
 Frc consts  --      5.6928                 6.2883                 6.6965
 IR Inten    --     26.0457                 8.4399                24.0998

 - Thermochemistry -
 -------------------
 Temperature   298.150 Kelvin.  Pressure   1.00000 Atm.
 Atom     1 has atomic number  6 and mass  12.00000

 Molecular mass:    64.03130 amu.
 Principal axes and moments of inertia in atomic units:
                           1         2         3
     Eigenvalues --   137.10565 337.32162 427.73057
           X            0.99958  -0.01996   0.02120
           Y            0.01998   0.99980  -0.00077
           Z           -0.02118   0.00119   0.99977
 This molecule is an asymmetric top.
 Rotational symmetry number  1.
 Rotational temperatures (Kelvin)      0.63173     0.25677     0.20250
 Rotational constants (GHZ):          13.16314     5.35021     4.21934
 Zero-point vibrational energy     163332.8 (Joules/Mol)
                                   39.03747 (Kcal/Mol)
 Warning -- explicit consideration of   3 degrees of freedom as
           vibrations may cause significant error
 Vibrational temperatures:    274.45   419.95   605.85   931.57  1045.68
          (Kelvin)           1100.99  1224.25  1291.89  1340.24  1378.69
                             1460.34  1590.89  1606.54  1695.32  1743.42
                             1941.96  2054.67  4135.66  4357.40  4461.46
                             4627.57

 Zero-point correction=                           0.062210 (Hartree/Particle)
 Thermal correction to Energy=                    0.067008
 Thermal correction to Enthalpy=                  0.067952
 Thermal correction to Gibbs Free Energy=         0.033755
 Sum of electronic and zero-point Energies=           -192.250313
 Sum of electronic and thermal Energies=              -192.245515
 Sum of electronic and thermal Enthalpies=            -192.244571
 Sum of electronic and thermal Free Energies=         -192.278768

                     E (Thermal)             CV                S
                      KCal/Mol        Cal/Mol-Kelvin    Cal/Mol-Kelvin
 Total                   42.048             16.848             71.974
 Electronic               0.000              0.000              2.755
 Translational            0.889              2.981             38.389
 Rotational               0.889              2.981             24.496
 Vibrational             40.271             10.886              6.334
 Vibration     1          0.634              1.853              2.221
 Vibration     2          0.687              1.689              1.463
 Vibration     3          0.784              1.424              0.888

 Optimization completed.
    -- Stationary point found.
 Normal termination of Gaussian 09 at Mon Jun 20 07:24:17 2016.
