 Gaussian 09, Revision E.01,
 Gaussian 09:  EM64L-G09RevE.01 30-Nov-2015

 ---------------------------------------------
 #p b3lyp/6-311++G(3df,2p) freq symmetry=Loose
 ---------------------------------------------

 ---------
 b3lyp opt
 ---------
 Symbolic Z-matrix:
 Charge =  1 Multiplicity = 4

                         Standard orientation:
 ---------------------------------------------------------------------
 Center     Atomic      Atomic             Coordinates (Angstroms)
 Number     Number       Type             X           Y           Z
 ---------------------------------------------------------------------
      1          6           0       -0.718046   -0.000039    0.418755
      2          1           0       -0.841447   -0.000139    1.503118
      3          6           0       -1.965310    0.000030   -0.326802
      4          6           0        0.420922   -0.907499   -0.066348
      5          1           0        0.332944   -1.798770   -0.680039
      6          6           0        1.451517   -0.000004    0.039008
      7          1           0        2.515523    0.000012   -0.133968
      8          6           0        0.420922    0.907511   -0.066180
      9          1           0        0.332944    1.798895   -0.679706
 ---------------------------------------------------------------------

 SCF Done:  E(UB3LYP) =  -192.372297547     A.U. after   15 cycles

 The electronic state is 4-A.
 Alpha  occ. eigenvalues --  -10.48988 -10.48987 -10.46591 -10.45627 -10.45412
 Alpha  occ. eigenvalues --   -1.18391  -0.98841  -0.89233  -0.83750  -0.78540
 Alpha  occ. eigenvalues --   -0.74408  -0.67292  -0.66848  -0.60809  -0.60650
 Alpha  occ. eigenvalues --   -0.55110  -0.44543  -0.44088
 Alpha virt. eigenvalues --   -0.30344  -0.26638  -0.14683  -0.13661  -0.13065
 Alpha virt. eigenvalues --   -0.12197  -0.09449  -0.08651  -0.08449  -0.06995
 Alpha virt. eigenvalues --   -0.06851  -0.06291  -0.05184  -0.03259  -0.02572

  Beta  occ. eigenvalues --  -10.48715 -10.48714 -10.46403 -10.45635 -10.41005
  Beta  occ. eigenvalues --   -1.17834  -0.95619  -0.88610  -0.79933  -0.78085
  Beta  occ. eigenvalues --   -0.71171  -0.66028  -0.65816  -0.59869  -0.56626
  Beta virt. eigenvalues --   -0.35943  -0.31347  -0.26521  -0.24626  -0.23909
  Beta virt. eigenvalues --   -0.14522  -0.13455  -0.12081  -0.11786  -0.08882
  Beta virt. eigenvalues --   -0.08374  -0.07888  -0.06422  -0.06386  -0.05427

 Mulliken charges and spin densities:
               1          2
     1  C    0.253664  -0.101306
     2  H    0.248169   0.054807
     3  C   -0.399203   2.796807
     4  C   -0.000416   0.129601
     5  H    0.258691  -0.000839
     6  C    0.097683  -0.015536
     7  H    0.283137   0.007704
     8  C   -0.000416   0.129601
     9  H    0.258691  -0.000839
 Sum of Mulliken charges =   1.00000   3.00000

 Dipole moment (field-independent basis, Debye):
    X=              2.0028    Y=              0.0000    Z=             -0.3187  Tot=              2.0280
 Quadrupole moment (field-independent basis, Debye-Ang):
   XX=            -18.2597   YY=            -20.8661   ZZ=            -25.3979
   XY=              0.0001   XZ=             -1.0750   YZ=              0.0004

  Exact polarizability:  64.717  -0.000  44.688   2.155   0.001  34.756
 Approx polarizability:  99.736  -0.001  77.627   6.001   0.002  51.202

                      1                      2                      3
                      A                      A                      A
 Frequencies --    223.2601               375.9191               471.5977
 Red. masses --      3.2683                 4.4280                 2.4559
 Frc consts  --      0.0960                 0.3687                 0.3218
 IR Inten    --     18.5634                 0.1141                 6.5786

                      4                      5                      6
                      A                      A                      A
 Frequencies --    663.0444               766.4713               899.0141
 Red. masses --      3.2630                 8.2533                 1.3151
 Frc consts  --      0.8452                 2.8567                 0.6262
 IR Inten    --      6.0315                 0.3066                 6.4859

                      7                      8                      9
                      A                      A                      A
 Frequencies --    907.4664               982.3134              1005.2481
 Red. masses --      1.5812                 1.5039                 2.8358
 Frc consts  --      0.7672                 0.8550                 1.6884
 IR Inten    --     51.4354                 2.2612                 5.8637

                     10                     11                     12
                      A                      A                      A
 Frequencies --   1031.8381              1087.5751              1099.5718
 Red. masses --      1.0833                 4.6437                 1.2203
 Frc consts  --      0.6796                 3.2361                 0.8693
 IR Inten    --      3.3670                27.3746                 8.7623

                     13                     14                     15
                      A                      A                      A
 Frequencies --   1187.7103              1196.8434              1274.7505
 Red. masses --      1.3499                 1.6931                 1.2258
 Frc consts  --      1.1219                 1.4290                 1.1736
 IR Inten    --      1.7289                41.7049                38.6888

                     16                     17                     18
                      A                      A                      A
 Frequencies --   1379.9319              1506.0724              3059.5067
 Red. masses --      3.7019                 4.8774                 1.0852
 Frc consts  --      4.1533                 6.5182                 5.9850
 IR Inten    --     42.9512                10.2500                19.7584

                     19                     20                     21
                      A                      A                      A
 Frequencies --   3172.0270              3174.2981              3260.5842
 Red. masses --      1.0948                 1.0963                 1.1130
 Frc consts  --      6.4903                 6.5086                 6.9714
 IR Inten    --     11.3435                37.4644                43.1898

 - Thermochemistry -
 -------------------
 Temperature   298.150 Kelvin.  Pressure   1.00000 Atm.
 Atom     1 has atomic number  6 and mass  12.00000

 Molecular mass:    64.03130 amu.
 Principal axes and moments of inertia in atomic units:
                           1         2         3
     Eigenvalues --   117.75176 342.95777 412.95693
           X            0.99970  -0.00000  -0.02466
           Y           -0.00000   1.00000  -0.00009
           Z            0.02466   0.00009   0.99970
 This molecule is an asymmetric top.
 Rotational symmetry number  1.
 Rotational temperatures (Kelvin)      0.73556     0.25255     0.20974
 Rotational constants (GHZ):          15.32666     5.26228     4.37029
 Zero-point vibrational energy     171813.9 (Joules/Mol)
                                   41.06451 (Kcal/Mol)
 Warning -- explicit consideration of   3 degrees of freedom as
           vibrations may cause significant error
 Vibrational temperatures:    321.22   540.86   678.52   953.97  1102.78
          (Kelvin)           1293.48  1305.64  1413.33  1446.33  1484.58
                             1564.78  1582.04  1708.85  1721.99  1834.08
                             1985.41  2166.90  4401.94  4563.83  4567.10
                             4691.25

 Zero-point correction=                           0.065440 (Hartree/Particle)
 Thermal correction to Energy=                    0.069921
 Thermal correction to Enthalpy=                  0.070865
 Thermal correction to Gibbs Free Energy=         0.037318
 Sum of electronic and zero-point Energies=           -192.306857
 Sum of electronic and thermal Energies=              -192.302377
 Sum of electronic and thermal Enthalpies=            -192.301433
 Sum of electronic and thermal Free Energies=         -192.334980

                     E (Thermal)             CV                S
                      KCal/Mol        Cal/Mol-Kelvin    Cal/Mol-Kelvin
 Total                   43.876             15.653             70.606
 Electronic               0.000              0.000              2.755
 Translational            0.889              2.981             38.389
 Rotational               0.889              2.981             24.326
 Vibrational             42.098              9.692              5.135
 Vibration     1          0.649              1.806              1.932
 Vibration     2          0.747              1.521              1.056
 Vibration     3          0.829              1.313              0.733

 Optimization completed.
    -- Stationary point found.
 Normal termination of Gaussian 09 at Wed Jul 20 21:27:10 2016.
