 Gaussian 09, Revision E.01,
 Gaussian 09:  EM64L-G09RevE.01 30-Nov-2015

 ------------------------------------------------------
 #p b3lyp/6-311++G(3df,2p) freq IOp(2/17=3) IOp(2/18=3)
 ------------------------------------------------------

 ---------
 b3lyp opt
 ---------
 Symbolic Z-matrix:
 Charge =  0 Multiplicity = 1

                         Standard orientation:
 ---------------------------------------------------------------------
 Center     Atomic      Atomic             Coordinates (Angstroms)
 Number     Number       Type             X           Y           Z
 ---------------------------------------------------------------------
      1          6           0       -1.126870    0.000000   -0.519433
      2          1           0       -1.166525    0.000000   -1.602682
      3          1           0       -2.086815    0.000000   -0.020089
      4          1           0        1.166525   -0.000000   -1.602682
      5          6           0       -0.000000    0.802132    0.103716
      6          6           0       -0.000000   -0.802132    0.103716
      7          6           0       -0.000000    0.000000    1.372052
      8          6           0        1.126870   -0.000000   -0.519433
      9          1           0        2.086815   -0.000000   -0.020089
 ---------------------------------------------------------------------

 SCF Done:  E(RB3LYP) =  -192.727373541     A.U. after   10 cycles

 The electronic state is 1-A1.
 Alpha  occ. eigenvalues --  -10.26195 -10.23050 -10.23049 -10.22851 -10.22836
 Alpha  occ. eigenvalues --   -1.01240  -0.73212  -0.69957  -0.56150  -0.55873
 Alpha  occ. eigenvalues --   -0.48472  -0.45038  -0.41020  -0.36057  -0.35237
 Alpha  occ. eigenvalues --   -0.31179  -0.26118
 Alpha virt. eigenvalues --   -0.11663  -0.02423  -0.00804   0.01333   0.02177
 Alpha virt. eigenvalues --    0.02209   0.04328   0.05313   0.07170   0.07464
 Alpha virt. eigenvalues --    0.08156   0.08610   0.10911   0.11312   0.11424

 Mulliken charges:
               1
     1  C   -0.486043
     2  H    0.181114
     3  H    0.171851
     4  H    0.181114
     5  C    0.323714
     6  C    0.323714
     7  C   -0.381273
     8  C   -0.486043
     9  H    0.171851
 Sum of Mulliken charges =  -0.00000

 Dipole moment (field-independent basis, Debye):
    X=              0.0000    Y=             -0.0000    Z=             -2.6601  Tot=              2.6601
 Quadrupole moment (field-independent basis, Debye-Ang):
   XX=            -25.3934   YY=            -34.8340   ZZ=            -33.0846
   XY=             -0.0000   XZ=              0.0000   YZ=             -0.0000

  Exact polarizability:  52.363   0.000  48.856   0.000  -0.000  52.415
 Approx polarizability:  78.373   0.000 102.509   0.000   0.000  77.790

                      1                      2                      3
                     B1                     B2                     A1
 Frequencies --    222.6054               428.9805               475.3698
 Red. masses --      6.5624                 3.2435                 1.9268
 Frc consts  --      0.1916                 0.3517                 0.2565
 IR Inten    --     17.3078                 0.8470                 0.2782

                      4                      5                      6
                     B2                     A2                     A1
 Frequencies --    615.1995               738.4962               877.7850
 Red. masses --      6.3311                 6.6107                 7.9206
 Frc consts  --      1.4118                 2.1242                 3.5957
 IR Inten    --    113.9419                 0.0000                 4.0835

                      7                      8                      9
                     A2                     B1                     A1
 Frequencies --    950.3675               967.4268              1063.4862
 Red. masses --      1.0726                 1.2258                 2.4776
 Frc consts  --      0.5708                 0.6759                 1.6510
 IR Inten    --      0.0000                 0.5825                18.0088

                     10                     11                     12
                     A2                     B2                     A1
 Frequencies --   1085.3796              1097.3955              1140.5157
 Red. masses --      1.2471                 1.2113                 3.8748
 Frc consts  --      0.8656                 0.8595                 2.9697
 IR Inten    --      0.0000                15.8085                 0.5475

                     13                     14                     15
                     B1                     B2                     A1
 Frequencies --   1155.2314              1161.2356              1229.4335
 Red. masses --      6.3105                 1.4257                 4.2834
 Frc consts  --      4.9620                 1.1327                 3.8146
 IR Inten    --      5.1363                 0.1315                19.4281

                     16                     17                     18
                     B1                     A1                     A1
 Frequencies --   1474.9355              1512.1884              3106.8318
 Red. masses --      1.1064                 1.1613                 1.0536
 Frc consts  --      1.4180                 1.5646                 5.9919
 IR Inten    --      3.8064                 2.7525                 2.7985

                     19                     20                     21
                     B1                     A1                     B1
 Frequencies --   3114.5789              3200.9232              3204.1269
 Red. masses --      1.0536                 1.1180                 1.1162
 Frc consts  --      6.0220                 6.7493                 6.7514
 IR Inten    --      7.0427                 0.1289                 2.3815

 - Thermochemistry -
 -------------------
 Temperature   298.150 Kelvin.  Pressure   1.00000 Atm.
 Atom     1 has atomic number  6 and mass  12.00000

 Molecular mass:    64.03130 amu.
 Principal axes and moments of inertia in atomic units:
                           1         2         3
     Eigenvalues --   177.77671 205.11714 272.60516
           X            1.00000   0.00000   0.00000
           Y           -0.00000   0.00000   1.00000
           Z           -0.00000   1.00000  -0.00000
 This molecule is an asymmetric top.
 Rotational symmetry number  2.
 Rotational temperatures (Kelvin)      0.48721     0.42227     0.31773
 Rotational constants (GHZ):          10.15173     8.79859     6.62035
 Zero-point vibrational energy     172396.8 (Joules/Mol)
                                   41.20382 (Kcal/Mol)
 Warning -- explicit consideration of   4 degrees of freedom as
           vibrations may cause significant error
 Vibrational temperatures:    320.28   617.21   683.95   885.13  1062.53
          (Kelvin)           1262.94  1367.37  1391.91  1530.12  1561.62
                             1578.91  1640.95  1662.12  1670.76  1768.88
                             2122.10  2175.70  4470.03  4481.18  4605.41
                             4610.02

 Zero-point correction=                           0.065662 (Hartree/Particle)
 Thermal correction to Energy=                    0.070108
 Thermal correction to Enthalpy=                  0.071052
 Thermal correction to Gibbs Free Energy=         0.039778
 Sum of electronic and zero-point Energies=           -192.661711
 Sum of electronic and thermal Energies=              -192.657266
 Sum of electronic and thermal Enthalpies=            -192.656322
 Sum of electronic and thermal Free Energies=         -192.687595

                     E (Thermal)             CV                S
                      KCal/Mol        Cal/Mol-Kelvin    Cal/Mol-Kelvin
 Total                   43.993             15.560             65.821
 Electronic               0.000              0.000              0.000
 Translational            0.889              2.981             38.389
 Rotational               0.889              2.981             22.435
 Vibrational             42.216              9.598              4.997
 Vibration     1          0.648              1.807              1.938
 Vibration     2          0.790              1.407              0.862
 Vibration     3          0.832              1.305              0.723
 Vibration     4          0.975              1.000              0.424

 Optimization completed.
    -- Stationary point found.
 Normal termination of Gaussian 09 at Thu Jan 31 06:35:41 2019.
