 Gaussian 09, Revision E.01,
 Gaussian 09:  EM64L-G09RevE.01 30-Nov-2015

 ---------------------------------------------
 #p b3lyp/6-311++G(3df,2p) freq symmetry=Loose
 ---------------------------------------------

 ---------
 b3lyp opt
 ---------
 Symbolic Z-matrix:
 Charge =  2 Multiplicity = 1

                         Standard orientation:
 ---------------------------------------------------------------------
 Center     Atomic      Atomic             Coordinates (Angstroms)
 Number     Number       Type             X           Y           Z
 ---------------------------------------------------------------------
      1          6           0        0.719271   -0.000017    0.192020
      2          1           0        1.059749   -0.000113    1.306463
      3          6           0        2.074905    0.000010   -0.116195
      4          6           0       -0.468075    0.910264   -0.138147
      5          1           0       -0.445889    1.838002   -0.717015
      6          6           0       -1.461411   -0.000016    0.185652
      7          1           0       -2.547662   -0.000019    0.217736
      8          6           0       -0.468075   -0.910240   -0.138305
      9          1           0       -0.445889   -1.837877   -0.717333
 ---------------------------------------------------------------------

 SCF Done:  E(RB3LYP) =  -191.881511418     A.U. after   12 cycles

 The electronic state is 1-A.
 Alpha  occ. eigenvalues --  -10.81756 -10.75329 -10.75328 -10.72119 -10.70205
 Alpha  occ. eigenvalues --   -1.43652  -1.28522  -1.12775  -1.09221  -1.01667
 Alpha  occ. eigenvalues --   -0.96116  -0.91638  -0.91236  -0.85588  -0.82248
 Alpha  occ. eigenvalues --   -0.77940
 Alpha virt. eigenvalues --   -0.62059  -0.57683  -0.53705  -0.49735  -0.35303
 Alpha virt. eigenvalues --   -0.31201  -0.31004  -0.29845  -0.28040  -0.27276
 Alpha virt. eigenvalues --   -0.26784  -0.24154  -0.23927  -0.22850  -0.22641

 Mulliken charges:
               1
     1  C    0.420859
     2  H    0.295299
     3  C   -0.265250
     4  C    0.175636
     5  H    0.328713
     6  C    0.184435
     7  H    0.355961
     8  C    0.175636
     9  H    0.328713
 Sum of Mulliken charges =   2.00000

 Dipole moment (field-independent basis, Debye):
    X=             -0.5172    Y=              0.0000    Z=             -0.0802  Tot=              0.5233
 Quadrupole moment (field-independent basis, Debye-Ang):
   XX=             -6.8974   YY=            -14.4158   ZZ=            -21.0050
   XY=             -0.0001   XZ=              1.0144   YZ=              0.0006

  Exact polarizability:  56.418   0.000  41.130  -0.869   0.001  29.918
 Approx polarizability:  94.462   0.001  74.205  -6.254   0.002  49.099

                      1                      2                      3
                      A                      A                      A
 Frequencies --    138.1585               226.7975               309.1458
 Red. masses --      4.8549                 5.6689                 2.4238
 Frc consts  --      0.0546                 0.1718                 0.1365
 IR Inten    --     28.2842                 4.4737                 4.8317

                      4                      5                      6
                      A                      A                      A
 Frequencies --    635.9371               728.9701               768.6106
 Red. masses --      4.3097                 1.6823                 7.4837
 Frc consts  --      1.0269                 0.5267                 2.6048
 IR Inten    --      6.4033                30.6300                 1.8099

                      7                      8                      9
                      A                      A                      A
 Frequencies --    873.2537               900.8934               991.2446
 Red. masses --      1.0836                 1.4575                 1.4118
 Frc consts  --      0.4869                 0.6969                 0.8173
 IR Inten    --     16.9429                75.8234                 3.1522

                     10                     11                     12
                      A                      A                      A
 Frequencies --   1009.4353              1023.8670              1047.7937
 Red. masses --      1.3984                 1.5788                 1.1315
 Frc consts  --      0.8396                 0.9752                 0.7319
 IR Inten    --      1.9516                12.8728                 5.4647

                     13                     14                     15
                      A                      A                      A
 Frequencies --   1161.2955              1183.6155              1368.9511
 Red. masses --      1.4577                 1.2729                 4.2616
 Frc consts  --      1.1582                 1.0507                 4.7054
 IR Inten    --     11.4447                 2.3937                66.9756

                     16                     17                     18
                      A                      A                      A
 Frequencies --   1389.1022              1486.0609              2496.8813
 Red. masses --      8.6311                 4.5808                 1.0710
 Frc consts  --      9.8126                 5.9603                 3.9341
 IR Inten    --    241.0913               131.6270               193.1032

                     19                     20                     21
                      A                      A                      A
 Frequencies --   3106.9811              3107.2730              3188.3915
 Red. masses --      1.0984                 1.1017                 1.1178
 Frc consts  --      6.2474                 6.2669                 6.6952
 IR Inten    --     55.0330               221.0650               147.2359

 - Thermochemistry -
 -------------------
 Temperature   298.150 Kelvin.  Pressure   1.00000 Atm.
 Atom     1 has atomic number  6 and mass  12.00000

 Molecular mass:    64.03130 amu.
 Principal axes and moments of inertia in atomic units:
                           1         2         3
     Eigenvalues --   110.53394 360.77046 440.89080
           X            0.99988  -0.00000   0.01573
           Y            0.00000   1.00000  -0.00009
           Z           -0.01573   0.00009   0.99988
 This molecule is an asymmetric top.
 Rotational symmetry number  1.
 Rotational temperatures (Kelvin)      0.78359     0.24008     0.19645
 Rotational constants (GHZ):          16.32748     5.00246     4.09340
 Zero-point vibrational energy     162349.2 (Joules/Mol)
                                   38.80238 (Kcal/Mol)
 Warning -- explicit consideration of   3 degrees of freedom as
           vibrations may cause significant error
 Vibrational temperatures:    198.78   326.31   444.79   914.97  1048.82
          (Kelvin)           1105.86  1256.42  1296.18  1426.18  1452.35
                             1473.11  1507.54  1670.84  1702.96  1969.61
                             1998.61  2138.11  3592.45  4470.25  4470.67
                             4587.38

 Zero-point correction=                           0.061836 (Hartree/Particle)
 Thermal correction to Energy=                    0.066902
 Thermal correction to Enthalpy=                  0.067846
 Thermal correction to Gibbs Free Energy=         0.034323
 Sum of electronic and zero-point Energies=           -191.819676
 Sum of electronic and thermal Energies=              -191.814609
 Sum of electronic and thermal Enthalpies=            -191.813665
 Sum of electronic and thermal Free Energies=         -191.847189

                     E (Thermal)             CV                S
                      KCal/Mol        Cal/Mol-Kelvin    Cal/Mol-Kelvin
 Total                   41.982             16.994             70.556
 Electronic               0.000              0.000              0.000
 Translational            0.889              2.981             38.389
 Rotational               0.889              2.981             24.379
 Vibrational             40.204             11.032              7.788
 Vibration     1          0.614              1.915              2.829
 Vibration     2          0.650              1.800              1.904
 Vibration     3          0.698              1.656              1.367

 Normal termination of Gaussian 09 at Tue Jul 19 23:25:08 2016.
