 Gaussian 09, Revision E.01,
 Gaussian 09:  EM64L-G09RevE.01 30-Nov-2015

 ---------------------------------------------
 #p b3lyp/6-311++G(3df,2p) freq symmetry=Loose
 ---------------------------------------------

 ---------
 b3lyp opt
 ---------
 Symbolic Z-matrix:
 Charge =  2 Multiplicity = 3

                         Standard orientation:
 ---------------------------------------------------------------------
 Center     Atomic      Atomic             Coordinates (Angstroms)
 Number     Number       Type             X           Y           Z
 ---------------------------------------------------------------------
      1          6           0        0.000000   -1.024609   -0.347477
      2          6           0        1.064916    0.000088   -0.071268
      3          1           0        2.150991    0.000220   -0.005713
      4          1           0       -2.150991   -0.000220   -0.005713
      5          6           0        0.000000   -0.000000    0.987773
      6          6           0       -1.064916   -0.000088   -0.071268
      7          1           0        0.000174   -2.116840   -0.445137
      8          6           0        0.000000    1.024609   -0.347477
      9          1           0       -0.000174    2.116840   -0.445137
 ---------------------------------------------------------------------

 SCF Done:  E(UB3LYP) =  -191.866958992     A.U. after   12 cycles

 The electronic state is 3-B.
 Alpha  occ. eigenvalues --  -10.83019 -10.77995 -10.77994 -10.74567 -10.74565
 Alpha  occ. eigenvalues --   -1.56113  -1.21268  -1.21187  -1.11919  -1.03646
 Alpha  occ. eigenvalues --   -1.01221  -0.93934  -0.92754  -0.91992  -0.86044
 Alpha  occ. eigenvalues --   -0.83973  -0.78249
 Alpha virt. eigenvalues --   -0.52368  -0.48322  -0.37938  -0.36540  -0.35410
 Alpha virt. eigenvalues --   -0.32861  -0.31923  -0.31013  -0.27740  -0.27735
 Alpha virt. eigenvalues --   -0.26371  -0.25202  -0.24859  -0.23082  -0.22467

  Beta  occ. eigenvalues --  -10.80741 -10.77147 -10.77147 -10.74558 -10.74555
  Beta  occ. eigenvalues --   -1.54373  -1.20681  -1.18516  -1.07454  -1.01873
  Beta  occ. eigenvalues --   -0.99444  -0.92331  -0.91560  -0.91514  -0.84726
  Beta virt. eigenvalues --   -0.65883  -0.65738  -0.49032  -0.41628  -0.37252
  Beta virt. eigenvalues --   -0.35262  -0.34576  -0.32336  -0.30416  -0.30056
  Beta virt. eigenvalues --   -0.27023  -0.26781  -0.25850  -0.24887  -0.24816

 Mulliken charges and spin densities:
               1          2
     1  C   -0.444912   0.564376
     2  C    0.673585  -0.224671
     3  H    0.400704  -0.005818
     4  H    0.400704  -0.005818
     5  C    0.110382   1.279212
     6  C    0.673585  -0.224671
     7  H    0.315432   0.026506
     8  C   -0.444912   0.564376
     9  H    0.315432   0.026506
 Sum of Mulliken charges =   2.00000   2.00000

 Dipole moment (field-independent basis, Debye):
    X=              0.0000    Y=              0.0000    Z=             -0.2709  Tot=              0.2709
 Quadrupole moment (field-independent basis, Debye-Ang):
   XX=            -11.6784   YY=            -10.2907   ZZ=            -21.5547
   XY=              0.0003   XZ=             -0.0000   YZ=              0.0000

  Exact polarizability:  37.108   0.001  39.306  -0.000  -0.000  29.685
 Approx polarizability:  58.045   0.001  63.889  -0.000  -0.000  57.285

                      1                      2                      3
                      B                      B                      A
 Frequencies --     85.6669               527.1914               588.1506
 Red. masses --      9.9456                 6.5558                11.7761
 Frc consts  --      0.0430                 1.0735                 2.4001
 IR Inten    --      0.5125                25.5748                 0.0001

                      4                      5                      6
                      A                      A                      A
 Frequencies --    608.5853               758.5585               863.9359
 Red. masses --      3.3926                 1.8688                 3.3455
 Frc consts  --      0.7403                 0.6336                 1.4712
 IR Inten    --      5.4985                45.9822                 0.0088

                      7                      8                      9
                      B                      B                      B
 Frequencies --    868.8413               889.9415               924.1394
 Red. masses --      1.3023                 1.8576                 1.1629
 Frc consts  --      0.5792                 0.8668                 0.5852
 IR Inten    --      1.1810                 0.1653                31.8155

                     10                     11                     12
                      A                      B                      A
 Frequencies --    955.3364              1009.5706              1015.6153
 Red. masses --      1.0087                 1.2836                 1.5295
 Frc consts  --      0.5424                 0.7708                 0.9295
 IR Inten    --      0.0000                 1.4518                 0.0283

                     13                     14                     15
                      A                      A                      B
 Frequencies --   1124.3448              1135.6880              1219.8175
 Red. masses --      1.3232                 2.0184                 1.8374
 Frc consts  --      0.9855                 1.5338                 1.6108
 IR Inten    --      0.0000                86.2443                64.5339

                     16                     17                     18
                      A                      B                      B
 Frequencies --   1244.5897              1267.6966              3078.3639
 Red. masses --      6.0466                 3.7223                 1.1002
 Frc consts  --      5.5184                 3.5244                 6.1427
 IR Inten    --      1.0182                63.1269               439.0322

                     19                     20                     21
                      A                      B                      A
 Frequencies --   3080.1894              3163.7389              3174.4901
 Red. masses --      1.1035                 1.1033                 1.1167
 Frc consts  --      6.1685                 6.5062                 6.6305
 IR Inten    --      8.8867               353.6974                 0.1414

 - Thermochemistry -
 -------------------
 Temperature   298.150 Kelvin.  Pressure   1.00000 Atm.
 Atom     1 has atomic number  6 and mass  12.00000

 Molecular mass:    64.03130 amu.
 Principal axes and moments of inertia in atomic units:
                           1         2         3
     Eigenvalues --   176.20664 184.47401 252.72758
           X            1.00000  -0.00107   0.00000
           Y            0.00107   1.00000   0.00000
           Z            0.00000  -0.00000   1.00000
 This molecule is an asymmetric top.
 Rotational symmetry number  2.
 Rotational temperatures (Kelvin)      0.49155     0.46952     0.34272
 Rotational constants (GHZ):          10.24219     9.78317     7.14105
 Zero-point vibrational energy     164991.7 (Joules/Mol)
                                   39.43395 (Kcal/Mol)
 Warning -- explicit consideration of   4 degrees of freedom as
           vibrations may cause significant error
 Vibrational temperatures:    123.26   758.51   846.22   875.62  1091.40
          (Kelvin)           1243.01  1250.07  1280.43  1329.63  1374.51
                             1452.55  1461.24  1617.68  1634.00  1755.04
                             1790.68  1823.93  4429.07  4431.70  4551.91
                             4567.38

 Zero-point correction=                           0.062842 (Hartree/Particle)
 Thermal correction to Energy=                    0.067483
 Thermal correction to Enthalpy=                  0.068427
 Thermal correction to Gibbs Free Energy=         0.035447
 Sum of electronic and zero-point Energies=           -191.804117
 Sum of electronic and thermal Energies=              -191.799476
 Sum of electronic and thermal Enthalpies=            -191.798532
 Sum of electronic and thermal Free Energies=         -191.831512

                     E (Thermal)             CV                S
                      KCal/Mol        Cal/Mol-Kelvin    Cal/Mol-Kelvin
 Total                   42.346             16.181             69.412
 Electronic               0.000              0.000              2.183
 Translational            0.889              2.981             38.389
 Rotational               0.889              2.981             22.245
 Vibrational             40.569             10.220              6.595
 Vibration     1          0.601              1.959              3.757
 Vibration     2          0.882              1.190              0.594
 Vibration     3          0.945              1.057              0.470
 Vibration     4          0.967              1.014              0.435

 Optimization completed.
    -- Stationary point found.
 Normal termination of Gaussian 09 at Wed Jul 20 08:29:42 2016.
