 Gaussian 09, Revision E.01,
 Gaussian 09:  EM64L-G09RevE.01 30-Nov-2015

 ---------------------------------------------
 #p b3lyp/6-311++G(3df,2p) freq symmetry=Loose
 ---------------------------------------------

 ---------
 b3lyp opt
 ---------
 Symbolic Z-matrix:
 Charge =  1 Multiplicity = 2

                         Standard orientation:
 ---------------------------------------------------------------------
 Center     Atomic      Atomic             Coordinates (Angstroms)
 Number     Number       Type             X           Y           Z
 ---------------------------------------------------------------------
      1          6           0       -1.926807   -1.265313   -0.000000
      2          1           0       -1.357008   -2.182468   -0.000000
      3          1           0       -3.004446   -1.323736   -0.000000
      4          6           0       -1.316936   -0.034041   -0.000000
      5          1           0       -1.923892    0.878305   -0.000000
      6          6           0        0.000000    0.223900    0.000000
      7          6           0        1.252636    0.525968    0.000000
      8          6           0        2.455639    0.811136    0.000000
      9          1           0        3.498151    1.058005    0.000000
 ---------------------------------------------------------------------

 SCF Done:  E(UB3LYP) =  -192.529644749     A.U. after   19 cycles

 The electronic state is 2-A".
 Alpha  occ. eigenvalues --  -10.49763 -10.47686 -10.43715 -10.42526 -10.40654
 Alpha  occ. eigenvalues --   -1.07367  -1.02018  -0.94122  -0.85682  -0.76955
 Alpha  occ. eigenvalues --   -0.72692  -0.67237  -0.61983  -0.60245  -0.57302
 Alpha  occ. eigenvalues --   -0.53294  -0.43410
 Alpha virt. eigenvalues --   -0.37421  -0.23534  -0.15662  -0.13890  -0.12335
 Alpha virt. eigenvalues --   -0.11779  -0.10511  -0.10351  -0.08722  -0.07419
 Alpha virt. eigenvalues --   -0.06649  -0.05798  -0.05275  -0.04329  -0.03901

  Beta  occ. eigenvalues --  -10.49049 -10.47065 -10.43979 -10.42778 -10.39859
  Beta  occ. eigenvalues --   -1.06512  -1.01417  -0.92360  -0.84650  -0.76431
  Beta  occ. eigenvalues --   -0.72503  -0.66730  -0.59819  -0.59584  -0.57179
  Beta  occ. eigenvalues --   -0.50668
  Beta virt. eigenvalues --   -0.36437  -0.33403  -0.20918  -0.15584  -0.13766
  Beta virt. eigenvalues --   -0.12152  -0.11687  -0.10360  -0.09653  -0.07853
  Beta virt. eigenvalues --   -0.07275  -0.06543  -0.05669  -0.04475  -0.04216

 Mulliken charges and spin densities:
               1          2
     1  C   -0.511886   0.548998
     2  H    0.197390  -0.014150
     3  H    0.219407  -0.017809
     4  C    0.233890  -0.126145
     5  H    0.207122   0.002946
     6  C   -0.115379   0.353065
     7  C    0.130924  -0.108531
     8  C    0.269887   0.372392
     9  H    0.368644  -0.010766
 Sum of Mulliken charges =   1.00000   1.00000

 Dipole moment (field-independent basis, Debye):
    X=              1.5268    Y=              0.6271    Z=              0.0000  Tot=              1.6505
 Quadrupole moment (field-independent basis, Debye-Ang):
   XX=              1.8439   YY=            -20.1455   ZZ=            -29.5109
   XY=              8.4546   XZ=             -0.0000   YZ=              0.0000

  Exact polarizability: 110.315  28.750  49.869   0.000  -0.000  31.192
 Approx polarizability: 216.293  56.844  77.500   0.000   0.000  43.243

                      1                      2                      3
                     A'                     A"                     A'
 Frequencies --    128.1358               164.6278               286.5632
 Red. masses --      3.2396                 2.9393                 3.9012
 Frc consts  --      0.0313                 0.0469                 0.1888
 IR Inten    --      4.3512                 8.4469                 6.5578

                      4                      5                      6
                     A"                     A"                     A"
 Frequencies --    394.2136               438.1744               597.2306
 Red. masses --      4.0523                 1.3302                 1.6668
 Frc consts  --      0.3710                 0.1505                 0.3503
 IR Inten    --     17.0494                40.5146                 2.6507

                      7                      8                      9
                     A'                     A'                     A"
 Frequencies --    625.6434               810.0439               873.7333
 Red. masses --      4.7264                 3.4792                 1.2364
 Frc consts  --      1.0900                 1.3451                 0.5561
 IR Inten    --      4.0221                 3.9579                20.4057

                     10                     11                     12
                     A'                     A"                     A'
 Frequencies --    887.8463               979.7676              1028.3511
 Red. masses --      1.3630                 1.2691                 1.3216
 Frc consts  --      0.6330                 0.7178                 0.8234
 IR Inten    --      6.8568                44.9700                 4.3999

                     13                     14                     15
                     A'                     A'                     A'
 Frequencies --   1222.6842              1343.9047              1500.3140
 Red. masses --      1.6574                 2.3379                 1.2953
 Frc consts  --      1.4599                 2.4878                 1.7179
 IR Inten    --     10.0277                39.1572                17.9040

                     16                     17                     18
                     A'                     A'                     A'
 Frequencies --   1631.4820              1995.3120              3042.9241
 Red. masses --      7.6637                 7.8042                 1.0808
 Frc consts  --     12.0185                18.3063                 5.8962
 IR Inten    --     54.2684               305.4445                81.8639

                     19                     20                     21
                     A'                     A'                     A'
 Frequencies --   3164.4721              3275.0804              3367.4838
 Red. masses --      1.0540                 1.1217                 1.1374
 Frc consts  --      6.2186                 7.0890                 7.5995
 IR Inten    --     14.2484                10.3821               210.9642

 - Thermochemistry -
 -------------------
 Temperature   298.150 Kelvin.  Pressure   1.00000 Atm.
 Atom     1 has atomic number  6 and mass  12.00000

 Molecular mass:    64.03130 amu.
 Principal axes and moments of inertia in atomic units:
                           1         2         3
     Eigenvalues --    38.08927 758.00014 796.08941
           X            0.92579  -0.37804   0.00000
           Y            0.37804   0.92579   0.00000
           Z           -0.00000   0.00000   1.00000
 This molecule is an asymmetric top.
 Rotational symmetry number  1.
 Rotational temperatures (Kelvin)      2.27397     0.11427     0.10880
 Rotational constants (GHZ):          47.38188     2.38092     2.26701
 Zero-point vibrational energy     166029.6 (Joules/Mol)
                                   39.68204 (Kcal/Mol)
 Warning -- explicit consideration of   6 degrees of freedom as
           vibrations may cause significant error
 Vibrational temperatures:    184.36   236.86   412.30   567.18   630.43
          (Kelvin)            859.28   900.16  1165.47  1257.11  1277.41
                             1409.67  1479.57  1759.17  1933.58  2158.61
                             2347.34  2870.81  4378.08  4552.96  4712.10
                             4845.05

 Zero-point correction=                           0.063237 (Hartree/Particle)
 Thermal correction to Energy=                    0.069002
 Thermal correction to Enthalpy=                  0.069946
 Thermal correction to Gibbs Free Energy=         0.034397
 Sum of electronic and zero-point Energies=           -192.466407
 Sum of electronic and thermal Energies=              -192.460643
 Sum of electronic and thermal Enthalpies=            -192.459699
 Sum of electronic and thermal Free Energies=         -192.495248

                     E (Thermal)             CV                S
                      KCal/Mol        Cal/Mol-Kelvin    Cal/Mol-Kelvin
 Total                   43.299             19.244             74.820
 Electronic               0.000              0.000              1.377
 Translational            0.889              2.981             38.389
 Rotational               0.889              2.981             24.645
 Vibrational             41.522             13.283             10.409
 Vibration     1          0.611              1.925              2.974
 Vibration     2          0.623              1.886              2.496
 Vibration     3          0.684              1.699              1.494
 Vibration     4          0.761              1.483              0.984
 Vibration     5          0.798              1.387              0.832
 Vibration     6          0.955              1.038              0.454

 Normal termination of Gaussian 09 at Mon Jun 20 04:52:03 2016.
