 Gaussian 09, Revision E.01,
 Gaussian 09:  EM64L-G09RevE.01 30-Nov-2015

 ---------------------------------------------
 #p b3lyp/6-311++G(3df,2p) freq symmetry=Loose
 ---------------------------------------------

 ---------
 b3lyp opt
 ---------
 Symbolic Z-matrix:
 Charge =  2 Multiplicity = 3

                         Standard orientation:
 ---------------------------------------------------------------------
 Center     Atomic      Atomic             Coordinates (Angstroms)
 Number     Number       Type             X           Y           Z
 ---------------------------------------------------------------------
      1          6           0       -2.334435    0.000148    0.000127
      2          1           0       -2.895829    0.000897    0.944428
      3          1           0       -2.897242   -0.000086   -0.943273
      4          6           0       -0.967495   -0.000482   -0.000429
      5          6           0        1.607334   -0.664831    0.000123
      6          1           0        2.075330   -1.649250    0.000163
      7          6           0        1.607114    0.665106    0.000015
      8          1           0        2.074837    1.649736   -0.000141
      9          6           0        0.361300   -0.000158   -0.000032
 ---------------------------------------------------------------------

 SCF Done:  E(UB3LYP) =  -191.977801775     A.U. after   14 cycles

 The electronic state is 3-A.
 Alpha  occ. eigenvalues --  -10.74897 -10.71965 -10.71029 -10.70729 -10.70643
 Alpha  occ. eigenvalues --   -1.41505  -1.29108  -1.17147  -1.04098  -0.99406
 Alpha  occ. eigenvalues --   -0.96381  -0.92346  -0.86536  -0.86421  -0.86213
 Alpha  occ. eigenvalues --   -0.76081  -0.72088
 Alpha virt. eigenvalues --   -0.51168  -0.47326  -0.43451  -0.33037  -0.30071
 Alpha virt. eigenvalues --   -0.28984  -0.27533  -0.26195  -0.25988  -0.23871
 Alpha virt. eigenvalues --   -0.22841  -0.22776  -0.21898  -0.21109  -0.19625

  Beta  occ. eigenvalues --  -10.73244 -10.71960 -10.70364 -10.70326 -10.70280
  Beta  occ. eigenvalues --   -1.40255  -1.24452  -1.14907  -1.03018  -0.98424
  Beta  occ. eigenvalues --   -0.94497  -0.89389  -0.85672  -0.84261  -0.83048
  Beta virt. eigenvalues --   -0.64900  -0.60689  -0.45357  -0.45342  -0.39814
  Beta virt. eigenvalues --   -0.32131  -0.28778  -0.28579  -0.27214  -0.25733
  Beta virt. eigenvalues --   -0.25671  -0.23024  -0.21884  -0.21438  -0.21386

 Mulliken charges and spin densities:
               1          2
     1  C    0.016303   0.377918
     2  H    0.302646   0.031596
     3  H    0.302665   0.031556
     4  C    0.540900   0.882027
     5  C    0.114484   0.187977
     6  H    0.365471   0.011165
     7  C    0.113974   0.187932
     8  H    0.365453   0.011175
     9  C   -0.121896   0.278656
 Sum of Mulliken charges =   2.00000   2.00000

 Dipole moment (field-independent basis, Debye):
    X=             -1.5421    Y=              0.0009    Z=              0.0007  Tot=              1.5421
 Quadrupole moment (field-independent basis, Debye-Ang):
   XX=             17.1473   YY=            -16.3608   ZZ=            -22.6654
   XY=             -0.0009   XZ=             -0.0008   YZ=              0.0003

  Exact polarizability:  88.247   0.001  33.983  -0.001   0.001  26.752
 Approx polarizability: 141.668   0.004  53.130   0.003   0.001  38.655

                      1                      2                      3
                      A                      A                      A
 Frequencies --    162.6534               174.3326               419.6144
 Red. masses --      3.3210                 3.4931                 4.9188
 Frc consts  --      0.0518                 0.0625                 0.5103
 IR Inten    --     12.4521                11.1591                 6.3154

                      4                      5                      6
                      A                      A                      A
 Frequencies --    447.7489               477.8558               688.8046
 Red. masses --      1.1094                 5.0403                 3.7035
 Frc consts  --      0.1310                 0.6781                 1.0353
 IR Inten    --      0.0000                 0.0594                 2.9068

                      7                      8                      9
                      A                      A                      A
 Frequencies --    818.8577               903.1053               927.5111
 Red. masses --      1.2601                 1.4021                 1.3422
 Frc consts  --      0.4978                 0.6738                 0.6803
 IR Inten    --     52.0704                 0.0002                 0.6126

                     10                     11                     12
                      A                      A                      A
 Frequencies --    952.9344               970.6952              1003.0040
 Red. masses --      1.2147                 5.1430                 1.4965
 Frc consts  --      0.6499                 2.8552                 0.8870
 IR Inten    --      0.6045                29.2123                52.0847

                     13                     14                     15
                      A                      A                      A
 Frequencies --   1016.9821              1113.4861              1383.7667
 Red. masses --      1.3305                 6.9954                 1.1125
 Frc consts  --      0.8108                 5.1101                 1.2551
 IR Inten    --      9.8210               113.4881                34.9840

                     16                     17                     18
                      A                      A                      A
 Frequencies --   1583.6058              1838.5858              2982.6517
 Red. masses --      5.5400                 9.0747                 1.0492
 Frc consts  --      8.1857                18.0739                 5.4992
 IR Inten    --     22.3357                91.4908               287.4917

                     19                     20                     21
                      A                      A                      A
 Frequencies --   3083.7358              3132.9902              3178.5341
 Red. masses --      1.1185                 1.0931                 1.1545
 Frc consts  --      6.2667                 6.3218                 6.8724
 IR Inten    --    134.0016               273.9879               209.4571

 - Thermochemistry -
 -------------------
 Temperature   298.150 Kelvin.  Pressure   1.00000 Atm.
 Atom     1 has atomic number  6 and mass  12.00000

 Molecular mass:    64.03130 amu.
 Principal axes and moments of inertia in atomic units:
                           1         2         3
     Eigenvalues --    63.89452 598.27742 649.34715
           X            1.00000  -0.00001  -0.00001
           Y            0.00001   1.00000   0.00003
           Z            0.00001  -0.00003   1.00000
 This molecule is an asymmetric top.
 Rotational symmetry number  1.
 Rotational temperatures (Kelvin)      1.35558     0.14477     0.13339
 Rotational constants (GHZ):          28.24563     3.01656     2.77932
 Zero-point vibrational energy     163059.7 (Joules/Mol)
                                   38.97221 (Kcal/Mol)
 Warning -- explicit consideration of   5 degrees of freedom as
           vibrations may cause significant error
 Vibrational temperatures:    234.02   250.83   603.73   644.21   687.53
          (Kelvin)            991.03  1178.15  1299.37  1334.48  1371.06
                             1396.61  1443.10  1463.21  1602.06  1990.93
                             2278.45  2645.31  4291.37  4436.80  4507.67
                             4573.20

 Zero-point correction=                           0.062106 (Hartree/Particle)
 Thermal correction to Energy=                    0.067445
 Thermal correction to Enthalpy=                  0.068389
 Thermal correction to Gibbs Free Energy=         0.033289
 Sum of electronic and zero-point Energies=           -191.915696
 Sum of electronic and thermal Energies=              -191.910357
 Sum of electronic and thermal Enthalpies=            -191.909413
 Sum of electronic and thermal Free Energies=         -191.944513

                     E (Thermal)             CV                S
                      KCal/Mol        Cal/Mol-Kelvin    Cal/Mol-Kelvin
 Total                   42.322             18.281             73.875
 Electronic               0.000              0.000              2.183
 Translational            0.889              2.981             38.389
 Rotational               0.889              2.981             24.721
 Vibrational             40.545             12.319              8.581
 Vibration     1          0.623              1.888              2.519
 Vibration     2          0.627              1.874              2.388
 Vibration     3          0.782              1.428              0.893
 Vibration     4          0.807              1.366              0.803
 Vibration     5          0.834              1.299              0.716

 Optimization completed.
    -- Stationary point found.
 Normal termination of Gaussian 09 at Mon Jun 20 08:41:23 2016.
