 Gaussian 09, Revision E.01,
 Gaussian 09:  EM64L-G09RevE.01 30-Nov-2015

 ---------------------------------------------
 #p b3lyp/6-311++G(3df,2p) freq symmetry=Loose
 ---------------------------------------------

 ---------
 b3lyp opt
 ---------
 Symbolic Z-matrix:
 Charge =  1 Multiplicity = 4

                         Standard orientation:
 ---------------------------------------------------------------------
 Center     Atomic      Atomic             Coordinates (Angstroms)
 Number     Number       Type             X           Y           Z
 ---------------------------------------------------------------------
      1          6           0        1.800680   -0.640453   -0.000063
      2          6           0        0.488304   -0.233153   -0.000019
      3          6           0       -0.860549   -0.482299    0.000005
      4          6           0       -2.121772    0.205709    0.000057
      5          1           0       -2.711691   -0.085314    0.878088
      6          1           0       -1.999354    1.296316    0.000088
      7          1           0       -2.711732   -0.085258   -0.877965
      8          6           0        1.605191    0.678872   -0.000017
      9          1           0        1.951651    1.702197    0.000007
 ---------------------------------------------------------------------

 SCF Done:  E(UB3LYP) =  -192.420514394     A.U. after   15 cycles

 The electronic state is 4-A.
 Alpha  occ. eigenvalues --  -10.50418 -10.49987 -10.49250 -10.47119 -10.38327
 Alpha  occ. eigenvalues --   -1.19975  -1.02850  -0.91311  -0.83289  -0.73679
 Alpha  occ. eigenvalues --   -0.69568  -0.67060  -0.65813  -0.62550  -0.62373
 Alpha  occ. eigenvalues --   -0.55716  -0.47810  -0.45455
 Alpha virt. eigenvalues --   -0.27601  -0.21415  -0.15316  -0.13103  -0.12014
 Alpha virt. eigenvalues --   -0.10615  -0.10347  -0.08729  -0.07698  -0.07585
 Alpha virt. eigenvalues --   -0.06736  -0.06264  -0.05661  -0.04561  -0.02826

  Beta  occ. eigenvalues --  -10.49623 -10.48670 -10.48590 -10.44733 -10.38319
  Beta  occ. eigenvalues --   -1.17974  -0.98771  -0.89058  -0.81634  -0.68507
  Beta  occ. eigenvalues --   -0.66855  -0.63746  -0.63286  -0.60780  -0.60379
  Beta virt. eigenvalues --   -0.39349  -0.36351  -0.29311  -0.24227  -0.16251
  Beta virt. eigenvalues --   -0.14938  -0.12531  -0.11433  -0.10075  -0.09980
  Beta virt. eigenvalues --   -0.08287  -0.07264  -0.06715  -0.05990  -0.05317

 Mulliken charges and spin densities:
               1          2
     1  C    0.029823   1.000262
     2  C    0.355088   0.130144
     3  C   -0.136600   1.418047
     4  C   -0.374497  -0.057983
     5  H    0.214676   0.049002
     6  H    0.184603   0.072046
     7  H    0.214676   0.049002
     8  C    0.199807   0.334316
     9  H    0.312423   0.005163
 Sum of Mulliken charges =   1.00000   3.00000

 Dipole moment (field-independent basis, Debye):
    X=              0.5768    Y=              1.6934    Z=              0.0000  Tot=              1.7890
 Quadrupole moment (field-independent basis, Debye-Ang):
   XX=             -9.2931   YY=            -22.7707   ZZ=            -26.3238
   XY=              2.2424   XZ=             -0.0003   YZ=              0.0001

  Exact polarizability:  79.600  -0.013  43.879  -0.001   0.000  32.171
 Approx polarizability: 108.521   0.501  72.008  -0.001   0.001  47.405

                      1                      2                      3
                      A                      A                      A
 Frequencies --     83.0684               168.7790               220.3482
 Red. masses --      1.1060                 3.1724                 4.2775
 Frc consts  --      0.0045                 0.0532                 0.1224
 IR Inten    --      2.7827                 1.3503                 0.1312

                      4                      5                      6
                      A                      A                      A
 Frequencies --    453.0539               485.5288               698.7187
 Red. masses --      5.3208                 4.2322                 4.0254
 Frc consts  --      0.6435                 0.5878                 1.1579
 IR Inten    --      0.4235                 4.0028                 3.1004

                      7                      8                      9
                      A                      A                      A
 Frequencies --    843.2646               886.8193               942.6002
 Red. masses --      1.3654                 1.6943                 1.4143
 Frc consts  --      0.5721                 0.7851                 0.7404
 IR Inten    --     23.5100                 9.2459                 5.6403

                     10                     11                     12
                      A                      A                      A
 Frequencies --   1003.4924              1047.2312              1221.0479
 Red. masses --      1.7378                 2.5986                 6.6420
 Frc consts  --      1.0310                 1.6791                 5.8346
 IR Inten    --     40.1985                70.6266                92.8950

                     13                     14                     15
                      A                      A                      A
 Frequencies --   1368.8759              1390.3175              1409.9573
 Red. masses --      1.1872                 1.0398                 1.0758
 Frc consts  --      1.3107                 1.1842                 1.2601
 IR Inten    --     46.8637                12.3377                23.3395

                     16                     17                     18
                      A                      A                      A
 Frequencies --   1530.0499              1755.6268              2962.1062
 Red. masses --      8.2038                10.2834                 1.0330
 Frc consts  --     11.3156                18.6746                 5.3402
 IR Inten    --     12.0641                15.1712                56.6551

                     19                     20                     21
                      A                      A                      A
 Frequencies --   3025.9368              3030.3195              3240.1385
 Red. masses --      1.0949                 1.0984                 1.1144
 Frc consts  --      5.9066                 5.9426                 6.8934
 IR Inten    --     11.0021                17.7780                81.3998

 - Thermochemistry -
 -------------------
 Temperature   298.150 Kelvin.  Pressure   1.00000 Atm.
 Atom     1 has atomic number  6 and mass  12.00000

 Molecular mass:    64.03130 amu.
 Principal axes and moments of inertia in atomic units:
                           1         2         3
     Eigenvalues --    73.05315 569.18959 631.14440
           X            0.99998   0.00681   0.00002
           Y           -0.00681   0.99998  -0.00003
           Z           -0.00002   0.00003   1.00000
 This molecule is an asymmetric top.
 Rotational symmetry number  1.
 Rotational temperatures (Kelvin)      1.18563     0.15217     0.13723
 Rotational constants (GHZ):          24.70449     3.17072     2.85947
 Zero-point vibrational energy     166085.2 (Joules/Mol)
                                   39.69532 (Kcal/Mol)
 Warning -- explicit consideration of   5 degrees of freedom as
           vibrations may cause significant error
 Vibrational temperatures:    119.52   242.84   317.03   651.84   698.57
          (Kelvin)           1005.30  1213.27  1275.93  1356.19  1443.80
                             1506.73  1756.81  1969.50  2000.35  2028.61
                             2201.40  2525.95  4261.80  4353.64  4359.95
                             4661.83

 Zero-point correction=                           0.063259 (Hartree/Particle)
 Thermal correction to Energy=                    0.068890
 Thermal correction to Enthalpy=                  0.069834
 Thermal correction to Gibbs Free Energy=         0.033415
 Sum of electronic and zero-point Energies=           -192.357256
 Sum of electronic and thermal Energies=              -192.351624
 Sum of electronic and thermal Enthalpies=            -192.350680
 Sum of electronic and thermal Free Energies=         -192.387099

                     E (Thermal)             CV                S
                      KCal/Mol        Cal/Mol-Kelvin    Cal/Mol-Kelvin
 Total                   43.229             17.947             76.650
 Electronic               0.000              0.000              2.755
 Translational            0.889              2.981             38.389
 Rotational               0.889              2.981             24.777
 Vibrational             41.452             11.985             10.730
 Vibration     1          0.600              1.961              3.817
 Vibration     2          0.625              1.881              2.449
 Vibration     3          0.647              1.810              1.956
 Vibration     4          0.812              1.354              0.787
 Vibration     5          0.842              1.282              0.695

 Optimization completed.
    -- Stationary point found.
 Normal termination of Gaussian 09 at Wed Jul 20 13:36:39 2016.
