 Gaussian 09, Revision E.01,
 Gaussian 09:  EM64L-G09RevE.01 30-Nov-2015

 ---------------------------------------------
 #p b3lyp/6-311++G(3df,2p) freq symmetry=Loose
 ---------------------------------------------

 ---------
 b3lyp opt
 ---------
 Symbolic Z-matrix:
 Charge =  3 Multiplicity = 4

                         Standard orientation:
 ---------------------------------------------------------------------
 Center     Atomic      Atomic             Coordinates (Angstroms)
 Number     Number       Type             X           Y           Z
 ---------------------------------------------------------------------
      1          6           0       -2.322536   -0.599646   -0.002334
      2          6           0       -1.384950    0.278540    0.000056
      3          6           0        0.018706    0.576400    0.001316
      4          1           0       -2.195411    1.141738    0.001441
      5          1           0        0.257504    1.654171    0.001339
      6          6           0        1.137886   -0.428552    0.002237
      7          1           0        1.091971   -1.176266   -0.850103
      8          1           0        1.098541   -1.162890    0.867175
      9          6           0        2.508794    0.097133   -0.004584
 ---------------------------------------------------------------------

 SCF Done:  E(UB3LYP) =  -190.925997145     A.U. after   23 cycles

 The electronic state is 4-A.
 Alpha  occ. eigenvalues --  -11.07813 -11.02480 -10.99255 -10.93630 -10.90936
 Alpha  occ. eigenvalues --   -1.55785  -1.50358  -1.40289  -1.25798  -1.20691
 Alpha  occ. eigenvalues --   -1.16157  -1.12432  -1.10682  -1.08050  -1.04560
 Alpha  occ. eigenvalues --   -1.03799  -0.92464
 Alpha virt. eigenvalues --   -0.84458  -0.80570  -0.78673  -0.64358  -0.55218
 Alpha virt. eigenvalues --   -0.50589  -0.47291  -0.46008  -0.45019  -0.43989
 Alpha virt. eigenvalues --   -0.42285  -0.41018  -0.40056  -0.37690  -0.35800

  Beta  occ. eigenvalues --  -11.05281 -10.99196 -10.98800 -10.93454 -10.90641
  Beta  occ. eigenvalues --   -1.54367  -1.47868  -1.37861  -1.21702  -1.19493
  Beta  occ. eigenvalues --   -1.14082  -1.10494  -1.08431  -1.02211
  Beta virt. eigenvalues --   -0.87891  -0.82829  -0.82790  -0.76736  -0.73934
  Beta virt. eigenvalues --   -0.70853  -0.62342  -0.54653  -0.50294  -0.46577
  Beta virt. eigenvalues --   -0.45701  -0.44119  -0.43227  -0.41228  -0.40212

 Mulliken charges and spin densities:
               1          2
     1  C    0.483216   1.105948
     2  C    0.439313  -0.077069
     3  C    0.381072  -0.014334
     4  H    0.305953  -0.011557
     5  H    0.312810   0.008297
     6  C   -0.089826   0.212236
     7  H    0.320801   0.003652
     8  H    0.321910   0.003145
     9  C    0.524752   1.769681
 Sum of Mulliken charges =   3.00000   3.00000

 Dipole moment (field-independent basis, Debye):
    X=             -1.0548    Y=             -0.1385    Z=              0.0048  Tot=              1.0638
 Quadrupole moment (field-independent basis, Debye-Ang):
   XX=             34.8638   YY=            -11.0318   ZZ=            -20.8432
   XY=             -0.1907   XZ=              0.0119   YZ=             -0.0019

  Exact polarizability:  74.000   4.809  37.682  -0.001  -0.004  26.981
 Approx polarizability: 127.272  24.881  69.582   0.009   0.013  40.084

                      1                      2                      3
                      A                      A                      A
 Frequencies --     40.7283               184.6274               227.5188
 Red. masses --      2.4844                 8.1034                 2.1557
 Frc consts  --      0.0024                 0.1627                 0.0657
 IR Inten    --      4.6443                 4.8480                 0.0046

                      4                      5                      6
                      A                      A                      A
 Frequencies --    342.5358               431.2673               473.9139
 Red. masses --      4.2598                 1.6035                 7.1174
 Frc consts  --      0.2945                 0.1757                 0.9418
 IR Inten    --      8.6413               114.9241                 3.9555

                      7                      8                      9
                      A                      A                      A
 Frequencies --    543.1123               791.5161               830.5052
 Red. masses --      1.5795                 1.1506                 1.8631
 Frc consts  --      0.2745                 0.4247                 0.7571
 IR Inten    --     18.0091                 0.0820                43.6578

                     10                     11                     12
                      A                      A                      A
 Frequencies --    873.6025               941.1752              1032.0246
 Red. masses --      4.1009                 2.6777                 1.6698
 Frc consts  --      1.8440                 1.3975                 1.0479
 IR Inten    --     47.2864                16.2222                91.2559

                     13                     14                     15
                      A                      A                      A
 Frequencies --   1118.3938              1149.6594              1224.5406
 Red. masses --      1.3967                 1.3542                 1.3656
 Frc consts  --      1.0293                 1.0545                 1.2064
 IR Inten    --      2.3802                25.5008                18.8024

                     16                     17                     18
                      A                      A                      A
 Frequencies --   1394.3097              1704.8755              2345.5183
 Red. masses --      1.3619                 9.2523                 1.0725
 Frc consts  --      1.5600                15.8447                 3.4764
 IR Inten    --      5.8797               295.6065               585.9996

                     19                     20                     21
                      A                      A                      A
 Frequencies --   2648.7559              2683.6912              2996.3144
 Red. masses --      1.0804                 1.0644                 1.0927
 Frc consts  --      4.4658                 4.5168                 5.7802
 IR Inten    --    257.6111               300.0096               166.5972

 - Thermochemistry -
 -------------------
 Temperature   298.150 Kelvin.  Pressure   1.00000 Atm.
 Atom     1 has atomic number  6 and mass  12.00000

 Molecular mass:    64.03130 amu.
 Principal axes and moments of inertia in atomic units:
                           1         2         3
     Eigenvalues --    70.47772 670.54430 730.40454
           X            0.99962  -0.02741   0.00012
           Y            0.02741   0.99962  -0.00030
           Z           -0.00012   0.00030   1.00000
 This molecule is an asymmetric top.
 Rotational symmetry number  1.
 Rotational temperatures (Kelvin)      1.22895     0.12917     0.11858
 Rotational constants (GHZ):          25.60726     2.69146     2.47088
 Zero-point vibrational energy     143423.8 (Joules/Mol)
                                   34.27911 (Kcal/Mol)
 Warning -- explicit consideration of   7 degrees of freedom as
           vibrations may cause significant error
 Vibrational temperatures:     58.60   265.64   327.35   492.83   620.50
          (Kelvin)            681.86   781.42  1138.81  1194.91  1256.92
                             1354.14  1484.85  1609.12  1654.10  1761.84
                             2006.10  2452.93  3374.67  3810.96  3861.23
                             4311.02

 Zero-point correction=                           0.054627 (Hartree/Particle)
 Thermal correction to Energy=                    0.060864
 Thermal correction to Enthalpy=                  0.061809
 Thermal correction to Gibbs Free Energy=         0.023865
 Sum of electronic and zero-point Energies=           -190.871370
 Sum of electronic and thermal Energies=              -190.865133
 Sum of electronic and thermal Enthalpies=            -190.864189
 Sum of electronic and thermal Free Energies=         -190.902133

                     E (Thermal)             CV                S
                      KCal/Mol        Cal/Mol-Kelvin    Cal/Mol-Kelvin
 Total                   38.193             20.494             79.860
 Electronic               0.000              0.000              2.755
 Translational            0.889              2.981             38.389
 Rotational               0.889              2.981             25.049
 Vibrational             36.416             14.532             13.667
 Vibration     1          0.594              1.981              5.223
 Vibration     2          0.631              1.861              2.281
 Vibration     3          0.651              1.799              1.898
 Vibration     4          0.722              1.590              1.200
 Vibration     5          0.792              1.402              0.855
 Vibration     6          0.831              1.308              0.727
 Vibration     7          0.898              1.155              0.559

 Normal termination of Gaussian 09 at Mon Jun 20 11:46:26 2016.
