 Gaussian 09, Revision E.01,
 Gaussian 09:  EM64L-G09RevE.01 30-Nov-2015

 ---------------------------------------------
 #p b3lyp/6-311++G(3df,2p) freq symmetry=Loose
 ---------------------------------------------

 ---------
 b3lyp opt
 ---------
 Symbolic Z-matrix:
 Charge =  0 Multiplicity = 3

                         Standard orientation:
 ---------------------------------------------------------------------
 Center     Atomic      Atomic             Coordinates (Angstroms)
 Number     Number       Type             X           Y           Z
 ---------------------------------------------------------------------
      1          6           0        0.123877    1.096526   -0.000101
      2          6           0       -0.659419   -1.132686    0.000134
      3          1           0        0.186020    2.179622   -0.000197
      4          1           0       -1.789193    0.503625   -0.870519
      5          6           0        0.696261   -1.105691    0.000055
      6          6           0       -1.158854    0.297430    0.000040
      7          1           0       -1.789095    0.503774    0.870635
      8          6           0        1.191743    0.225382   -0.000087
      9          1           0        2.230618    0.527214   -0.000171
 ---------------------------------------------------------------------

 SCF Done:  E(UB3LYP) =  -192.758806325     A.U. after   17 cycles

 The electronic state is 3-A.
 Alpha  occ. eigenvalues --  -10.23311 -10.21452 -10.20860 -10.20173 -10.19524
 Alpha  occ. eigenvalues --   -0.89746  -0.73582  -0.73021  -0.58313  -0.51564
 Alpha  occ. eigenvalues --   -0.51161  -0.47109  -0.41114  -0.40084  -0.34496
 Alpha  occ. eigenvalues --   -0.27901  -0.26918  -0.21751
 Alpha virt. eigenvalues --   -0.07140  -0.01407   0.00927   0.01874   0.01992
 Alpha virt. eigenvalues --    0.03654   0.05337   0.05764   0.06756   0.07295
 Alpha virt. eigenvalues --    0.09027   0.09885   0.11028   0.11090   0.12365

  Beta  occ. eigenvalues --  -10.22654 -10.21367 -10.20651 -10.18861 -10.18132
  Beta  occ. eigenvalues --   -0.88043  -0.72729  -0.70126  -0.57384  -0.50196
  Beta  occ. eigenvalues --   -0.49005  -0.45813  -0.40385  -0.38972  -0.32231
  Beta  occ. eigenvalues --   -0.22073
  Beta virt. eigenvalues --   -0.16007  -0.09315  -0.03785  -0.01346   0.01054
  Beta virt. eigenvalues --    0.02010   0.02071   0.05485   0.06050   0.07017
  Beta virt. eigenvalues --    0.07117   0.07433   0.09717   0.10036   0.11158

 Mulliken charges and spin densities:
               1          2
     1  C   -0.043488   0.498403
     2  C   -0.350241   0.774826
     3  H    0.192435  -0.019898
     4  H    0.134096   0.001365
     5  C    0.083019   0.876375
     6  C   -0.202702  -0.023017
     7  H    0.134096   0.001365
     8  C   -0.115920  -0.107735
     9  H    0.168705  -0.001684
 Sum of Mulliken charges =  -0.00000   2.00000

 Dipole moment (field-independent basis, Debye):
    X=             -0.0768    Y=              4.0193    Z=             -0.0003  Tot=              4.0201
 Quadrupole moment (field-independent basis, Debye-Ang):
   XX=            -28.7650   YY=            -34.3516   ZZ=            -30.1346
   XY=             -0.5859   XZ=             -0.0000   YZ=              0.0004

  Exact polarizability:  78.909   0.757  69.018  -0.003  -0.003  35.051
 Approx polarizability: 129.819  -0.117 107.691  -0.004  -0.004  63.308

                      1                      2                      3
                      A                      A                      A
 Frequencies --    317.0614               481.2509               488.8118
 Red. masses --      1.6213                 9.8761                 3.0114
 Frc consts  --      0.0960                 1.3477                 0.4239
 IR Inten    --      2.2130               261.4710                 0.0465

                      4                      5                      6
                      A                      A                      A
 Frequencies --    793.3160               819.0024               892.4545
 Red. masses --      1.9126                 7.0236                 2.3949
 Frc consts  --      0.7092                 2.7758                 1.1239
 IR Inten    --     24.9997                 0.3867                14.1915

                      7                      8                      9
                      A                      A                      A
 Frequencies --    929.0171               962.4437               974.3429
 Red. masses --      3.4792                 1.3186                 1.3454
 Frc consts  --      1.7692                 0.7196                 0.7525
 IR Inten    --     10.3753                86.5918                27.6053

                     10                     11                     12
                      A                      A                      A
 Frequencies --   1087.1534              1100.9213              1132.0710
 Red. masses --      1.6479                 2.3346                 1.1756
 Frc consts  --      1.1475                 1.6671                 0.8877
 IR Inten    --      6.9843                12.4581                 4.2168

                     13                     14                     15
                      A                      A                      A
 Frequencies --   1220.7461              1350.7179              1389.6457
 Red. masses --      1.5619                 1.7686                 1.4996
 Frc consts  --      1.3713                 1.9011                 1.7062
 IR Inten    --     15.1834                23.5750                 3.0199

                     16                     17                     18
                      A                      A                      A
 Frequencies --   1436.6455              1499.3886              3024.5747
 Red. masses --      1.9587                 7.9514                 1.0605
 Frc consts  --      2.3818                10.5322                 5.7159
 IR Inten    --     37.4301                15.6250                 3.7024

                     19                     20                     21
                      A                      A                      A
 Frequencies --   3047.5187              3150.7868              3184.7741
 Red. masses --      1.0987                 1.0882                 1.0973
 Frc consts  --      6.0119                 6.3650                 6.5575
 IR Inten    --      0.0001                11.5391                24.6552

 - Thermochemistry -
 -------------------
 Temperature   298.150 Kelvin.  Pressure   1.00000 Atm.
 Atom     1 has atomic number  6 and mass  12.00000

 Molecular mass:    64.03130 amu.
 Principal axes and moments of inertia in atomic units:
                           1         2         3
     Eigenvalues --   189.41712 204.99751 383.50381
           X            0.99785  -0.06558   0.00006
           Y            0.06558   0.99785   0.00009
           Z           -0.00006  -0.00008   1.00000
 This molecule is an asymmetric top.
 Rotational symmetry number  1.
 Rotational temperatures (Kelvin)      0.45726     0.42251     0.22585
 Rotational constants (GHZ):           9.52787     8.80372     4.70593
 Zero-point vibrational energy     175149.1 (Joules/Mol)
                                   41.86164 (Kcal/Mol)
 Warning -- explicit consideration of   3 degrees of freedom as
           vibrations may cause significant error
 Vibrational temperatures:    456.18   692.41   703.29  1141.40  1178.36
          (Kelvin)           1284.04  1336.65  1384.74  1401.86  1564.17
                             1583.98  1628.80  1756.38  1943.38  1999.39
                             2067.01  2157.28  4351.68  4384.69  4533.27
                             4582.17

 Zero-point correction=                           0.066711 (Hartree/Particle)
 Thermal correction to Energy=                    0.070871
 Thermal correction to Enthalpy=                  0.071815
 Thermal correction to Gibbs Free Energy=         0.039183
 Sum of electronic and zero-point Energies=           -192.692096
 Sum of electronic and thermal Energies=              -192.687936
 Sum of electronic and thermal Enthalpies=            -192.686991
 Sum of electronic and thermal Free Energies=         -192.719623

                     E (Thermal)             CV                S
                      KCal/Mol        Cal/Mol-Kelvin    Cal/Mol-Kelvin
 Total                   44.472             14.669             68.679
 Electronic               0.000              0.000              2.183
 Translational            0.889              2.981             38.389
 Rotational               0.889              2.981             24.214
 Vibrational             42.695              8.707              3.893
 Vibration     1          0.704              1.641              1.325
 Vibration     2          0.838              1.292              0.707
 Vibration     3          0.845              1.275              0.687

 Optimization completed.
    -- Stationary point found.
 Normal termination of Gaussian 09 at Wed Jul 20 12:47:27 2016.
