 Gaussian 09, Revision E.01,
 Gaussian 09:  EM64L-G09RevE.01 30-Nov-2015

 ---------------------------------------------
 #p b3lyp/6-311++G(3df,2p) freq symmetry=Loose
 ---------------------------------------------

 ---------
 b3lyp opt
 ---------
 Symbolic Z-matrix:
 Charge =  1 Multiplicity = 4

                         Standard orientation:
 ---------------------------------------------------------------------
 Center     Atomic      Atomic             Coordinates (Angstroms)
 Number     Number       Type             X           Y           Z
 ---------------------------------------------------------------------
      1          6           0       -1.456031   -0.000016    0.266395
      2          1           0       -2.369466    0.000019   -0.319470
      3          1           0       -1.627799   -0.000080    1.340190
      4          6           0       -0.321943    0.864700   -0.192015
      5          6           0       -0.321943   -0.864678   -0.192119
      6          1           0       -0.337156   -1.649225   -0.940861
      7          6           0        0.759286   -0.000007    0.115918
      8          6           0        2.119227   -0.000009    0.145288
      9          1           0       -0.337156    1.649338   -0.940664
 ---------------------------------------------------------------------

 SCF Done:  E(UB3LYP) =  -192.392364789     A.U. after   14 cycles

 The electronic state is 4-A.
 Alpha  occ. eigenvalues --  -10.49710 -10.48477 -10.48470 -10.47908 -10.42615
 Alpha  occ. eigenvalues --   -1.18973  -1.00656  -0.88444  -0.87895  -0.78237
 Alpha  occ. eigenvalues --   -0.69946  -0.66653  -0.66202  -0.62528  -0.59937
 Alpha  occ. eigenvalues --   -0.58071  -0.48017  -0.47044
 Alpha virt. eigenvalues --   -0.27097  -0.23479  -0.14379  -0.13349  -0.13086
 Alpha virt. eigenvalues --   -0.12352  -0.08762  -0.07910  -0.07222  -0.06830
 Alpha virt. eigenvalues --   -0.06603  -0.05873  -0.04652  -0.03872  -0.02648

  Beta  occ. eigenvalues --  -10.47965 -10.47945 -10.47884 -10.45372 -10.42637
  Beta  occ. eigenvalues --   -1.18028  -0.96337  -0.86631  -0.84894  -0.77638
  Beta  occ. eigenvalues --   -0.67741  -0.65510  -0.64470  -0.59112  -0.55728
  Beta virt. eigenvalues --   -0.38659  -0.35357  -0.28354  -0.24283  -0.18808
  Beta virt. eigenvalues --   -0.13613  -0.12913  -0.12439  -0.11872  -0.08534
  Beta virt. eigenvalues --   -0.07680  -0.06528  -0.06325  -0.05648  -0.05373

 Mulliken charges and spin densities:
               1          2
     1  C   -0.550346  -0.038058
     2  H    0.187211   0.011371
     3  H    0.257583   0.046856
     4  C    0.077915   0.331996
     5  C    0.077916   0.331996
     6  H    0.260566  -0.005286
     7  C    0.436102  -0.187549
     8  C   -0.007513   2.513959
     9  H    0.260566  -0.005286
 Sum of Mulliken charges =   1.00000   3.00000

 Dipole moment (field-independent basis, Debye):
    X=             -0.6145    Y=              0.0001    Z=             -0.8491  Tot=              1.0482
 Quadrupole moment (field-independent basis, Debye-Ang):
   XX=            -16.3716   YY=            -22.1748   ZZ=            -24.6318
   XY=             -0.0000   XZ=              0.3584   YZ=              0.0001

  Exact polarizability:  68.067   0.002  42.663  -0.141   0.003  33.272
 Approx polarizability: 107.411  -0.000  73.127   0.324   0.001  48.022

                      1                      2                      3
                      A                      A                      A
 Frequencies --    280.4863               410.4875               514.3996
 Red. masses --      3.4059                 5.6037                 2.9093
 Frc consts  --      0.1579                 0.5563                 0.4536
 IR Inten    --      1.1026                 1.3491                14.5883

                      4                      5                      6
                      A                      A                      A
 Frequencies --    682.1337               757.7625               873.0600
 Red. masses --      3.2111                 2.7292                 1.6028
 Frc consts  --      0.8803                 0.9233                 0.7198
 IR Inten    --      0.6725                 0.0024                10.1995

                      7                      8                      9
                      A                      A                      A
 Frequencies --    921.0059               996.2459              1026.8091
 Red. masses --      1.6391                 1.6465                 1.5895
 Frc consts  --      0.8192                 0.9628                 0.9874
 IR Inten    --     14.8428                 1.6898                 0.1548

                     10                     11                     12
                      A                      A                      A
 Frequencies --   1030.3719              1114.2488              1120.9384
 Red. masses --      2.2324                 2.5038                 1.1724
 Frc consts  --      1.3964                 1.8315                 0.8679
 IR Inten    --     13.0474                 3.1129                 7.9499

                     13                     14                     15
                      A                      A                      A
 Frequencies --   1134.3828              1249.2560              1298.0225
 Red. masses --      1.5186                 1.8304                 2.4074
 Frc consts  --      1.1514                 1.6831                 2.3898
 IR Inten    --      1.5869                24.3929                 5.8976

                     16                     17                     18
                      A                      A                      A
 Frequencies --   1459.3356              1504.4689              3081.5807
 Red. masses --      2.2815                 1.7241                 1.0577
 Frc consts  --      2.8628                 2.2992                 5.9178
 IR Inten    --      3.9950                13.5058                23.5037

                     19                     20                     21
                      A                      A                      A
 Frequencies --   3168.0533              3177.9764              3182.6801
 Red. masses --      1.1116                 1.0933                 1.0985
 Frc consts  --      6.5734                 6.5058                 6.5557
 IR Inten    --      1.2728                34.7361                25.7383

 - Thermochemistry -
 -------------------
 Temperature   298.150 Kelvin.  Pressure   1.00000 Atm.
 Atom     1 has atomic number  6 and mass  12.00000

 Molecular mass:    64.03130 amu.
 Principal axes and moments of inertia in atomic units:
                           1         2         3
     Eigenvalues --   104.48451 367.10163 429.93807
           X            0.99997   0.00000  -0.00792
           Y           -0.00000   1.00000  -0.00006
           Z            0.00792   0.00006   0.99997
 This molecule is an asymmetric top.
 Rotational symmetry number  1.
 Rotational temperatures (Kelvin)      0.82896     0.23594     0.20146
 Rotational constants (GHZ):          17.27281     4.91619     4.19768
 Zero-point vibrational energy     173361.1 (Joules/Mol)
                                   41.43429 (Kcal/Mol)
 Warning -- explicit consideration of   3 degrees of freedom as
           vibrations may cause significant error
 Vibrational temperatures:    403.56   590.60   740.11   981.44  1090.25
          (Kelvin)           1256.14  1325.12  1433.37  1477.35  1482.47
                             1603.15  1612.78  1632.12  1797.40  1867.56
                             2099.66  2164.59  4433.70  4558.12  4572.39
                             4579.16

 Zero-point correction=                           0.066030 (Hartree/Particle)
 Thermal correction to Energy=                    0.070349
 Thermal correction to Enthalpy=                  0.071293
 Thermal correction to Gibbs Free Energy=         0.038075
 Sum of electronic and zero-point Energies=           -192.326335
 Sum of electronic and thermal Energies=              -192.322016
 Sum of electronic and thermal Enthalpies=            -192.321072
 Sum of electronic and thermal Free Energies=         -192.354290

                     E (Thermal)             CV                S
                      KCal/Mol        Cal/Mol-Kelvin    Cal/Mol-Kelvin
 Total                   44.145             15.275             69.913
 Electronic               0.000              0.000              2.755
 Translational            0.889              2.981             38.389
 Rotational               0.889              2.981             24.315
 Vibrational             42.367              9.314              4.454
 Vibration     1          0.680              1.710              1.531
 Vibration     2          0.775              1.447              0.925
 Vibration     3          0.869              1.218              0.623

 Optimization completed.
    -- Stationary point found.
 Normal termination of Gaussian 09 at Wed Jul 20 17:36:05 2016.
