 Gaussian 09, Revision E.01,
 Gaussian 09:  EM64L-G09RevE.01 30-Nov-2015

 ---------------------------------------------
 #p b3lyp/6-311++G(3df,2p) freq symmetry=Loose
 ---------------------------------------------

 ---------
 b3lyp opt
 ---------
 Symbolic Z-matrix:
 Charge =  2 Multiplicity = 1

                         Standard orientation:
 ---------------------------------------------------------------------
 Center     Atomic      Atomic             Coordinates (Angstroms)
 Number     Number       Type             X           Y           Z
 ---------------------------------------------------------------------
      1          6           0        0.000000    0.715321    0.000000
      2          6           0       -0.013547    2.107060    0.000000
      3          6           0       -0.072955   -0.315177    0.997139
      4          1           0       -0.395501   -0.293661    2.043627
      5          6           0        0.167135   -1.412344   -0.000000
      6          1           0        1.217589   -1.781348   -0.000000
      7          1           0       -0.472416   -2.309418   -0.000000
      8          6           0       -0.072955   -0.315177   -0.997139
      9          1           0       -0.395501   -0.293661   -2.043627
 ---------------------------------------------------------------------

 SCF Done:  E(RB3LYP) =  -191.881010972     A.U. after   12 cycles

 The electronic state is 1-A'.
 Alpha  occ. eigenvalues --  -10.80688 -10.77433 -10.77432 -10.70074 -10.66820
 Alpha  occ. eigenvalues --   -1.41572  -1.24215  -1.15301  -1.10050  -1.01737
 Alpha  occ. eigenvalues --   -0.92310  -0.92064  -0.89361  -0.86081  -0.80634
 Alpha  occ. eigenvalues --   -0.77731
 Alpha virt. eigenvalues --   -0.61875  -0.60756  -0.60157  -0.42149  -0.33042
 Alpha virt. eigenvalues --   -0.32547  -0.31768  -0.31336  -0.28061  -0.26330
 Alpha virt. eigenvalues --   -0.25986  -0.24002  -0.22535  -0.22005  -0.21996

 Mulliken charges:
               1
     1  C    0.550509
     2  C   -0.179823
     3  C    0.445686
     4  H    0.362625
     5  C   -0.519997
     6  H    0.275633
     7  H    0.257055
     8  C    0.445686
     9  H    0.362625
 Sum of Mulliken charges =   2.00000

 Dipole moment (field-independent basis, Debye):
    X=             -0.2210    Y=             -1.3429    Z=              0.0000  Tot=              1.3609
 Quadrupole moment (field-independent basis, Debye-Ang):
   XX=            -22.2860   YY=             -8.8970   ZZ=            -10.9581
   XY=             -0.9821   XZ=             -0.0000   YZ=              0.0000

  Exact polarizability:  29.408  -2.060  66.279   0.000  -0.000  41.940
 Approx polarizability:  46.197  -5.322 131.515   0.000  -0.000  70.769

                      1                      2                      3
                     A'                     A"                     A'
 Frequencies --    118.9430               209.0819               248.5517
 Red. masses --      1.7832                 6.1194                 4.6669
 Frc consts  --      0.0149                 0.1576                 0.1699
 IR Inten    --      6.7184                 7.2561                 6.2868

                      4                      5                      6
                     A'                     A'                     A"
 Frequencies --    622.2577               759.7488               807.6613
 Red. masses --      1.6554                 2.6411                 2.1474
 Frc consts  --      0.3776                 0.8982                 0.8253
 IR Inten    --     18.4246                22.8058                 1.0678

                      7                      8                      9
                     A"                     A'                     A'
 Frequencies --    856.7259               942.1936              1027.3190
 Red. masses --      1.1295                 1.8851                 4.6745
 Frc consts  --      0.4884                 0.9860                 2.9067
 IR Inten    --      4.2994                69.4649                41.7423

                     10                     11                     12
                     A'                     A"                     A"
 Frequencies --   1068.0875              1086.4167              1137.9264
 Red. masses --      2.4246                 4.5959                 1.3737
 Frc consts  --      1.6297                 3.1961                 1.0480
 IR Inten    --      4.2203                61.1532                 0.0708

                     13                     14                     15
                     A"                     A"                     A'
 Frequencies --   1185.3820              1252.2118              1283.5477
 Red. masses --      1.3210                 1.5970                 1.4307
 Frc consts  --      1.0936                 1.4754                 1.3887
 IR Inten    --      0.6852                65.9483                76.4033

                     16                     17                     18
                     A'                     A'                     A'
 Frequencies --   1318.2780              1540.2657              2860.9803
 Red. masses --      1.3534                 8.8801                 1.0744
 Frc consts  --      1.3858                12.4125                 5.1815
 IR Inten    --    225.9955               666.8121               327.2188

                     19                     20                     21
                     A'                     A'                     A"
 Frequencies --   2980.4919              3104.1497              3104.9618
 Red. masses --      1.0852                 1.1039                 1.0998
 Frc consts  --      5.6798                 6.2668                 6.2472
 IR Inten    --    183.6946                13.7483               204.7335

 - Thermochemistry -
 -------------------
 Temperature   298.150 Kelvin.  Pressure   1.00000 Atm.
 Atom     1 has atomic number  6 and mass  12.00000

 Molecular mass:    64.03130 amu.
 Principal axes and moments of inertia in atomic units:
                           1         2         3
     Eigenvalues --   123.73260 345.13379 451.95678
           X           -0.03788   0.00000   0.99928
           Y            0.99928   0.00000   0.03788
           Z           -0.00000   1.00000  -0.00000
 This molecule is an asymmetric top.
 Rotational symmetry number  1.
 Rotational temperatures (Kelvin)      0.70001     0.25096     0.19164
 Rotational constants (GHZ):          14.58582     5.22911     3.99317
 Zero-point vibrational energy     164577.3 (Joules/Mol)
                                   39.33493 (Kcal/Mol)
 Warning -- explicit consideration of   3 degrees of freedom as
           vibrations may cause significant error
 Vibrational temperatures:    171.13   300.82   357.61   895.29  1093.11
          (Kelvin)           1162.04  1232.64  1355.60  1478.08  1536.74
                             1563.11  1637.22  1705.50  1801.65  1846.74
                             1896.71  2216.10  4116.31  4288.26  4466.17
                             4467.34

 Zero-point correction=                           0.062684 (Hartree/Particle)
 Thermal correction to Energy=                    0.067843
 Thermal correction to Enthalpy=                  0.068787
 Thermal correction to Gibbs Free Energy=         0.034897
 Sum of electronic and zero-point Energies=           -191.818327
 Sum of electronic and thermal Energies=              -191.813168
 Sum of electronic and thermal Enthalpies=            -191.812224
 Sum of electronic and thermal Free Energies=         -191.846114

                     E (Thermal)             CV                S
                      KCal/Mol        Cal/Mol-Kelvin    Cal/Mol-Kelvin
 Total                   42.572             16.783             71.327
 Electronic               0.000              0.000              0.000
 Translational            0.889              2.981             38.389
 Rotational               0.889              2.981             24.471
 Vibrational             40.794             10.822              8.466
 Vibration     1          0.609              1.934              3.117
 Vibration     2          0.642              1.827              2.052
 Vibration     3          0.662              1.765              1.741

 Normal termination of Gaussian 09 at Tue Jul 19 21:57:49 2016.
