 Gaussian 09, Revision E.01,
 Gaussian 09:  EM64L-G09RevE.01 30-Nov-2015

 ---------------------------------------------
 #p b3lyp/6-311++G(3df,2p) freq symmetry=Loose
 ---------------------------------------------

 ---------
 b3lyp opt
 ---------
 Symbolic Z-matrix:
 Charge =  2 Multiplicity = 3

                         Standard orientation:
 ---------------------------------------------------------------------
 Center     Atomic      Atomic             Coordinates (Angstroms)
 Number     Number       Type             X           Y           Z
 ---------------------------------------------------------------------
      1          6           0        0.000000    0.000000   -2.474731
      2          1           0        0.000000    1.042524   -2.871027
      3          1           0        0.902852   -0.521262   -2.871027
      4          1           0       -0.902852   -0.521262   -2.871027
      5          6           0        0.000000    0.000000   -1.099026
      6          6           0       -0.000000   -0.000000    0.178112
      7          6           0       -0.000000   -0.000000    1.466731
      8          6           0       -0.000000   -0.000000    2.728304
      9          1           0       -0.000000   -0.000000    3.816735
 ---------------------------------------------------------------------

 SCF Done:  E(UB3LYP) =  -191.983452287     A.U. after   14 cycles

 The electronic state is 3-A1.
 Alpha  occ. eigenvalues --  -10.75704 -10.73882 -10.71669 -10.70572 -10.61770
 Alpha  occ. eigenvalues --   -1.32177  -1.27349  -1.19822  -1.12032  -0.98655
 Alpha  occ. eigenvalues --   -0.92486  -0.88613  -0.88613  -0.83024  -0.83024
 Alpha  occ. eigenvalues --   -0.74105  -0.74105
 Alpha virt. eigenvalues --   -0.52738  -0.52738  -0.33418  -0.33418  -0.32197
 Alpha virt. eigenvalues --   -0.30028  -0.28085  -0.24593  -0.24593  -0.24515
 Alpha virt. eigenvalues --   -0.22476  -0.22476  -0.21820  -0.20077  -0.20077

  Beta  occ. eigenvalues --  -10.74745 -10.72368 -10.71153 -10.70588 -10.61704
  Beta  occ. eigenvalues --   -1.29614  -1.24297  -1.17819  -1.10478  -0.97263
  Beta  occ. eigenvalues --   -0.91325  -0.85838  -0.85838  -0.80050  -0.80050
  Beta virt. eigenvalues --   -0.64078  -0.64078  -0.48124  -0.48124  -0.31887
  Beta virt. eigenvalues --   -0.30682  -0.30682  -0.28366  -0.27740  -0.24210
  Beta virt. eigenvalues --   -0.24210  -0.23178  -0.21912  -0.21912  -0.21018

 Mulliken charges and spin densities:
               1          2
     1  C   -0.235622   0.066314
     2  H    0.274755   0.055287
     3  H    0.274755   0.055287
     4  H    0.274755   0.055287
     5  C    0.658889   0.162260
     6  C   -0.470134   0.579326
     7  C    0.270441   0.414465
     8  C    0.512323   0.637581
     9  H    0.439838  -0.025807
 Sum of Mulliken charges =   2.00000   2.00000

 Dipole moment (field-independent basis, Debye):
    X=             -0.0000    Y=             -0.0000    Z=              1.1800  Tot=              1.1800
 Quadrupole moment (field-independent basis, Debye-Ang):
   XX=            -23.2520   YY=            -23.2520   ZZ=             38.9367
   XY=             -0.0000   XZ=              0.0000   YZ=              0.0000

  Exact polarizability:  28.254   0.000  28.254  -0.000   0.000 137.252
 Approx polarizability:  40.208  -0.000  40.208   0.000  -0.000 283.301

                      1                      2                      3
                      E                      E                      E
 Frequencies --    140.3572               140.3600               344.9389
 Red. masses --      3.5404                 3.5405                 3.1053
 Frc consts  --      0.0411                 0.0411                 0.2177
 IR Inten    --     16.3110                16.3083                 0.3177

                      4                      5                      6
                      E                      E                      E
 Frequencies --    344.9456               531.0067               531.0142
 Red. masses --      3.1053                 4.4990                 4.4988
 Frc consts  --      0.2177                 0.7474                 0.7474
 IR Inten    --      0.3180                 6.4695                 6.4681

                      7                      8                      9
                     A1                      E                      E
 Frequencies --    706.5482               708.2734               708.2735
 Red. masses --      4.6463                 1.3886                 1.3886
 Frc consts  --      1.3666                 0.4104                 0.4104
 IR Inten    --     11.4414                18.1754                18.1755

                     10                     11                     12
                      E                      E                      E
 Frequencies --    859.5874               859.6059              1207.5680
 Red. masses --      1.7278                 1.7279                 1.0380
 Frc consts  --      0.7522                 0.7522                 0.8918
 IR Inten    --     34.2660                34.2607                36.7874

                     13                     14                     15
                      E                     A1                     A1
 Frequencies --   1207.5725              1247.1553              1326.0085
 Red. masses --      1.0380                 1.5289                 3.1253
 Frc consts  --      0.8918                 1.4011                 3.2376
 IR Inten    --     36.7827                72.1861               115.8248

                     16                     17                     18
                     A1                     A1                     A1
 Frequencies --   1825.0201              2195.8370              2811.7736
 Red. masses --      8.1050                10.4590                 1.0323
 Frc consts  --     15.9052                29.7126                 4.8087
 IR Inten    --   1039.3673                39.7066              1102.8491

                     19                     20                     21
                      E                      E                     A1
 Frequencies --   2847.2732              2847.2770              3201.2438
 Red. masses --      1.0910                 1.0910                 1.1417
 Frc consts  --      5.2113                 5.2113                 6.8936
 IR Inten    --    156.8460               156.8303               415.7506

 - Thermochemistry -
 -------------------
 Temperature   298.150 Kelvin.  Pressure   1.00000 Atm.
 Atom     1 has atomic number  6 and mass  12.00000

 Molecular mass:    64.03130 amu.
 Principal axes and moments of inertia in atomic units:
                           1         2         3
     Eigenvalues --    11.73482 872.76291 872.76291
           X            0.00000   0.13728   0.99053
           Y            0.00000   0.99053  -0.13728
           Z            1.00000  -0.00000  -0.00000
 This molecule is a prolate symmetric top.
 Rotational symmetry number  3.
 Rotational temperatures (Kelvin)      7.38093     0.09924     0.09924
 Rotational constants (GHZ):         153.79374     2.06785     2.06785
 Zero-point vibrational energy     159053.3 (Joules/Mol)
                                   38.01466 (Kcal/Mol)
 Warning -- explicit consideration of   6 degrees of freedom as
           vibrations may cause significant error
 Vibrational temperatures:    201.94   201.95   496.29   496.30   764.00
          (Kelvin)            764.01  1016.56  1019.05  1019.05  1236.75
                             1236.78  1737.42  1737.43  1794.38  1907.83
                             2625.79  3159.32  4045.51  4096.59  4096.59
                             4605.87

 Zero-point correction=                           0.060580 (Hartree/Particle)
 Thermal correction to Energy=                    0.066384
 Thermal correction to Enthalpy=                  0.067328
 Thermal correction to Gibbs Free Energy=         0.032832
 Sum of electronic and zero-point Energies=           -191.922872
 Sum of electronic and thermal Energies=              -191.917068
 Sum of electronic and thermal Enthalpies=            -191.916124
 Sum of electronic and thermal Free Energies=         -191.950620

                     E (Thermal)             CV                S
                      KCal/Mol        Cal/Mol-Kelvin    Cal/Mol-Kelvin
 Total                   41.657             19.622             72.603
 Electronic               0.000              0.000              2.183
 Translational            0.889              2.981             38.389
 Rotational               0.889              2.981             21.523
 Vibrational             39.879             13.660             10.508
 Vibration     1          0.615              1.913              2.799
 Vibration     2          0.615              1.913              2.799
 Vibration     3          0.723              1.586              1.189
 Vibration     4          0.723              1.586              1.189
 Vibration     5          0.886              1.181              0.585
 Vibration     6          0.886              1.181              0.585

 Optimization completed.
    -- Stationary point found.
 Normal termination of Gaussian 09 at Wed Jul 20 01:58:20 2016.
