 Gaussian 09, Revision E.01,
 Gaussian 09:  EM64L-G09RevE.01 30-Nov-2015

 ---------------------------------------------
 #p b3lyp/6-311++G(3df,2p) freq symmetry=Loose
 ---------------------------------------------

 ---------
 b3lyp opt
 ---------
 Symbolic Z-matrix:
 Charge =  3 Multiplicity = 4

                         Standard orientation:
 ---------------------------------------------------------------------
 Center     Atomic      Atomic             Coordinates (Angstroms)
 Number     Number       Type             X           Y           Z
 ---------------------------------------------------------------------
      1          6           0       -0.000867    0.445558   -0.000000
      2          6           0        0.000305   -0.277765    1.291854
      3          6           0        0.000305   -0.277765   -1.291854
      4          1           0       -0.839333    1.219071   -0.000000
      5          1           0        0.834165    1.222516   -0.000000
      6          1           0        0.001527   -1.416027    1.442277
      7          1           0        0.001527   -1.416027   -1.442277
      8          6           0        0.000305    0.087525    2.552375
      9          6           0        0.000305    0.087525   -2.552375
 ---------------------------------------------------------------------

 SCF Done:  E(UB3LYP) =  -190.934534929     A.U. after   14 cycles

 The electronic state is 4-A".
 Alpha  occ. eigenvalues --  -11.06403 -11.06403 -10.94009 -10.94009 -10.92090
 Alpha  occ. eigenvalues --   -1.55230  -1.52346  -1.42059  -1.22402  -1.22227
 Alpha  occ. eigenvalues --   -1.16112  -1.11955  -1.10868  -1.08351  -1.07806
 Alpha  occ. eigenvalues --   -1.02664  -0.99148
 Alpha virt. eigenvalues --   -0.81813  -0.80860  -0.70086  -0.69927  -0.52184
 Alpha virt. eigenvalues --   -0.52017  -0.49098  -0.46204  -0.45677  -0.41717
 Alpha virt. eigenvalues --   -0.41118  -0.39978  -0.39629  -0.39188  -0.35422

  Beta  occ. eigenvalues --  -11.03463 -11.03463 -10.93774 -10.93774 -10.91870
  Beta  occ. eigenvalues --   -1.53241  -1.49058  -1.39190  -1.20800  -1.20039
  Beta  occ. eigenvalues --   -1.14755  -1.09489  -1.07929  -0.96494
  Beta virt. eigenvalues --   -0.88572  -0.86690  -0.85524  -0.77600  -0.76126
  Beta virt. eigenvalues --   -0.65614  -0.64553  -0.52069  -0.51511  -0.48584
  Beta virt. eigenvalues --   -0.44718  -0.44325  -0.41452  -0.40746  -0.39527

 Mulliken charges and spin densities:
               1          2
     1  C    0.433061   0.028444
     2  C    0.375655   0.149252
     3  C    0.375655   0.149252
     4  H    0.332295   0.076390
     5  H    0.332058   0.076144
     6  H    0.286445  -0.007088
     7  H    0.286445  -0.007088
     8  C    0.289193   1.267347
     9  C    0.289193   1.267347
 Sum of Mulliken charges =   3.00000   3.00000

 Dipole moment (field-independent basis, Debye):
    X=             -0.0000    Y=             -0.4674    Z=              0.0000  Tot=              0.4674
 Quadrupole moment (field-independent basis, Debye-Ang):
   XX=            -22.3385   YY=            -11.0395   ZZ=             39.3473
   XY=             -0.0150   XZ=              0.0000   YZ=              0.0000

  Exact polarizability:  27.624  -0.012  36.004   0.000  -0.000 133.180
 Approx polarizability:  38.979  -0.027  60.194   0.000   0.000 314.276

                      1                      2                      3
                     A'                     A"                     A'
 Frequencies --    132.3998               175.4275               220.7400
 Red. masses --      3.0563                 2.0212                 7.1507
 Frc consts  --      0.0316                 0.0366                 0.2053
 IR Inten    --      4.4348                 0.0000                 3.9229

                      4                      5                      6
                     A"                     A'                     A'
 Frequencies --    355.3520               406.2771               423.4220
 Red. masses --      6.2023                 1.4011                 4.7593
 Frc consts  --      0.4614                 0.1363                 0.5027
 IR Inten    --     10.9397               137.6312                 6.3156

                      7                      8                      9
                     A"                     A'                     A'
 Frequencies --    592.8630               774.0484               779.5609
 Red. masses --      1.6336                 3.7414                 2.3152
 Frc consts  --      0.3383                 1.3207                 0.8290
 IR Inten    --      0.0001                 0.0028                 4.6979

                     10                     11                     12
                     A"                     A'                     A"
 Frequencies --    903.5716              1004.1325              1024.1788
 Red. masses --      1.1567                 1.2785                 2.2751
 Frc consts  --      0.5564                 0.7595                 1.4060
 IR Inten    --     60.3082               163.6318                64.3503

                     13                     14                     15
                     A'                     A"                     A"
 Frequencies --   1084.4598              1106.8920              1201.4432
 Red. masses --      1.1562                 1.0687                 1.9150
 Frc consts  --      0.8012                 0.7715                 1.6287
 IR Inten    --     63.0364                 0.0050               713.4546

                     16                     17                     18
                     A"                     A'                     A'
 Frequencies --   1466.9100              1592.0412              2535.6891
 Red. masses --      4.9123                 8.5435                 1.0724
 Frc consts  --      6.2279                12.7584                 4.0625
 IR Inten    --   1242.5052                13.1336               277.2309

                     19                     20                     21
                     A"                     A'                     A'
 Frequencies --   2573.5767              2611.4427              2636.5283
 Red. masses --      1.0750                 1.0755                 1.0708
 Frc consts  --      4.1950                 4.3215                 4.3854
 IR Inten    --    204.9976               853.0150               149.7732

 - Thermochemistry -
 -------------------
 Temperature   298.150 Kelvin.  Pressure   1.00000 Atm.
 Atom     1 has atomic number  6 and mass  12.00000

 Molecular mass:    64.03130 amu.
 Principal axes and moments of inertia in atomic units:
                           1         2         3
     Eigenvalues --    45.96812 721.38441 757.27307
           X            0.00000  -0.00138   1.00000
           Y            0.00000   1.00000   0.00138
           Z            1.00000   0.00000   0.00000
 This molecule is an asymmetric top.
 Rotational symmetry number  1.
 Rotational temperatures (Kelvin)      1.88421     0.12007     0.11438
 Rotational constants (GHZ):          39.26072     2.50177     2.38321
 Zero-point vibrational energy     141165.1 (Joules/Mol)
                                   33.73926 (Kcal/Mol)
 Warning -- explicit consideration of   7 degrees of freedom as
           vibrations may cause significant error
 Vibrational temperatures:    190.49   252.40   317.60   511.27   584.54
          (Kelvin)            609.21   853.00  1113.68  1121.61  1300.04
                             1444.72  1473.56  1560.29  1592.57  1728.61
                             2110.55  2290.59  3648.29  3702.80  3757.28
                             3793.37

 Zero-point correction=                           0.053767 (Hartree/Particle)
 Thermal correction to Energy=                    0.059883
 Thermal correction to Enthalpy=                  0.060828
 Thermal correction to Gibbs Free Energy=         0.024005
 Sum of electronic and zero-point Energies=           -190.880768
 Sum of electronic and thermal Energies=              -190.874651
 Sum of electronic and thermal Enthalpies=            -190.873707
 Sum of electronic and thermal Free Energies=         -190.910530

                     E (Thermal)             CV                S
                      KCal/Mol        Cal/Mol-Kelvin    Cal/Mol-Kelvin
 Total                   37.577             20.565             77.501
 Electronic               0.000              0.000              2.755
 Translational            0.889              2.981             38.389
 Rotational               0.889              2.981             24.733
 Vibrational             35.800             14.604             11.624
 Vibration     1          0.613              1.921              2.911
 Vibration     2          0.627              1.873              2.377
 Vibration     3          0.647              1.809              1.953
 Vibration     4          0.731              1.564              1.142
 Vibration     5          0.771              1.457              0.940
 Vibration     6          0.786              1.419              0.880
 Vibration     7          0.950              1.047              0.462

 Optimization completed.
    -- Stationary point found.
 Normal termination of Gaussian 09 at Wed Jul 20 13:19:20 2016.
