 Gaussian 09, Revision E.01,
 Gaussian 09:  EM64L-G09RevE.01 30-Nov-2015

 ---------------------------------------------
 #p b3lyp/6-311++G(3df,2p) freq symmetry=Loose
 ---------------------------------------------

 ---------
 b3lyp opt
 ---------
 Symbolic Z-matrix:
 Charge =  0 Multiplicity = 3

                         Standard orientation:
 ---------------------------------------------------------------------
 Center     Atomic      Atomic             Coordinates (Angstroms)
 Number     Number       Type             X           Y           Z
 ---------------------------------------------------------------------
      1          6           0       -0.862663   -0.666590    0.000000
      2          1           0       -1.463044   -0.796345    0.901145
      3          6           0        1.153444   -0.252448   -0.000000
      4          1           0       -1.463044   -0.796345   -0.901145
      5          6           0        0.490574   -1.407927   -0.000000
      6          1           0        0.743210   -2.454706   -0.000000
      7          6           0        0.000000    0.643983    0.000000
      8          6           0       -0.239480    1.922921    0.000000
      9          1           0       -1.068372    2.607763    0.000000
 ---------------------------------------------------------------------

 SCF Done:  E(UB3LYP) =  -192.747735647     A.U. after   17 cycles

 The electronic state is 3-A'.
 Alpha  occ. eigenvalues --  -10.21433 -10.21090 -10.20866 -10.20256 -10.19758
 Alpha  occ. eigenvalues --   -0.89771  -0.75451  -0.67221  -0.60809  -0.51676
 Alpha  occ. eigenvalues --   -0.46357  -0.46093  -0.42905  -0.40147  -0.32442
 Alpha  occ. eigenvalues --   -0.27722  -0.25834  -0.22836
 Alpha virt. eigenvalues --   -0.04431  -0.00557   0.00690   0.02058   0.02315
 Alpha virt. eigenvalues --    0.04859   0.05015   0.05740   0.06626   0.07772
 Alpha virt. eigenvalues --    0.08527   0.09679   0.10323   0.10952   0.12078

  Beta  occ. eigenvalues --  -10.20891 -10.20660 -10.19834 -10.19756 -10.18725
  Beta  occ. eigenvalues --   -0.88237  -0.73177  -0.65545  -0.59490  -0.50451
  Beta  occ. eigenvalues --   -0.46131  -0.42733  -0.40554  -0.38629  -0.31529
  Beta  occ. eigenvalues --   -0.24943
  Beta virt. eigenvalues --   -0.11822  -0.08512  -0.03524  -0.00482   0.00784
  Beta virt. eigenvalues --    0.02275   0.02578   0.05457   0.05465   0.06624
  Beta virt. eigenvalues --    0.07101   0.08066   0.08517   0.10559   0.10646

 Mulliken charges and spin densities:
               1          2
     1  C   -0.450425   0.190666
     2  H    0.154402   0.005916
     3  C   -0.157435   1.072746
     4  H    0.154402   0.005916
     5  C   -0.030034  -0.198954
     6  H    0.253285   0.007183
     7  C    0.373285  -0.176301
     8  C   -0.508245   1.076053
     9  H    0.210766   0.016776
 Sum of Mulliken charges =  -0.00000   2.00000

 Dipole moment (field-independent basis, Debye):
    X=             -1.8072    Y=             -1.0218    Z=             -0.0000  Tot=              2.0760
 Quadrupole moment (field-independent basis, Debye-Ang):
   XX=            -30.2521   YY=            -26.9689   ZZ=            -31.5538
   XY=             -1.8640   XZ=              0.0000   YZ=              0.0000

  Exact polarizability:  57.111  -4.198  83.778  -0.000  -0.000  41.733
 Approx polarizability:  83.265  -3.183 139.339   0.000   0.000  60.043

                      1                      2                      3
                     A"                     A'                     A"
 Frequencies --    221.8440               339.1263               519.3095
 Red. masses --      2.9631                 2.4700                 2.9045
 Frc consts  --      0.0859                 0.1674                 0.4615
 IR Inten    --      5.4236                 3.9145                 0.0108

                      4                      5                      6
                     A"                     A'                     A'
 Frequencies --    651.3153               715.7122               748.5191
 Red. masses --      1.2343                 6.2956                 1.7996
 Frc consts  --      0.3085                 1.9000                 0.5941
 IR Inten    --     55.2296                 2.5018                20.7490

                      7                      8                      9
                     A"                     A'                     A'
 Frequencies --    761.5688               838.7473               918.9628
 Red. masses --      1.1927                 3.5464                 2.4037
 Frc consts  --      0.4076                 1.4699                 1.1960
 IR Inten    --     24.6914                 6.6587                11.6593

                     10                     11                     12
                     A"                     A'                     A"
 Frequencies --    938.9085              1009.0249              1082.1471
 Red. masses --      1.7118                 4.5384                 1.1119
 Frc consts  --      0.8891                 2.7224                 0.7672
 IR Inten    --      0.3491                10.2050                 0.2807

                     13                     14                     15
                     A'                     A'                     A'
 Frequencies --   1176.1952              1185.4536              1453.1012
 Red. masses --      1.4737                 1.5990                 1.1412
 Frc consts  --      1.2012                 1.3239                 1.4197
 IR Inten    --      4.8451                 6.4387                 1.5944

                     16                     17                     18
                     A'                     A'                     A'
 Frequencies --   1556.4478              1721.4787              3032.1387
 Red. masses --      6.0432                 8.3630                 1.0521
 Frc consts  --      8.6255                14.6022                 5.6989
 IR Inten    --      1.2377                11.8823                26.6246

                     19                     20                     21
                     A"                     A'                     A'
 Frequencies --   3097.8226              3244.6084              3269.8963
 Red. masses --      1.1111                 1.1001                 1.1047
 Frc consts  --      6.2822                 6.8237                 6.9593
 IR Inten    --      8.4567                 0.1147                 3.4767

 - Thermochemistry -
 -------------------
 Temperature   298.150 Kelvin.  Pressure   1.00000 Atm.
 Atom     1 has atomic number  6 and mass  12.00000

 Molecular mass:    64.03130 amu.
 Principal axes and moments of inertia in atomic units:
                           1         2         3
     Eigenvalues --   118.99484 348.84707 456.15145
           X           -0.20273   0.97923   0.00000
           Y            0.97923   0.20273   0.00000
           Z           -0.00000  -0.00000   1.00000
 This molecule is an asymmetric top.
 Rotational symmetry number  1.
 Rotational temperatures (Kelvin)      0.72788     0.24829     0.18988
 Rotational constants (GHZ):          15.16655     5.17345     3.95645
 Zero-point vibrational energy     170362.2 (Joules/Mol)
                                   40.71753 (Kcal/Mol)
 Warning -- explicit consideration of   3 degrees of freedom as
           vibrations may cause significant error
 Vibrational temperatures:    319.18   487.93   747.17   937.10  1029.75
          (Kelvin)           1076.95  1095.73  1206.77  1322.18  1350.88
                             1451.76  1556.97  1692.28  1705.60  2090.69
                             2239.38  2476.82  4362.57  4457.07  4668.26
                             4704.65

 Zero-point correction=                           0.064888 (Hartree/Particle)
 Thermal correction to Energy=                    0.069531
 Thermal correction to Enthalpy=                  0.070476
 Thermal correction to Gibbs Free Energy=         0.036907
 Sum of electronic and zero-point Energies=           -192.682848
 Sum of electronic and thermal Energies=              -192.678204
 Sum of electronic and thermal Enthalpies=            -192.677260
 Sum of electronic and thermal Free Energies=         -192.710828

                     E (Thermal)             CV                S
                      KCal/Mol        Cal/Mol-Kelvin    Cal/Mol-Kelvin
 Total                   43.632             16.549             70.650
 Electronic               0.000              0.000              2.183
 Translational            0.889              2.981             38.389
 Rotational               0.889              2.981             24.452
 Vibrational             41.854             10.588              5.626
 Vibration     1          0.648              1.808              1.944
 Vibration     2          0.719              1.597              1.216
 Vibration     3          0.874              1.207              0.612

 Optimization completed.
    -- Stationary point found.
 Normal termination of Gaussian 09 at Wed Jul 20 09:58:54 2016.
