 Gaussian 09, Revision E.01,
 Gaussian 09:  EM64L-G09RevE.01 30-Nov-2015

 ---------------------------------------------
 #p b3lyp/6-311++G(3df,2p) freq symmetry=Loose
 ---------------------------------------------

 ---------
 b3lyp opt
 ---------
 Symbolic Z-matrix:
 Charge =  0 Multiplicity = 3

                         Standard orientation:
 ---------------------------------------------------------------------
 Center     Atomic      Atomic             Coordinates (Angstroms)
 Number     Number       Type             X           Y           Z
 ---------------------------------------------------------------------
      1          6           0        0.000000    0.809236   -0.706044
      2          6           0       -1.014438    0.000000    0.042510
      3          6           0        0.000000    0.000000    1.249916
      4          6           0        1.014438   -0.000000    0.042510
      5          1           0        0.000000    1.398479   -1.610073
      6          1           0       -0.000000   -0.912541    1.841530
      7          1           0        0.000000    0.912541    1.841530
      8          6           0       -0.000000   -0.809236   -0.706044
      9          1           0       -0.000000   -1.398479   -1.610073
 ---------------------------------------------------------------------

 SCF Done:  E(UB3LYP) =  -192.669157719     A.U. after   14 cycles

 The electronic state is 3-B1.
 Alpha  occ. eigenvalues --  -10.25631 -10.25616 -10.21382 -10.21381 -10.20561
 Alpha  occ. eigenvalues --   -1.00333  -0.72157  -0.64452  -0.63846  -0.57809
 Alpha  occ. eigenvalues --   -0.47999  -0.44135  -0.39596  -0.36150  -0.34314
 Alpha  occ. eigenvalues --   -0.33302  -0.27254  -0.19480
 Alpha virt. eigenvalues --   -0.00640  -0.00035   0.00999   0.02464   0.02660
 Alpha virt. eigenvalues --    0.04139   0.05787   0.07711   0.07744   0.08457
 Alpha virt. eigenvalues --    0.09121   0.09452   0.09532   0.09880   0.10424

  Beta  occ. eigenvalues --  -10.24830 -10.24819 -10.20527 -10.20524 -10.20166
  Beta  occ. eigenvalues --   -0.98457  -0.70593  -0.62172  -0.61674  -0.56778
  Beta  occ. eigenvalues --   -0.47290  -0.41900  -0.37301  -0.34741  -0.33224
  Beta  occ. eigenvalues --   -0.26641
  Beta virt. eigenvalues --   -0.16487  -0.07984  -0.00499   0.00681   0.01162
  Beta virt. eigenvalues --    0.03188   0.03461   0.05689   0.06095   0.07752
  Beta virt. eigenvalues --    0.08140   0.08484   0.09494   0.09826   0.10112

 Mulliken charges and spin densities:
               1          2
     1  C    0.029491   0.517652
     2  C   -0.177285   0.391601
     3  C   -0.505475   0.164429
     4  C   -0.177285   0.391601
     5  H    0.239780  -0.008081
     6  H    0.160751   0.016614
     7  H    0.160751   0.016614
     8  C    0.029491   0.517652
     9  H    0.239780  -0.008081
 Sum of Mulliken charges =  -0.00000   2.00000

 Dipole moment (field-independent basis, Debye):
    X=              0.0000    Y=             -0.0000    Z=             -1.0705  Tot=              1.0705
 Quadrupole moment (field-independent basis, Debye-Ang):
   XX=            -38.4197   YY=            -27.5279   ZZ=            -25.1341
   XY=              0.0000   XZ=              0.0000   YZ=             -0.0000

  Exact polarizability:  69.024   0.000  49.630   0.000  -0.000  56.734
 Approx polarizability: 119.224  -0.000  81.519   0.000   0.000  84.164

                      1                      2                      3
                     B2                     A2                     A1
 Frequencies --    404.1646               495.1119               512.2730
 Red. masses --      2.5268                 5.8811                 1.8348
 Frc consts  --      0.2432                 0.8494                 0.2837
 IR Inten    --      9.5826                 0.0000                 1.9500

                      4                      5                      6
                     B1                     A1                     B2
 Frequencies --    600.4262               783.8644               823.8254
 Red. masses --      9.3800                 2.5406                 3.6408
 Frc consts  --      1.9924                 0.9198                 1.4559
 IR Inten    --      2.3276                 2.7369                15.5034

                      7                      8                      9
                     A1                     B2                     B1
 Frequencies --    858.1336               881.2391               892.3919
 Red. masses --      4.2037                 1.3603                 1.9837
 Frc consts  --      1.8239                 0.6224                 0.9308
 IR Inten    --      3.9485                22.8971                95.3939

                     10                     11                     12
                     A1                     A2                     A2
 Frequencies --    931.3134              1016.9804              1057.8120
 Red. masses --      5.8892                 1.1282                 1.1106
 Frc consts  --      3.0095                 0.6875                 0.7322
 IR Inten    --      4.8214                 0.0000                 0.0000

                     13                     14                     15
                     B2                     B1                     A1
 Frequencies --   1080.0877              1084.8682              1221.7626
 Red. masses --      1.6470                 1.2077                 7.2414
 Frc consts  --      1.1321                 0.8374                 6.3686
 IR Inten    --      1.7227                 4.5939                 5.8504

                     16                     17                     18
                     B1                     A1                     A1
 Frequencies --   1226.1581              1492.7732              3056.1020
 Red. masses --      2.0296                 1.1137                 1.0504
 Frc consts  --      1.7979                 1.4622                 5.7800
 IR Inten    --      0.4300                 1.1322                20.7569

                     19                     20                     21
                     B2                     B2                     A1
 Frequencies --   3143.6961              3209.9868              3221.0055
 Red. masses --      1.1142                 1.0899                 1.0981
 Frc consts  --      6.4878                 6.6166                 6.7122
 IR Inten    --     12.3443                 0.0056                 1.4713

 - Thermochemistry -
 -------------------
 Temperature   298.150 Kelvin.  Pressure   1.00000 Atm.
 Atom     1 has atomic number  6 and mass  12.00000

 Molecular mass:    64.03130 amu.
 Principal axes and moments of inertia in atomic units:
                           1         2         3
     Eigenvalues --   164.39510 229.08245 241.08370
           X            0.00000   1.00000   0.00000
           Y           -0.00000  -0.00000   1.00000
           Z            1.00000  -0.00000   0.00000
 This molecule is an asymmetric top.
 Rotational symmetry number  2.
 Rotational temperatures (Kelvin)      0.52686     0.37809     0.35927
 Rotational constants (GHZ):          10.97807     7.87813     7.48595
 Zero-point vibrational energy     167441.2 (Joules/Mol)
                                   40.01940 (Kcal/Mol)
 Warning -- explicit consideration of   4 degrees of freedom as
           vibrations may cause significant error
 Vibrational temperatures:    581.50   712.35   737.05   863.88  1127.80
          (Kelvin)           1185.30  1234.66  1267.90  1283.95  1339.95
                             1463.21  1521.95  1554.00  1560.88  1757.84
                             1764.17  2147.77  4397.04  4523.07  4618.45
                             4634.30

 Zero-point correction=                           0.063775 (Hartree/Particle)
 Thermal correction to Energy=                    0.068048
 Thermal correction to Enthalpy=                  0.068992
 Thermal correction to Gibbs Free Energy=         0.037165
 Sum of electronic and zero-point Energies=           -192.605383
 Sum of electronic and thermal Energies=              -192.601110
 Sum of electronic and thermal Enthalpies=            -192.600165
 Sum of electronic and thermal Free Energies=         -192.631993

                     E (Thermal)             CV                S
                      KCal/Mol        Cal/Mol-Kelvin    Cal/Mol-Kelvin
 Total                   42.701             16.007             66.986
 Electronic               0.000              0.000              2.183
 Translational            0.889              2.981             38.389
 Rotational               0.889              2.981             22.344
 Vibrational             40.923             10.045              4.069
 Vibration     1          0.769              1.461              0.947
 Vibration     2          0.851              1.261              0.670
 Vibration     3          0.867              1.223              0.628
 Vibration     4          0.959              1.031              0.449

 Optimization completed.
    -- Stationary point found.
 Normal termination of Gaussian 09 at Wed Jul 20 14:00:26 2016.
