 Gaussian 09, Revision E.01,
 Gaussian 09:  EM64L-G09RevE.01 30-Nov-2015

 ---------------------------------------------
 #p b3lyp/6-311++G(3df,2p) freq symmetry=Loose
 ---------------------------------------------

 ---------
 b3lyp opt
 ---------
 Symbolic Z-matrix:
 Charge =  0 Multiplicity = 1

                         Standard orientation:
 ---------------------------------------------------------------------
 Center     Atomic      Atomic             Coordinates (Angstroms)
 Number     Number       Type             X           Y           Z
 ---------------------------------------------------------------------
      1          6           0        0.000009   -0.519433    1.126870
      2          1           0        0.000009   -1.602682    1.166525
      3          1           0        0.000017   -0.020089    2.086815
      4          1           0        0.000009   -1.602682   -1.166525
      5          6           0       -0.802112    0.103869    0.000000
      6          6           0        0.802112    0.103869    0.000000
      7          6           0       -0.000000    1.372052    0.000000
      8          6           0        0.000009   -0.519433   -1.126870
      9          1           0        0.000017   -0.020089   -2.086815
 ---------------------------------------------------------------------

 SCF Done:  E(RB3LYP) =  -192.727373576     A.U. after   12 cycles

 The electronic state is 1-A'.
 Alpha  occ. eigenvalues --  -10.26193 -10.23051 -10.23050 -10.22851 -10.22836
 Alpha  occ. eigenvalues --   -1.01242  -0.73211  -0.69960  -0.56150  -0.55873
 Alpha  occ. eigenvalues --   -0.48473  -0.45039  -0.41018  -0.36055  -0.35240
 Alpha  occ. eigenvalues --   -0.31181  -0.26117
 Alpha virt. eigenvalues --   -0.11663  -0.02422  -0.00804   0.01333   0.02177
 Alpha virt. eigenvalues --    0.02209   0.04328   0.05313   0.07170   0.07464
 Alpha virt. eigenvalues --    0.08157   0.08610   0.10912   0.11311   0.11424

 Mulliken charges:
               1
     1  C   -0.485995
     2  H    0.181108
     3  H    0.171865
     4  H    0.181108
     5  C    0.323756
     6  C    0.323778
     7  C   -0.381488
     8  C   -0.485995
     9  H    0.171865
 Sum of Mulliken charges =  -0.00000

 Dipole moment (field-independent basis, Debye):
    X=              0.0001    Y=             -2.6606    Z=              0.0000  Tot=              2.6606
 Quadrupole moment (field-independent basis, Debye-Ang):
   XX=            -34.8339   YY=            -33.0846   ZZ=            -25.3935
   XY=             -0.0000   XZ=             -0.0000   YZ=             -0.0000

  Exact polarizability:  48.856  -0.000  52.413   0.000  -0.000  52.364
 Approx polarizability: 102.505  -0.000  77.786   0.000  -0.000  78.374

                      1                      2                      3
                     A"                     A'                     A'
 Frequencies --    222.3332               429.1271               475.4327
 Red. masses --      6.5637                 3.2436                 1.9270
 Frc consts  --      0.1912                 0.3519                 0.2566
 IR Inten    --     17.3199                 0.8211                 0.2787

                      4                      5                      6
                     A'                     A"                     A'
 Frequencies --    615.2160               738.2728               877.8193
 Red. masses --      6.3273                 6.6125                 7.9202
 Frc consts  --      1.4110                 2.1235                 3.5958
 IR Inten    --    113.9797                 0.0000                 4.0759

                      7                      8                      9
                     A"                     A"                     A'
 Frequencies --    950.3240               967.4261              1063.5455
 Red. masses --      1.0725                 1.2258                 2.4770
 Frc consts  --      0.5707                 0.6759                 1.6508
 IR Inten    --      0.0000                 0.5832                17.9911

                     10                     11                     12
                     A"                     A'                     A'
 Frequencies --   1085.3525              1097.3788              1140.4606
 Red. masses --      1.2471                 1.2113                 3.8663
 Frc consts  --      0.8655                 0.8594                 2.9628
 IR Inten    --      0.0000                15.8069                 0.5498

                     13                     14                     15
                     A"                     A'                     A'
 Frequencies --   1155.0488              1161.2375              1229.7190
 Red. masses --      6.3114                 1.4260                 4.2951
 Frc consts  --      4.9611                 1.1330                 3.8268
 IR Inten    --      5.1324                 0.1323                19.4663

                     16                     17                     18
                     A"                     A'                     A'
 Frequencies --   1474.9344              1512.1940              3106.8429
 Red. masses --      1.1063                 1.1613                 1.0536
 Frc consts  --      1.4180                 1.5646                 5.9920
 IR Inten    --      3.8052                 2.7531                 2.7926

                     19                     20                     21
                     A"                     A'                     A"
 Frequencies --   3114.5886              3200.9359              3204.1368
 Red. masses --      1.0536                 1.1181                 1.1162
 Frc consts  --      6.0221                 6.7494                 6.7515
 IR Inten    --      7.0405                 0.1281                 2.3842

 - Thermochemistry -
 -------------------
 Temperature   298.150 Kelvin.  Pressure   1.00000 Atm.
 Atom     1 has atomic number  6 and mass  12.00000

 Molecular mass:    64.03130 amu.
 Principal axes and moments of inertia in atomic units:
                           1         2         3
     Eigenvalues --   177.77540 205.11441 272.60657
           X            0.00000  -0.00001   1.00000
           Y            0.00000   1.00000   0.00001
           Z            1.00000  -0.00000  -0.00000
 This molecule is an asymmetric top.
 Rotational symmetry number  1.
 Rotational temperatures (Kelvin)      0.48721     0.42227     0.31772
 Rotational constants (GHZ):          10.15181     8.79870     6.62031
 Zero-point vibrational energy     172395.8 (Joules/Mol)
                                   41.20358 (Kcal/Mol)
 Warning -- explicit consideration of   4 degrees of freedom as
           vibrations may cause significant error
 Vibrational temperatures:    319.89   617.42   684.04   885.16  1062.21
          (Kelvin)           1262.98  1367.30  1391.91  1530.20  1561.58
                             1578.88  1640.87  1661.86  1670.76  1769.29
                             2122.10  2175.71  4470.05  4481.19  4605.43
                             4610.03

 Zero-point correction=                           0.065662 (Hartree/Particle)
 Thermal correction to Energy=                    0.070108
 Thermal correction to Enthalpy=                  0.071052
 Thermal correction to Gibbs Free Energy=         0.039123
 Sum of electronic and zero-point Energies=           -192.661711
 Sum of electronic and thermal Energies=              -192.657266
 Sum of electronic and thermal Enthalpies=            -192.656322
 Sum of electronic and thermal Free Energies=         -192.688251

                     E (Thermal)             CV                S
                      KCal/Mol        Cal/Mol-Kelvin    Cal/Mol-Kelvin
 Total                   43.993             15.560             67.200
 Electronic               0.000              0.000              0.000
 Translational            0.889              2.981             38.389
 Rotational               0.889              2.981             23.812
 Vibrational             42.216              9.599              4.999
 Vibration     1          0.648              1.807              1.940
 Vibration     2          0.790              1.407              0.862
 Vibration     3          0.832              1.305              0.722
 Vibration     4          0.975              1.000              0.424

 Optimization completed.
    -- Stationary point found.
 Normal termination of Gaussian 09 at Wed Jul 20 02:40:54 2016.
