 Gaussian 09, Revision E.01,
 Gaussian 09:  EM64L-G09RevE.01 30-Nov-2015

 ---------------------------------------------
 #p b3lyp/6-311++G(3df,2p) freq symmetry=Loose
 ---------------------------------------------

 ---------
 b3lyp opt
 ---------
 Symbolic Z-matrix:
 Charge =  3 Multiplicity = 4

                         Standard orientation:
 ---------------------------------------------------------------------
 Center     Atomic      Atomic             Coordinates (Angstroms)
 Number     Number       Type             X           Y           Z
 ---------------------------------------------------------------------
      1          1           0        1.501167   -0.725970    0.918892
      2          6           0       -1.054689   -0.373038    0.000000
      3          6           0        0.000000    0.720165   -0.000000
      4          6           0        0.167169    2.045353   -0.000000
      5          1           0        0.315068    3.156603   -0.000000
      6          6           0        0.808135   -0.650481   -0.000000
      7          1           0        1.501167   -0.725970   -0.918892
      8          6           0       -0.379608   -1.580277    0.000000
      9          1           0       -0.563447   -2.674995    0.000000
 ---------------------------------------------------------------------

 SCF Done:  E(UB3LYP) =  -191.022795521     A.U. after   16 cycles

 The electronic state is 4-A'.
 Alpha  occ. eigenvalues --  -11.05623 -11.03871 -11.03617 -10.99548 -10.97200
 Alpha  occ. eigenvalues --   -1.67385  -1.53957  -1.38255  -1.36117  -1.23171
 Alpha  occ. eigenvalues --   -1.19269  -1.18145  -1.16305  -1.14956  -1.06916
 Alpha  occ. eigenvalues --   -1.02249  -0.98393
 Alpha virt. eigenvalues --   -0.84571  -0.80267  -0.70251  -0.59140  -0.55659
 Alpha virt. eigenvalues --   -0.53329  -0.52344  -0.49428  -0.49123  -0.44545
 Alpha virt. eigenvalues --   -0.44090  -0.42966  -0.41023  -0.39347  -0.38483

  Beta  occ. eigenvalues --  -11.03741 -11.03181 -11.01847 -10.98965 -10.97064
  Beta  occ. eigenvalues --   -1.65017  -1.48625  -1.35409  -1.33344  -1.21339
  Beta  occ. eigenvalues --   -1.16517  -1.14052  -1.13968  -1.12140
  Beta virt. eigenvalues --   -0.93947  -0.88875  -0.84593  -0.77712  -0.73311
  Beta virt. eigenvalues --   -0.62436  -0.56149  -0.53732  -0.52413  -0.51126
  Beta virt. eigenvalues --   -0.47915  -0.47897  -0.43639  -0.43013  -0.41368

 Mulliken charges and spin densities:
               1          2
     1  H    0.354351   0.108438
     2  C    0.965010   0.949706
     3  C   -0.148223   0.583343
     4  C    0.439610   0.961208
     5  H    0.514814  -0.026899
     6  C    0.140507  -0.015059
     7  H    0.354351   0.108438
     8  C   -0.078855   0.336773
     9  H    0.458435  -0.005947
 Sum of Mulliken charges =   3.00000   3.00000

 Dipole moment (field-independent basis, Debye):
    X=              1.4752    Y=              1.5515    Z=             -0.0000  Tot=              2.1409
 Quadrupole moment (field-independent basis, Debye-Ang):
   XX=            -11.0429   YY=             24.3158   ZZ=            -19.7305
   XY=              3.3984   XZ=             -0.0000   YZ=             -0.0000

  Exact polarizability:  41.051   4.971  73.621  -0.000   0.000  24.723
 Approx polarizability:  87.439  15.085 139.586  -0.000  -0.000  37.793

                      1                      2                      3
                     A"                     A'                     A'
 Frequencies --    229.8941               331.9929               349.9989
 Red. masses --      2.8398                 2.7022                 4.1692
 Frc consts  --      0.0884                 0.1755                 0.3009
 IR Inten    --     11.5253                31.6723                18.6732

                      4                      5                      6
                     A"                     A'                     A"
 Frequencies --    468.9808               484.9537               576.6506
 Red. masses --      2.5296                 6.0792                 1.5854
 Frc consts  --      0.3278                 0.8424                 0.3106
 IR Inten    --     23.0665               117.5450                29.9183

                      7                      8                      9
                     A'                     A"                     A'
 Frequencies --    617.7320               704.9355               714.5289
 Red. masses --      1.9966                 1.3465                 3.5691
 Frc consts  --      0.4489                 0.3942                 1.0736
 IR Inten    --     57.0210                22.2961                25.2439

                     10                     11                     12
                     A"                     A'                     A"
 Frequencies --    783.4231               889.5845               927.2773
 Red. masses --      1.1035                 2.0279                 1.3526
 Frc consts  --      0.3991                 0.9455                 0.6852
 IR Inten    --      0.9327                70.9717                 5.7211

                     13                     14                     15
                     A'                     A'                     A'
 Frequencies --    985.1161              1027.4909              1094.3066
 Red. masses --      1.1339                 1.5643                 1.5180
 Frc consts  --      0.6483                 0.9731                 1.0710
 IR Inten    --     94.7210                76.9912                80.8171

                     16                     17                     18
                     A'                     A'                     A"
 Frequencies --   1369.8306              1552.9337              2398.8404
 Red. masses --      6.4308                 6.5215                 1.0843
 Frc consts  --      7.1097                 9.2662                 3.6763
 IR Inten    --     69.6580               111.2553               421.6440

                     19                     20                     21
                     A'                     A'                     A'
 Frequencies --   2475.4970              2873.4985              2966.3263
 Red. masses --      1.0555                 1.1351                 1.1169
 Frc consts  --      3.8109                 5.5219                 5.7904
 IR Inten    --    837.5094               932.8105               395.0681

 - Thermochemistry -
 -------------------
 Temperature   298.150 Kelvin.  Pressure   1.00000 Atm.
 Atom     1 has atomic number  1 and mass   1.00783

 Molecular mass:    64.03130 amu.
 Principal axes and moments of inertia in atomic units:
                           1         2         3
     Eigenvalues --   102.11704 408.33478 498.29635
           X            0.11839   0.99297   0.00000
           Y            0.99297  -0.11839   0.00000
           Z           -0.00000  -0.00000   1.00000
 This molecule is an asymmetric top.
 Rotational symmetry number  1.
 Rotational temperatures (Kelvin)      0.84818     0.21211     0.17382
 Rotational constants (GHZ):          17.67326     4.41976     3.62182
 Zero-point vibrational energy     142497.9 (Joules/Mol)
                                   34.05782 (Kcal/Mol)
 Warning -- explicit consideration of   7 degrees of freedom as
           vibrations may cause significant error
 Vibrational temperatures:    330.77   477.66   503.57   674.76   697.74
          (Kelvin)            829.67   888.78  1014.24  1028.05  1127.17
                             1279.91  1334.14  1417.36  1478.33  1574.46
                             1970.88  2234.32  3451.39  3561.68  4134.32
                             4267.88

 Zero-point correction=                           0.054275 (Hartree/Particle)
 Thermal correction to Energy=                    0.059689
 Thermal correction to Enthalpy=                  0.060633
 Thermal correction to Gibbs Free Energy=         0.025619
 Sum of electronic and zero-point Energies=           -190.968521
 Sum of electronic and thermal Energies=              -190.963107
 Sum of electronic and thermal Enthalpies=            -190.962163
 Sum of electronic and thermal Free Energies=         -190.997176

                     E (Thermal)             CV                S
                      KCal/Mol        Cal/Mol-Kelvin    Cal/Mol-Kelvin
 Total                   37.455             20.112             73.693
 Electronic               0.000              0.000              2.755
 Translational            0.889              2.981             38.389
 Rotational               0.889              2.981             24.545
 Vibrational             35.678             14.150              8.004
 Vibration     1          0.652              1.795              1.880
 Vibration     2          0.714              1.612              1.250
 Vibration     3          0.727              1.575              1.166
 Vibration     4          0.826              1.319              0.740
 Vibration     5          0.841              1.283              0.697
 Vibration     6          0.933              1.082              0.492
 Vibration     7          0.978              0.994              0.420

 Optimization completed.
    -- Stationary point found.
 Normal termination of Gaussian 09 at Wed Jul 20 17:23:56 2016.
