 Gaussian 09, Revision E.01,
 Gaussian 09:  EM64L-G09RevE.01 30-Nov-2015

 ---------------------------------------------
 #p b3lyp/6-311++G(3df,2p) freq symmetry=Loose
 ---------------------------------------------

 ---------
 b3lyp opt
 ---------
 Symbolic Z-matrix:
 Charge =  2 Multiplicity = 1

                         Standard orientation:
 ---------------------------------------------------------------------
 Center     Atomic      Atomic             Coordinates (Angstroms)
 Number     Number       Type             X           Y           Z
 ---------------------------------------------------------------------
      1          6           0        1.536203    0.359607   -0.000072
      2          1           0        2.041810    0.620701   -0.935845
      3          1           0        2.041924    0.620590    0.935670
      4          6           0        0.643256   -0.824187   -0.000088
      5          6           0       -0.643256   -0.824187   -0.000010
      6          6           0        0.000000    0.515396    0.000031
      7          6           0       -1.536203    0.359607    0.000115
      8          1           0       -2.041810    0.620590    0.935919
      9          1           0       -2.041924    0.620701   -0.935597
 ---------------------------------------------------------------------

 SCF Done:  E(RB3LYP) =  -191.910028999     A.U. after   11 cycles

 The electronic state is 1-A.
 Alpha  occ. eigenvalues --  -10.83734 -10.79961 -10.79841 -10.74318 -10.74317
 Alpha  occ. eigenvalues --   -1.55496  -1.32493  -1.20883  -1.04921  -1.00506
 Alpha  occ. eigenvalues --   -1.00483  -0.95481  -0.92534  -0.90307  -0.86293
 Alpha  occ. eigenvalues --   -0.82555
 Alpha virt. eigenvalues --   -0.59345  -0.57178  -0.50928  -0.46006  -0.37813
 Alpha virt. eigenvalues --   -0.32556  -0.30299  -0.29872  -0.29262  -0.27854
 Alpha virt. eigenvalues --   -0.26046  -0.24171  -0.23641  -0.22487  -0.21836

 Mulliken charges:
               1
     1  C   -0.121017
     2  H    0.306475
     3  H    0.306475
     4  C    0.287416
     5  C    0.287416
     6  C    0.441301
     7  C   -0.121017
     8  H    0.306475
     9  H    0.306475
 Sum of Mulliken charges =   2.00000

 Dipole moment (field-independent basis, Debye):
    X=              0.0000    Y=              1.0009    Z=              0.0001  Tot=              1.0009
 Quadrupole moment (field-independent basis, Debye-Ang):
   XX=             -1.4200   YY=            -19.9125   ZZ=            -20.1452
   XY=              0.0000   XZ=             -0.0011   YZ=              0.0000

  Exact polarizability:  52.555   0.000  34.462  -0.002   0.000  27.065
 Approx polarizability:  90.665   0.000  73.928  -0.003   0.002  41.119

                      1                      2                      3
                      A                      A                      A
 Frequencies --    320.3515               346.3401               399.5361
 Red. masses --      2.6193                 5.2768                 3.7289
 Frc consts  --      0.1584                 0.3729                 0.3507
 IR Inten    --      6.0291                12.2046                 0.0000

                      4                      5                      6
                      A                      A                      A
 Frequencies --    548.3212               805.8218               929.8374
 Red. masses --     11.7977                 7.5986                 9.5383
 Frc consts  --      2.0899                 2.9071                 4.8589
 IR Inten    --     16.3367                 6.7952                 0.0142

                      7                      8                      9
                      A                      A                      A
 Frequencies --    930.5282              1002.6574              1010.2740
 Red. masses --      1.0403                 1.3729                 1.3101
 Frc consts  --      0.5307                 0.8132                 0.7878
 IR Inten    --      0.0000                 0.0000                 0.5926

                     10                     11                     12
                      A                      A                      A
 Frequencies --   1017.6880              1071.2680              1138.1622
 Red. masses --      1.2582                 2.8383                 1.2737
 Frc consts  --      0.7678                 1.9192                 0.9721
 IR Inten    --      0.2645                 0.9377                 0.1917

                     13                     14                     15
                      A                      A                      A
 Frequencies --   1141.2723              1211.0241              1415.6091
 Red. masses --      1.5918                 6.9067                 1.0611
 Frc consts  --      1.2216                 5.9679                 1.2528
 IR Inten    --     64.5916                71.3892                50.1598

                     16                     17                     18
                      A                      A                      A
 Frequencies --   1417.6169              1845.5704              3015.4961
 Red. masses --      1.1051                10.6778                 1.0521
 Frc consts  --      1.3085                21.4285                 5.6366
 IR Inten    --      7.8907                21.5328               291.2660

                     19                     20                     21
                      A                      A                      A
 Frequencies --   3017.5757              3116.9825              3117.8562
 Red. masses --      1.0498                 1.1243                 1.1250
 Frc consts  --      5.6319                 6.4355                 6.4432
 IR Inten    --     45.7840                 0.0000               256.9835

 - Thermochemistry -
 -------------------
 Temperature   298.150 Kelvin.  Pressure   1.00000 Atm.
 Atom     1 has atomic number  6 and mass  12.00000

 Molecular mass:    64.03130 amu.
 Principal axes and moments of inertia in atomic units:
                           1         2         3
     Eigenvalues --    98.49755 310.34731 383.63330
           X            1.00000   0.00000   0.00006
           Y            0.00000   1.00000  -0.00006
           Z           -0.00006   0.00006   1.00000
 This molecule is an asymmetric top.
 Rotational symmetry number  1.
 Rotational temperatures (Kelvin)      0.87935     0.27909     0.22577
 Rotational constants (GHZ):          18.32270     5.81523     4.70434
 Zero-point vibrational energy     172380.6 (Joules/Mol)
                                   41.19996 (Kcal/Mol)
 Warning -- explicit consideration of   4 degrees of freedom as
           vibrations may cause significant error
 Vibrational temperatures:    460.91   498.31   574.84   788.91  1159.40
          (Kelvin)           1337.83  1338.82  1442.60  1453.56  1464.22
                             1541.31  1637.56  1642.03  1742.39  2036.74
                             2039.63  2655.36  4338.62  4341.61  4484.64
                             4485.89

 Zero-point correction=                           0.065656 (Hartree/Particle)
 Thermal correction to Energy=                    0.070131
 Thermal correction to Enthalpy=                  0.071075
 Thermal correction to Gibbs Free Energy=         0.039080
 Sum of electronic and zero-point Energies=           -191.844373
 Sum of electronic and thermal Energies=              -191.839898
 Sum of electronic and thermal Enthalpies=            -191.838954
 Sum of electronic and thermal Free Energies=         -191.870949

                     E (Thermal)             CV                S
                      KCal/Mol        Cal/Mol-Kelvin    Cal/Mol-Kelvin
 Total                   44.008             15.674             67.340
 Electronic               0.000              0.000              0.000
 Translational            0.889              2.981             38.389
 Rotational               0.889              2.981             23.976
 Vibrational             42.230              9.713              4.975
 Vibration     1          0.706              1.635              1.308
 Vibration     2          0.724              1.583              1.183
 Vibration     3          0.766              1.471              0.964
 Vibration     4          0.904              1.143              0.548

 Optimization completed.
    -- Stationary point found.
 Normal termination of Gaussian 09 at Wed Jul 20 00:44:06 2016.
