 Gaussian 09, Revision E.01,
 Gaussian 09:  EM64L-G09RevE.01 30-Nov-2015

 ---------------------------------------------
 #p b3lyp/6-311++G(3df,2p) freq symmetry=Loose
 ---------------------------------------------

 ---------
 b3lyp opt
 ---------
 Symbolic Z-matrix:
 Charge =  0 Multiplicity = 3

                         Standard orientation:
 ---------------------------------------------------------------------
 Center     Atomic      Atomic             Coordinates (Angstroms)
 Number     Number       Type             X           Y           Z
 ---------------------------------------------------------------------
      1          6           0       -1.247601   -0.273441   -0.000118
      2          6           0        1.215011   -0.369746    0.000144
      3          1           0       -2.218471   -0.773932   -0.000198
      4          1           0       -0.084268   -2.108470    0.000085
      5          1           0        2.110018   -0.984834    0.000265
      6          6           0        1.335092    0.960106    0.000097
      7          6           0       -1.355245    1.044798   -0.000189
      8          6           0       -0.039409   -1.028662    0.000042
      9          1           0        0.745630    1.868911   -0.000006
 ---------------------------------------------------------------------

 SCF Done:  E(UB3LYP) =  -192.725193485     A.U. after   18 cycles

 The electronic state is 3-A.
 Alpha  occ. eigenvalues --  -10.23858 -10.22434 -10.22211 -10.20248 -10.18866
 Alpha  occ. eigenvalues --   -0.85989  -0.78021  -0.70256  -0.59150  -0.54079
 Alpha  occ. eigenvalues --   -0.50852  -0.44061  -0.42685  -0.38402  -0.31326
 Alpha  occ. eigenvalues --   -0.30151  -0.26350  -0.22108
 Alpha virt. eigenvalues --   -0.10224  -0.01838  -0.00930   0.01018   0.02015
 Alpha virt. eigenvalues --    0.03340   0.04451   0.05744   0.06117   0.07272
 Alpha virt. eigenvalues --    0.08562   0.09765   0.10101   0.10361   0.10960

  Beta  occ. eigenvalues --  -10.23232 -10.21198 -10.20596 -10.20434 -10.19106
  Beta  occ. eigenvalues --   -0.84590  -0.76847  -0.67068  -0.57263  -0.53399
  Beta  occ. eigenvalues --   -0.49593  -0.43229  -0.41800  -0.35747  -0.29795
  Beta  occ. eigenvalues --   -0.28101
  Beta virt. eigenvalues --   -0.12705  -0.11380  -0.06287  -0.00881   0.00730
  Beta virt. eigenvalues --    0.01024   0.02421   0.03372   0.04912   0.06663
  Beta virt. eigenvalues --    0.06965   0.07391   0.08570   0.10298   0.10611

 Mulliken charges and spin densities:
               1          2
     1  C    0.375290  -0.168344
     2  C    0.092949  -0.342717
     3  H    0.139673  -0.003180
     4  H    0.177236  -0.006901
     5  H    0.148561   0.034745
     6  C   -0.394411   1.400475
     7  C   -0.670684   0.425208
     8  C   -0.127888   0.655073
     9  H    0.259273   0.005642
 Sum of Mulliken charges =  -0.00000   2.00000

 Dipole moment (field-independent basis, Debye):
    X=              0.3674    Y=             -2.4610    Z=              0.0001  Tot=              2.4883
 Quadrupole moment (field-independent basis, Debye-Ang):
   XX=            -28.9457   YY=            -29.9428   ZZ=            -33.5725
   XY=              2.7606   XZ=              0.0004   YZ=              0.0001

  Exact polarizability:  81.333  -0.394  68.227   0.004  -0.001  40.673
 Approx polarizability: 132.820   0.833 113.997   0.008  -0.002  58.650

                      1                      2                      3
                      A                      A                      A
 Frequencies --    105.9014               188.7681               345.2848
 Red. masses --      8.7802                 2.0181                 2.5451
 Frc consts  --      0.0580                 0.0424                 0.1788
 IR Inten    --      1.9965                18.3990                14.1729

                      4                      5                      6
                      A                      A                      A
 Frequencies --    410.1293               558.8382               569.7503
 Red. masses --      1.8720                 1.9464                 1.8586
 Frc consts  --      0.1855                 0.3581                 0.3555
 IR Inten    --      0.0303                41.1940                57.8986

                      7                      8                      9
                      A                      A                      A
 Frequencies --    645.6967               759.0813               764.6982
 Red. masses --      1.2808                 2.6020                 1.4232
 Frc consts  --      0.3146                 0.8834                 0.4903
 IR Inten    --     39.8188                39.8167                 2.3250

                     10                     11                     12
                      A                      A                      A
 Frequencies --    877.8939               958.5072              1045.8912
 Red. masses --      1.3004                 2.2422                 1.5963
 Frc consts  --      0.5905                 1.2137                 1.0288
 IR Inten    --     15.7282                 3.7678                 3.2510

                     13                     14                     15
                      A                      A                      A
 Frequencies --   1116.4478              1251.6065              1292.2402
 Red. masses --      1.9232                 1.4999                 2.5118
 Frc consts  --      1.4124                 1.3843                 2.4713
 IR Inten    --      4.2005                 4.2167                 3.0415

                     16                     17                     18
                      A                      A                      A
 Frequencies --   1478.4543              1571.4611              3085.6227
 Red. masses --      2.8509                 5.9517                 1.0831
 Frc consts  --      3.6716                 8.6596                 6.0755
 IR Inten    --      2.0047                36.7979                15.2855

                     19                     20                     21
                      A                      A                      A
 Frequencies --   3125.5377              3182.9179              3190.5120
 Red. masses --      1.0852                 1.0977                 1.0911
 Frc consts  --      6.2461                 6.5524                 6.5437
 IR Inten    --      0.8738                 9.4255                 6.7486

 - Thermochemistry -
 -------------------
 Temperature   298.150 Kelvin.  Pressure   1.00000 Atm.
 Atom     1 has atomic number  6 and mass  12.00000

 Molecular mass:    64.03130 amu.
 Principal axes and moments of inertia in atomic units:
                           1         2         3
     Eigenvalues --   174.56272 320.98795 495.55067
           X            0.99958   0.02888  -0.00010
           Y           -0.02888   0.99958   0.00004
           Z            0.00011  -0.00004   1.00000
 This molecule is an asymmetric top.
 Rotational symmetry number  1.
 Rotational temperatures (Kelvin)      0.49618     0.26984     0.17478
 Rotational constants (GHZ):          10.33864     5.62246     3.64189
 Zero-point vibrational energy     158656.2 (Joules/Mol)
                                   37.91973 (Kcal/Mol)
 Warning -- explicit consideration of   6 degrees of freedom as
           vibrations may cause significant error
 Vibrational temperatures:    152.37   271.59   496.79   590.08   804.04
          (Kelvin)            819.74   929.01  1092.15  1100.23  1263.09
                             1379.08  1504.80  1606.32  1800.78  1859.24
                             2127.16  2260.98  4439.52  4496.95  4579.50
                             4590.43

 Zero-point correction=                           0.060429 (Hartree/Particle)
 Thermal correction to Energy=                    0.066098
 Thermal correction to Enthalpy=                  0.067042
 Thermal correction to Gibbs Free Energy=         0.031183
 Sum of electronic and zero-point Energies=           -192.664765
 Sum of electronic and thermal Energies=              -192.659095
 Sum of electronic and thermal Enthalpies=            -192.658151
 Sum of electronic and thermal Free Energies=         -192.694011

                     E (Thermal)             CV                S
                      KCal/Mol        Cal/Mol-Kelvin    Cal/Mol-Kelvin
 Total                   41.477             19.396             75.473
 Electronic               0.000              0.000              2.183
 Translational            0.889              2.981             38.389
 Rotational               0.889              2.981             24.833
 Vibrational             39.700             13.434             10.068
 Vibration     1          0.605              1.945              3.343
 Vibration     2          0.633              1.855              2.240
 Vibration     3          0.724              1.585              1.188
 Vibration     4          0.774              1.448              0.926
 Vibration     5          0.914              1.120              0.526
 Vibration     6          0.926              1.097              0.505

 Optimization completed.
    -- Stationary point found.
 Normal termination of Gaussian 09 at Wed Jul 20 17:11:43 2016.
