 Gaussian 09, Revision E.01,
 Gaussian 09:  EM64L-G09RevE.01 30-Nov-2015

 ---------------------------------------------
 #p b3lyp/6-311++G(3df,2p) freq symmetry=Loose
 ---------------------------------------------

 ---------
 b3lyp opt
 ---------
 Symbolic Z-matrix:
 Charge =  1 Multiplicity = 4

                         Standard orientation:
 ---------------------------------------------------------------------
 Center     Atomic      Atomic             Coordinates (Angstroms)
 Number     Number       Type             X           Y           Z
 ---------------------------------------------------------------------
      1          6           0        1.469582   -0.716725   -0.022147
      2          6           0        1.510066    0.577177   -0.202388
      3          6           0        0.283685   -0.049423    0.508338
      4          1           0        1.947429    1.533999   -0.438558
      5          1           0        0.100247    0.136414    1.567113
      6          6           0       -1.006220   -0.241627   -0.333012
      7          1           0       -1.449922   -1.257089   -0.103630
      8          1           0       -0.867301   -0.228336   -1.423329
      9          6           0       -2.212189    0.399766    0.115610
 ---------------------------------------------------------------------

 SCF Done:  E(UB3LYP) =  -192.278634862     A.U. after   22 cycles

 The electronic state is 4-A.
 Alpha  occ. eigenvalues --  -10.51742 -10.47479 -10.47031 -10.47009 -10.45702
 Alpha  occ. eigenvalues --   -1.16052  -1.04915  -0.86609  -0.80226  -0.79233
 Alpha  occ. eigenvalues --   -0.70821  -0.68507  -0.65209  -0.62843  -0.57334
 Alpha  occ. eigenvalues --   -0.53294  -0.49295  -0.46207
 Alpha virt. eigenvalues --   -0.33815  -0.25646  -0.15580  -0.14518  -0.13620
 Alpha virt. eigenvalues --   -0.13140  -0.11277  -0.09596  -0.07857  -0.07575
 Alpha virt. eigenvalues --   -0.06558  -0.06033  -0.05671  -0.04978  -0.03472

  Beta  occ. eigenvalues --  -10.49381 -10.46451 -10.46431 -10.45846 -10.45509
  Beta  occ. eigenvalues --   -1.13866  -1.02291  -0.83535  -0.78457  -0.75855
  Beta  occ. eigenvalues --   -0.69158  -0.66062  -0.61806  -0.58932  -0.49795
  Beta virt. eigenvalues --   -0.43359  -0.35558  -0.30870  -0.28994  -0.22065
  Beta virt. eigenvalues --   -0.15018  -0.13546  -0.13269  -0.12585  -0.10748
  Beta virt. eigenvalues --   -0.08985  -0.07155  -0.07077  -0.05797  -0.05312

 Mulliken charges and spin densities:
               1          2
     1  C   -0.115328   0.948506
     2  C    0.097038   0.324586
     3  C    0.186110   0.186843
     4  H    0.323704  -0.004074
     5  H    0.248831   0.017438
     6  C   -0.010707   0.063378
     7  H    0.234418   0.006356
     8  H    0.235283   0.040451
     9  C   -0.199349   1.416516
 Sum of Mulliken charges =   1.00000   3.00000

 Dipole moment (field-independent basis, Debye):
    X=             -0.0613    Y=              0.7218    Z=             -0.3811  Tot=              0.8185
 Quadrupole moment (field-independent basis, Debye-Ang):
   XX=            -17.9211   YY=            -23.0815   ZZ=            -24.8958
   XY=              4.7805   XZ=              0.0088   YZ=             -0.5460

  Exact polarizability: 162.979  -9.566  45.434  -5.504   0.526  39.733
 Approx polarizability: 385.603 -39.873  84.508 -25.094   1.339  59.376

                      1                      2                      3
                      A                      A                      A
 Frequencies --    101.5918               243.7027               300.8203
 Red. masses --      3.4339                 3.3405                 2.9779
 Frc consts  --      0.0209                 0.1169                 0.1588
 IR Inten    --      5.7248                10.7334                 2.9535

                      4                      5                      6
                      A                      A                      A
 Frequencies --    384.0978               469.9915               695.6421
 Red. masses --      2.5873                 2.7858                 2.1473
 Frc consts  --      0.2249                 0.3626                 0.6122
 IR Inten    --     11.3831                 8.1154                14.4087

                      7                      8                      9
                      A                      A                      A
 Frequencies --    727.4306               873.6137               886.2626
 Red. masses --      1.8850                 1.3097                 2.7179
 Frc consts  --      0.5877                 0.5889                 1.2578
 IR Inten    --     15.6794                88.3968                 1.4852

                     10                     11                     12
                      A                      A                      A
 Frequencies --    925.6995              1002.3668              1036.9174
 Red. masses --      1.4979                 1.5588                 4.5654
 Frc consts  --      0.7563                 0.9228                 2.8921
 IR Inten    --     43.3056                70.9413                64.3592

                     13                     14                     15
                      A                      A                      A
 Frequencies --   1090.7566              1205.5321              1258.3826
 Red. masses --      1.9401                 1.7165                 1.1057
 Frc consts  --      1.3600                 1.4698                 1.0316
 IR Inten    --    157.2024                44.3480                32.8886

                     16                     17                     18
                      A                      A                      A
 Frequencies --   1278.1246              1587.5682              2747.0055
 Red. masses --      1.1386                 6.9133                 1.0681
 Frc consts  --      1.0959                10.2660                 4.7486
 IR Inten    --     28.6923               605.0376                97.6150

                     19                     20                     21
                      A                      A                      A
 Frequencies --   2996.9177              3066.5093              3263.7268
 Red. masses --      1.0824                 1.0835                 1.1160
 Frc consts  --      5.7277                 6.0031                 7.0036
 IR Inten    --     13.2826                46.6758                72.1930

 - Thermochemistry -
 -------------------
 Temperature   298.150 Kelvin.  Pressure   1.00000 Atm.
 Atom     1 has atomic number  6 and mass  12.00000

 Molecular mass:    64.03130 amu.
 Principal axes and moments of inertia in atomic units:
                           1         2         3
     Eigenvalues --    94.39675 506.56380 530.93525
           X            0.99905   0.04318   0.00574
           Y           -0.04320   0.99906   0.00338
           Z           -0.00559  -0.00363   0.99998
 This molecule is an asymmetric top.
 Rotational symmetry number  1.
 Rotational temperatures (Kelvin)      0.91755     0.17098     0.16313
 Rotational constants (GHZ):          19.11868     3.56271     3.39917
 Zero-point vibrational energy     156367.8 (Joules/Mol)
                                   37.37281 (Kcal/Mol)
 Warning -- explicit consideration of   5 degrees of freedom as
           vibrations may cause significant error
 Vibrational temperatures:    146.17   350.63   432.81   552.63   676.21
          (Kelvin)           1000.87  1046.61  1256.93  1275.13  1331.87
                             1442.18  1491.89  1569.35  1734.49  1810.53
                             1838.93  2284.15  3952.32  4311.89  4412.02
                             4695.77

 Zero-point correction=                           0.059557 (Hartree/Particle)
 Thermal correction to Energy=                    0.065130
 Thermal correction to Enthalpy=                  0.066074
 Thermal correction to Gibbs Free Energy=         0.030143
 Sum of electronic and zero-point Energies=           -192.219078
 Sum of electronic and thermal Energies=              -192.213505
 Sum of electronic and thermal Enthalpies=            -192.212561
 Sum of electronic and thermal Free Energies=         -192.248492

                     E (Thermal)             CV                S
                      KCal/Mol        Cal/Mol-Kelvin    Cal/Mol-Kelvin
 Total                   40.870             18.900             75.624
 Electronic               0.000              0.000              2.755
 Translational            0.889              2.981             38.389
 Rotational               0.889              2.981             24.744
 Vibrational             39.092             12.938              9.736
 Vibration     1          0.604              1.948              3.424
 Vibration     2          0.659              1.773              1.776
 Vibration     3          0.693              1.672              1.412
 Vibration     4          0.753              1.504              1.023
 Vibration     5          0.827              1.317              0.738

 Normal termination of Gaussian 09 at Mon Jun 20 05:52:04 2016.
