 Gaussian 09, Revision E.01,
 Gaussian 09:  EM64L-G09RevE.01 30-Nov-2015

 ---------------------------------------------
 #p b3lyp/6-311++G(3df,2p) freq symmetry=Loose
 ---------------------------------------------

 ---------
 b3lyp opt
 ---------
 Symbolic Z-matrix:
 Charge =  2 Multiplicity = 3

                         Standard orientation:
 ---------------------------------------------------------------------
 Center     Atomic      Atomic             Coordinates (Angstroms)
 Number     Number       Type             X           Y           Z
 ---------------------------------------------------------------------
      1          6           0        1.418893    0.687068    0.000000
      2          6           0       -2.007576   -0.976917   -0.000000
      3          1           0        2.063574    1.583901    0.000000
      4          1           0       -2.441796   -1.330990    0.945148
      5          1           0       -2.441796   -1.330990   -0.945148
      6          6           0        2.068789   -0.522232    0.000000
      7          6           0       -0.942837   -0.122744   -0.000000
      8          6           0       -0.000000    0.807630    0.000000
      9          1           0       -0.403599    1.841246   -0.000000
 ---------------------------------------------------------------------

 SCF Done:  E(UB3LYP) =  -191.870166539     A.U. after   24 cycles

 The electronic state is 3-A".
 Alpha  occ. eigenvalues --  -10.75868 -10.75534 -10.71883 -10.70113 -10.68416
 Alpha  occ. eigenvalues --   -1.33379  -1.27301  -1.19471  -1.06139  -0.97276
 Alpha  occ. eigenvalues --   -0.95477  -0.92601  -0.90778  -0.82305  -0.79431
 Alpha  occ. eigenvalues --   -0.75290  -0.73474
 Alpha virt. eigenvalues --   -0.56210  -0.53071  -0.51465  -0.39802  -0.33224
 Alpha virt. eigenvalues --   -0.30222  -0.27270  -0.26202  -0.26030  -0.24495
 Alpha virt. eigenvalues --   -0.23705  -0.22923  -0.21685  -0.20681  -0.20156

  Beta  occ. eigenvalues --  -10.74788 -10.74604 -10.71201 -10.70182 -10.67971
  Beta  occ. eigenvalues --   -1.31133  -1.24052  -1.17308  -1.04579  -0.95747
  Beta  occ. eigenvalues --   -0.94074  -0.90668  -0.89374  -0.79113  -0.73723
  Beta virt. eigenvalues --   -0.66489  -0.63360  -0.55408  -0.48847  -0.45698
  Beta virt. eigenvalues --   -0.36570  -0.32444  -0.29674  -0.26726  -0.25818
  Beta virt. eigenvalues --   -0.25640  -0.23781  -0.22751  -0.22575  -0.21070

 Mulliken charges and spin densities:
               1          2
     1  C    0.199861   0.307185
     2  C   -0.262282   0.402090
     3  H    0.258314  -0.006587
     4  H    0.304217   0.014532
     5  H    0.304217   0.014532
     6  C   -0.009210   0.425342
     7  C    0.696217   0.732172
     8  C    0.247947   0.063877
     9  H    0.260719   0.046858
 Sum of Mulliken charges =   2.00000   2.00000

 Dipole moment (field-independent basis, Debye):
    X=             -2.4912    Y=              0.4063    Z=              0.0000  Tot=              2.5242
 Quadrupole moment (field-independent basis, Debye-Ang):
   XX=              8.1301   YY=            -12.4306   ZZ=            -23.6504
   XY=             13.2464   XZ=             -0.0000   YZ=             -0.0000

  Exact polarizability: 104.747  12.158  48.093  -0.000  -0.000  31.435
 Approx polarizability: 213.817  14.987  79.503   0.000   0.000  43.337

                      1                      2                      3
                     A"                     A'                     A"
 Frequencies --     64.4447               100.5672               191.5698
 Red. masses --      1.1234                 7.0660                 2.3784
 Frc consts  --      0.0027                 0.0421                 0.0514
 IR Inten    --      6.3394                10.2282                10.3686

                      4                      5                      6
                     A'                     A"                     A'
 Frequencies --    246.4081               366.4175               552.8074
 Red. masses --      5.0102                 2.1641                 5.9993
 Frc consts  --      0.1792                 0.1712                 1.0802
 IR Inten    --      7.6661                10.2344                 8.4072

                      7                      8                      9
                     A"                     A"                     A'
 Frequencies --    638.9312               801.8436               845.8388
 Red. masses --      1.3063                 1.6160                 4.3591
 Frc consts  --      0.3142                 0.6122                 1.8375
 IR Inten    --     34.8913                 8.6864                30.1528

                     10                     11                     12
                     A"                     A'                     A'
 Frequencies --    952.8187               992.9490               999.3568
 Red. masses --      1.4751                 1.4884                 1.5642
 Frc consts  --      0.7890                 0.8646                 0.9204
 IR Inten    --      1.7611                 8.7644                19.1778

                     13                     14                     15
                     A'                     A'                     A'
 Frequencies --   1084.2898              1241.7435              1382.1773
 Red. masses --      1.1641                 2.4236                 1.1535
 Frc consts  --      0.8063                 2.2018                 1.2984
 IR Inten    --     13.8891               221.9449                22.1949

                     16                     17                     18
                     A'                     A'                     A'
 Frequencies --   1471.1742              1742.6264              2892.7477
 Red. masses --      5.0078                10.2785                 1.0779
 Frc consts  --      6.3859                18.3902                 5.3145
 IR Inten    --    126.2125                28.0893               233.5060

                     19                     20                     21
                     A'                     A'                     A"
 Frequencies --   2974.4537              2984.6446              3085.8189
 Red. masses --      1.0823                 1.0502                 1.1193
 Frc consts  --      5.6420                 5.5121                 6.2800
 IR Inten    --    410.6270               200.5678               145.6697

 - Thermochemistry -
 -------------------
 Temperature   298.150 Kelvin.  Pressure   1.00000 Atm.
 Atom     1 has atomic number  6 and mass  12.00000

 Molecular mass:    64.03130 amu.
 Principal axes and moments of inertia in atomic units:
                           1         2         3
     Eigenvalues --   110.26151 576.70230 674.10377
           X            0.96561  -0.25999   0.00000
           Y            0.25999   0.96561   0.00000
           Z            0.00000  -0.00000   1.00000
 This molecule is an asymmetric top.
 Rotational symmetry number  1.
 Rotational temperatures (Kelvin)      0.78553     0.15019     0.12849
 Rotational constants (GHZ):          16.36783     3.12942     2.67725
 Zero-point vibrational energy     153203.5 (Joules/Mol)
                                   36.61652 (Kcal/Mol)
 Warning -- explicit consideration of   6 degrees of freedom as
           vibrations may cause significant error
 Vibrational temperatures:     92.72   144.69   275.63   354.53   527.19
          (Kelvin)            795.37   919.28  1153.67  1216.97  1370.89
                             1428.63  1437.85  1560.05  1786.59  1988.64
                             2116.69  2507.25  4162.01  4279.57  4294.23
                             4439.80

 Zero-point correction=                           0.058352 (Hartree/Particle)
 Thermal correction to Energy=                    0.064779
 Thermal correction to Enthalpy=                  0.065723
 Thermal correction to Gibbs Free Energy=         0.027520
 Sum of electronic and zero-point Energies=           -191.811814
 Sum of electronic and thermal Energies=              -191.805388
 Sum of electronic and thermal Enthalpies=            -191.804443
 Sum of electronic and thermal Free Energies=         -191.842647

                     E (Thermal)             CV                S
                      KCal/Mol        Cal/Mol-Kelvin    Cal/Mol-Kelvin
 Total                   40.649             20.248             80.405
 Electronic               0.000              0.000              2.183
 Translational            0.889              2.981             38.389
 Rotational               0.889              2.981             25.264
 Vibrational             38.872             14.287             14.569
 Vibration     1          0.597              1.971              4.316
 Vibration     2          0.604              1.949              3.443
 Vibration     3          0.634              1.852              2.213
 Vibration     4          0.661              1.769              1.756
 Vibration     5          0.739              1.541              1.095
 Vibration     6          0.908              1.134              0.538

 Optimization completed.
    -- Stationary point found.
 Normal termination of Gaussian 09 at Wed Jul 20 09:01:49 2016.
