 Gaussian 09, Revision E.01,
 Gaussian 09:  EM64L-G09RevE.01 30-Nov-2015

 ------------------------------------------------------
 #p b3lyp/6-311++G(3df,2p) freq IOp(2/17=3) IOp(2/18=3)
 ------------------------------------------------------

 ---------
 b3lyp opt
 ---------
 Symbolic Z-matrix:
 Charge =  2 Multiplicity = 1

                         Standard orientation:
 ---------------------------------------------------------------------
 Center     Atomic      Atomic             Coordinates (Angstroms)
 Number     Number       Type             X           Y           Z
 ---------------------------------------------------------------------
      1          6           0       -0.472430    1.730532    0.000000
      2          1           0       -0.609581    2.267309   -0.938465
      3          1           0       -0.609581    2.267309    0.938465
      4          6           0       -0.000000    0.420479    0.000000
      5          6           0        0.316146   -0.613335    0.975060
      6          1           0        0.870694   -0.727184    1.910747
      7          6           0        0.316146   -0.613335   -0.975060
      8          1           0        0.870694   -0.727184   -1.910747
      9          6           0       -0.247302   -1.437800    0.000000
 ---------------------------------------------------------------------

 SCF Done:  E(RB3LYP) =  -191.934583440     A.U. after   12 cycles

 The electronic state is 1-A'.
 Alpha  occ. eigenvalues --  -10.76396 -10.76394 -10.75879 -10.72934 -10.70815
 Alpha  occ. eigenvalues --   -1.46862  -1.23318  -1.15953  -1.06456  -1.03004
 Alpha  occ. eigenvalues --   -0.94304  -0.93818  -0.91649  -0.87707  -0.84948
 Alpha  occ. eigenvalues --   -0.74909
 Alpha virt. eigenvalues --   -0.62982  -0.56479  -0.50440  -0.44568  -0.32353
 Alpha virt. eigenvalues --   -0.31301  -0.30827  -0.29932  -0.28644  -0.26641
 Alpha virt. eigenvalues --   -0.25456  -0.23394  -0.22814  -0.22797  -0.21001

 Mulliken charges:
               1
     1  C   -0.217390
     2  H    0.289345
     3  H    0.289345
     4  C    0.345940
     5  C    0.193315
     6  H    0.370732
     7  C    0.193315
     8  H    0.370732
     9  C    0.164666
 Sum of Mulliken charges =   2.00000

 Dipole moment (field-independent basis, Debye):
    X=              0.9751    Y=              1.1063    Z=              0.0000  Tot=              1.4747
 Quadrupole moment (field-independent basis, Debye-Ang):
   XX=            -21.5458   YY=             -5.3605   ZZ=            -10.1792
   XY=             -6.2377   XZ=             -0.0000   YZ=              0.0000

  Exact polarizability:  28.400  -4.880  72.884   0.000   0.000  40.624
 Approx polarizability:  44.732  -3.989 213.208   0.000   0.000  67.850

                      1                      2                      3
                     A"                     A'                     A"
 Frequencies --    283.1017               288.4495               386.3344
 Red. masses --      1.3628                 4.6771                 2.0661
 Frc consts  --      0.0644                 0.2293                 0.1817
 IR Inten    --      1.5752                 7.3998                 0.6347

                      4                      5                      6
                     A'                     A'                     A"
 Frequencies --    420.3782               672.4104               745.9971
 Red. masses --      2.4545                 6.1025                 2.8533
 Frc consts  --      0.2556                 1.6256                 0.9356
 IR Inten    --     37.7987                50.6439                 0.9716

                      7                      8                      9
                     A'                     A'                     A"
 Frequencies --    838.4178               936.9735               985.9968
 Red. masses --      2.3919                 1.7402                 1.3937
 Frc consts  --      0.9906                 0.9001                 0.7983
 IR Inten    --     65.7669                79.7685                 0.3593

                     10                     11                     12
                     A"                     A"                     A'
 Frequencies --   1010.2513              1092.0814              1110.0096
 Red. masses --      1.2977                 1.4015                 1.4505
 Frc consts  --      0.7803                 0.9848                 1.0530
 IR Inten    --      0.0931                 1.3319                52.2342

                     13                     14                     15
                     A'                     A'                     A"
 Frequencies --   1127.2960              1289.5164              1336.8933
 Red. masses --      1.4403                 4.9811                 6.0447
 Frc consts  --      1.0784                 4.8801                 6.3653
 IR Inten    --      1.8734                56.6804                78.2722

                     16                     17                     18
                     A'                     A'                     A'
 Frequencies --   1452.5629              1547.3582              3086.5367
 Red. masses --      1.2830                 4.7304                 1.0569
 Frc consts  --      1.5949                 6.6731                 5.9323
 IR Inten    --     86.4490               193.3109               102.6674

                     19                     20                     21
                     A"                     A'                     A"
 Frequencies --   3119.6225              3126.0817              3198.0707
 Red. masses --      1.1083                 1.1110                 1.1254
 Frc consts  --      6.3548                 6.3970                 6.7816
 IR Inten    --    299.7120                84.2992                73.3438

 - Thermochemistry -
 -------------------
 Temperature   298.150 Kelvin.  Pressure   1.00000 Atm.
 Atom     1 has atomic number  6 and mass  12.00000

 Molecular mass:    64.03130 amu.
 Principal axes and moments of inertia in atomic units:
                           1         2         3
     Eigenvalues --   133.59464 325.89380 420.50500
           X           -0.18077   0.00000   0.98352
           Y            0.98352   0.00000   0.18077
           Z            0.00000   1.00000   0.00000
 This molecule is an asymmetric top.
 Rotational symmetry number  1.
 Rotational temperatures (Kelvin)      0.64833     0.26577     0.20598
 Rotational constants (GHZ):          13.50908     5.53782     4.29184
 Zero-point vibrational energy     167802.2 (Joules/Mol)
                                   40.10569 (Kcal/Mol)
 Warning -- explicit consideration of   4 degrees of freedom as
           vibrations may cause significant error
 Vibrational temperatures:    407.32   415.01   555.85   604.83   967.45
          (Kelvin)           1073.32  1206.29  1348.09  1418.63  1453.52
                             1571.26  1597.05  1621.93  1855.32  1923.49
                             2089.91  2226.30  4440.83  4488.44  4497.73
                             4601.30

 Zero-point correction=                           0.063912 (Hartree/Particle)
 Thermal correction to Energy=                    0.068747
 Thermal correction to Enthalpy=                  0.069691
 Thermal correction to Gibbs Free Energy=         0.036883
 Sum of electronic and zero-point Energies=           -191.870671
 Sum of electronic and thermal Energies=              -191.865837
 Sum of electronic and thermal Enthalpies=            -191.864892
 Sum of electronic and thermal Free Energies=         -191.897701

                     E (Thermal)             CV                S
                      KCal/Mol        Cal/Mol-Kelvin    Cal/Mol-Kelvin
 Total                   43.139             16.966             69.051
 Electronic               0.000              0.000              0.000
 Translational            0.889              2.981             38.389
 Rotational               0.889              2.981             24.419
 Vibrational             41.362             11.004              6.243
 Vibration     1          0.682              1.705              1.515
 Vibration     2          0.685              1.695              1.483
 Vibration     3          0.755              1.499              1.014
 Vibration     4          0.783              1.426              0.891

 Optimization completed.
    -- Stationary point found.
 Normal termination of Gaussian 09 at Thu Jan 31 08:01:18 2019.
