 Gaussian 09, Revision E.01,
 Gaussian 09:  EM64L-G09RevE.01 30-Nov-2015

 ------------------------------------------------------
 #p b3lyp/6-311++G(3df,2p) freq IOp(2/17=3) IOp(2/18=3)
 ------------------------------------------------------

 ---------
 b3lyp opt
 ---------
 Symbolic Z-matrix:
 Charge =  1 Multiplicity = 2

                         Standard orientation:
 ---------------------------------------------------------------------
 Center     Atomic      Atomic             Coordinates (Angstroms)
 Number     Number       Type             X           Y           Z
 ---------------------------------------------------------------------
      1          6           0        0.164217   -0.543282   -1.219168
      2          6           0        0.164217   -0.543282    1.219168
      3          6           0       -0.485505   -0.909628    0.000000
      4          1           0        1.222294   -0.741542   -1.378282
      5          1           0       -0.452810   -0.375934    2.094162
      6          1           0        1.222294   -0.741542    1.378282
      7          1           0       -0.452810   -0.375934   -2.094162
      8          6           0       -0.099325    0.529278   -0.000000
      9          6           0        0.000000    1.839406   -0.000000
 ---------------------------------------------------------------------

 SCF Done:  E(UB3LYP) =  -192.392496093     A.U. after   16 cycles

 The electronic state is 2-A'.
 Alpha  occ. eigenvalues --  -10.52112 -10.50248 -10.48952 -10.48950 -10.47540
 Alpha  occ. eigenvalues --   -1.21495  -0.99442  -0.98720  -0.83688  -0.75814
 Alpha  occ. eigenvalues --   -0.72501  -0.71790  -0.66731  -0.61770  -0.56657
 Alpha  occ. eigenvalues --   -0.53909  -0.50784
 Alpha virt. eigenvalues --   -0.35116  -0.31262  -0.17481  -0.16540  -0.13514
 Alpha virt. eigenvalues --   -0.13292  -0.12526  -0.11554  -0.10728  -0.09735
 Alpha virt. eigenvalues --   -0.07536  -0.06119  -0.05918  -0.05147  -0.03323

  Beta  occ. eigenvalues --  -10.50668 -10.49931 -10.48913 -10.48911 -10.47649
  Beta  occ. eigenvalues --   -1.20496  -0.98387  -0.98375  -0.83100  -0.74154
  Beta  occ. eigenvalues --   -0.71894  -0.69975  -0.66358  -0.61542  -0.54870
  Beta  occ. eigenvalues --   -0.53217
  Beta virt. eigenvalues --   -0.37630  -0.34802  -0.29203  -0.16547  -0.16181
  Beta virt. eigenvalues --   -0.13197  -0.13143  -0.12340  -0.11498  -0.10342
  Beta virt. eigenvalues --   -0.09649  -0.07371  -0.05759  -0.05696  -0.05063

 Mulliken charges and spin densities:
               1          2
     1  C   -0.419965  -0.005613
     2  C   -0.419965  -0.005613
     3  C    0.533974   0.773537
     4  H    0.244892   0.022075
     5  H    0.232765   0.011861
     6  H    0.244892   0.022075
     7  H    0.232765   0.011861
     8  C    0.554736   0.012324
     9  C   -0.204093   0.157494
 Sum of Mulliken charges =   1.00000   1.00000

 Dipole moment (field-independent basis, Debye):
    X=              0.7228    Y=             -2.3403    Z=             -0.0000  Tot=              2.4494
 Quadrupole moment (field-independent basis, Debye-Ang):
   XX=            -25.2092   YY=            -27.3927   ZZ=            -16.0291
   XY=             -1.3521   XZ=             -0.0000   YZ=              0.0000

  Exact polarizability:  36.941   0.262  59.859   0.000  -0.000  49.447
 Approx polarizability:  55.958   3.829 126.995  -0.000  -0.000  75.344

                      1                      2                      3
                     A"                     A'                     A'
 Frequencies --     95.0454               121.7153               318.4773
 Red. masses --      6.3285                 6.5853                 2.8164
 Frc consts  --      0.0337                 0.0575                 0.1683
 IR Inten    --      1.3413                 0.4058                 5.6063

                      4                      5                      6
                     A'                     A"                     A'
 Frequencies --    443.3522               469.9606               663.4957
 Red. masses --      3.9337                 9.3644                 3.9157
 Frc consts  --      0.4556                 1.2186                 1.0156
 IR Inten    --     19.4744                75.2422                20.2475

                      7                      8                      9
                     A"                     A'                     A"
 Frequencies --    845.5905               959.8787               981.2522
 Red. masses --      1.0220                 1.3388                 1.2338
 Frc consts  --      0.4306                 0.7268                 0.6999
 IR Inten    --      2.5206                 7.1652                 0.0017

                     10                     11                     12
                     A'                     A"                     A'
 Frequencies --   1047.9127              1111.1340              1121.9779
 Red. masses --      1.9308                 1.2271                 1.4124
 Frc consts  --      1.2492                 0.8926                 1.0476
 IR Inten    --      3.4702                 4.2493                38.4849

                     13                     14                     15
                     A'                     A"                     A"
 Frequencies --   1153.7838              1336.3134              1462.3920
 Red. masses --      2.0830                 4.8714                 1.1839
 Frc consts  --      1.6338                 5.1253                 1.4918
 IR Inten    --      6.6652                 0.7368                10.4088

                     16                     17                     18
                     A'                     A'                     A"
 Frequencies --   1483.8091              1669.0182              3086.2105
 Red. masses --      1.1515                10.6937                 1.0544
 Frc consts  --      1.4937                17.5510                 5.9170
 IR Inten    --      5.0281               469.8679                26.7192

                     19                     20                     21
                     A'                     A"                     A'
 Frequencies --   3088.5646              3206.7756              3208.4222
 Red. masses --      1.0548                 1.1160                 1.1195
 Frc consts  --      5.9285                 6.7616                 6.7900
 IR Inten    --      7.0433                19.0747                31.5915

 - Thermochemistry -
 -------------------
 Temperature   298.150 Kelvin.  Pressure   1.00000 Atm.
 Atom     1 has atomic number  6 and mass  12.00000

 Molecular mass:    64.03130 amu.
 Principal axes and moments of inertia in atomic units:
                           1         2         3
     Eigenvalues --   197.48836 247.38320 395.15688
           X            0.01981   0.00000   0.99980
           Y            0.99980   0.00000  -0.01981
           Z            0.00000   1.00000   0.00000
 This molecule is an asymmetric top.
 Rotational symmetry number  1.
 Rotational temperatures (Kelvin)      0.43858     0.35012     0.21919
 Rotational constants (GHZ):           9.13847     7.29533     4.56715
 Zero-point vibrational energy     166730.0 (Joules/Mol)
                                   39.84943 (Kcal/Mol)
 Warning -- explicit consideration of   5 degrees of freedom as
           vibrations may cause significant error
 Vibrational temperatures:    136.75   175.12   458.22   637.88   676.17
          (Kelvin)            954.62  1216.61  1381.05  1411.80  1507.71
                             1598.67  1614.27  1660.04  1922.65  2104.05
                             2134.87  2401.34  4440.36  4443.75  4613.83
                             4616.20

 Zero-point correction=                           0.063504 (Hartree/Particle)
 Thermal correction to Energy=                    0.069087
 Thermal correction to Enthalpy=                  0.070031
 Thermal correction to Gibbs Free Energy=         0.034504
 Sum of electronic and zero-point Energies=           -192.328992
 Sum of electronic and thermal Energies=              -192.323409
 Sum of electronic and thermal Enthalpies=            -192.322465
 Sum of electronic and thermal Free Energies=         -192.357992

                     E (Thermal)             CV                S
                      KCal/Mol        Cal/Mol-Kelvin    Cal/Mol-Kelvin
 Total                   43.353             17.911             74.772
 Electronic               0.000              0.000              1.377
 Translational            0.889              2.981             38.389
 Rotational               0.889              2.981             24.471
 Vibrational             41.575             11.949             10.534
 Vibration     1          0.603              1.953              3.553
 Vibration     2          0.609              1.931              3.073
 Vibration     3          0.705              1.638              1.318
 Vibration     4          0.803              1.376              0.816
 Vibration     5          0.827              1.317              0.738

 Optimization completed.
    -- Stationary point found.
 Normal termination of Gaussian 09 at Thu Jan 31 07:16:57 2019.
