 Gaussian 09, Revision E.01,
 Gaussian 09:  EM64L-G09RevE.01 30-Nov-2015

 ---------------------------------------------
 #p b3lyp/6-311++G(3df,2p) freq symmetry=Loose
 ---------------------------------------------

 ---------
 b3lyp opt
 ---------
 Symbolic Z-matrix:
 Charge =  1 Multiplicity = 4

                         Standard orientation:
 ---------------------------------------------------------------------
 Center     Atomic      Atomic             Coordinates (Angstroms)
 Number     Number       Type             X           Y           Z
 ---------------------------------------------------------------------
      1          6           0       -1.044898   -0.077379    0.416896
      2          1           0       -1.112923   -0.176885    1.500892
      3          1           0       -0.548067    1.379102   -1.155975
      4          6           0       -0.264792    1.088887   -0.147205
      5          6           0       -1.570341   -1.058358   -0.369165
      6          1           0       -0.241871    1.941034    0.530197
      7          6           0        0.926033    0.269092   -0.089467
      8          6           0        1.829642   -0.542104    0.024806
      9          1           0        2.649000   -1.224073    0.109707
 ---------------------------------------------------------------------

 SCF Done:  E(UB3LYP) =  -192.366188763     A.U. after   19 cycles

 The electronic state is 4-A.
 Alpha  occ. eigenvalues --  -10.50848 -10.48968 -10.44342 -10.43696 -10.43680
 Alpha  occ. eigenvalues --   -1.10047  -1.00855  -0.95156  -0.79066  -0.76844
 Alpha  occ. eigenvalues --   -0.71971  -0.69533  -0.65751  -0.61588  -0.57422
 Alpha  occ. eigenvalues --   -0.52162  -0.51384  -0.46940
 Alpha virt. eigenvalues --   -0.28003  -0.19929  -0.17209  -0.15052  -0.12857
 Alpha virt. eigenvalues --   -0.11638  -0.10569  -0.09801  -0.08392  -0.07328
 Alpha virt. eigenvalues --   -0.06833  -0.05995  -0.05630  -0.03959  -0.03215

  Beta  occ. eigenvalues --  -10.48571 -10.46812 -10.44185 -10.43485 -10.43082
  Beta  occ. eigenvalues --   -1.08113  -0.97594  -0.91683  -0.76216  -0.75599
  Beta  occ. eigenvalues --   -0.71045  -0.67317  -0.63975  -0.53017  -0.51582
  Beta virt. eigenvalues --   -0.40236  -0.39689  -0.27828  -0.22417  -0.19313
  Beta virt. eigenvalues --   -0.14672  -0.14419  -0.12570  -0.11372  -0.09892
  Beta virt. eigenvalues --   -0.09419  -0.07674  -0.06790  -0.06565  -0.05543

 Mulliken charges and spin densities:
               1          2
     1  C   -0.028264  -0.076620
     2  H    0.225388   0.054317
     3  H    0.231231   0.001802
     4  C   -0.159740   0.084464
     5  C   -0.036949   2.483145
     6  H    0.214442   0.001780
     7  C   -0.232249   0.050099
     8  C    0.415576   0.409958
     9  H    0.370564  -0.008944
 Sum of Mulliken charges =   1.00000   3.00000

 Dipole moment (field-independent basis, Debye):
    X=             -0.1134    Y=             -0.3549    Z=              0.4575  Tot=              0.5900
 Quadrupole moment (field-independent basis, Debye-Ang):
   XX=            -13.9085   YY=            -20.3750   ZZ=            -25.0393
   XY=             -2.4741   XZ=              0.0791   YZ=             -0.0131

  Exact polarizability:  86.443   1.630  49.414   0.432   1.660  37.913
 Approx polarizability: 151.351  -0.993  79.921   1.940   5.056  56.345

                      1                      2                      3
                      A                      A                      A
 Frequencies --    152.2890               207.9109               323.4378
 Red. masses --      5.8027                 2.9562                 3.6385
 Frc consts  --      0.0793                 0.0753                 0.2243
 IR Inten    --      0.0407                 2.1951                10.6608

                      4                      5                      6
                      A                      A                      A
 Frequencies --    407.8971               472.4541               693.0871
 Red. masses --      4.6229                 3.3315                 1.2420
 Frc consts  --      0.4532                 0.4381                 0.3515
 IR Inten    --      9.6264                 4.1083                44.2583

                      7                      8                      9
                      A                      A                      A
 Frequencies --    731.5048               828.0140               875.9391
 Red. masses --      1.3023                 1.4112                 3.5187
 Frc consts  --      0.4106                 0.5700                 1.5907
 IR Inten    --     20.2189                 7.1823                 3.8825

                     10                     11                     12
                      A                      A                      A
 Frequencies --    964.3745              1025.4493              1137.1739
 Red. masses --      1.9426                 3.1618                 1.1798
 Frc consts  --      1.0645                 1.9589                 0.8989
 IR Inten    --      2.6198                 2.4789                 8.2133

                     13                     14                     15
                      A                      A                      A
 Frequencies --   1225.3446              1271.1446              1371.6002
 Red. masses --      1.3212                 1.2236                 4.3933
 Frc consts  --      1.1688                 1.1649                 4.8697
 IR Inten    --      2.1764                10.4926               136.3813

                     16                     17                     18
                      A                      A                      A
 Frequencies --   1458.6309              2079.9105              3076.4841
 Red. masses --      1.0996                 6.1648                 1.0563
 Frc consts  --      1.3784                15.7131                 5.8907
 IR Inten    --      8.6384               243.3573                16.6712

                     19                     20                     21
                      A                      A                      A
 Frequencies --   3089.7981              3144.7365              3391.3902
 Red. masses --      1.0871                 1.1111                 1.1533
 Frc consts  --      6.1147                 6.4738                 7.8155
 IR Inten    --     15.2725                17.3433               119.3153

 - Thermochemistry -
 -------------------
 Temperature   298.150 Kelvin.  Pressure   1.00000 Atm.
 Atom     1 has atomic number  6 and mass  12.00000

 Molecular mass:    64.03130 amu.
 Principal axes and moments of inertia in atomic units:
                           1         2         3
     Eigenvalues --   167.94586 396.05626 507.22892
           X            0.99776  -0.06650  -0.00775
           Y            0.06625   0.99740  -0.02845
           Z            0.00963   0.02788   0.99956
 This molecule is an asymmetric top.
 Rotational symmetry number  1.
 Rotational temperatures (Kelvin)      0.51572     0.21869     0.17076
 Rotational constants (GHZ):          10.74597     4.55678     3.55804
 Zero-point vibrational energy     167050.0 (Joules/Mol)
                                   39.92590 (Kcal/Mol)
 Warning -- explicit consideration of   5 degrees of freedom as
           vibrations may cause significant error
 Vibrational temperatures:    219.11   299.14   465.35   586.87   679.76
          (Kelvin)            997.20  1052.47  1191.33  1260.28  1387.52
                             1475.39  1636.14  1763.00  1828.89  1973.42
                             2098.64  2992.52  4426.37  4445.52  4524.57
                             4879.45

 Zero-point correction=                           0.063626 (Hartree/Particle)
 Thermal correction to Energy=                    0.069070
 Thermal correction to Enthalpy=                  0.070015
 Thermal correction to Gibbs Free Energy=         0.034329
 Sum of electronic and zero-point Energies=           -192.302563
 Sum of electronic and thermal Energies=              -192.297118
 Sum of electronic and thermal Enthalpies=            -192.296174
 Sum of electronic and thermal Free Energies=         -192.331860

                     E (Thermal)             CV                S
                      KCal/Mol        Cal/Mol-Kelvin    Cal/Mol-Kelvin
 Total                   43.342             18.417             75.107
 Electronic               0.000              0.000              2.755
 Translational            0.889              2.981             38.389
 Rotational               0.889              2.981             25.026
 Vibrational             41.565             12.455              8.937
 Vibration     1          0.619              1.900              2.643
 Vibration     2          0.641              1.829              2.062
 Vibration     3          0.708              1.629              1.293
 Vibration     4          0.772              1.453              0.934
 Vibration     5          0.829              1.311              0.731

 Optimization completed.
    -- Stationary point found.
 Normal termination of Gaussian 09 at Mon Jun 20 06:10:27 2016.
