 Gaussian 09, Revision E.01,
 Gaussian 09:  EM64L-G09RevE.01 30-Nov-2015

 ------------------------------------------------------
 #p b3lyp/6-311++G(3df,2p) freq IOp(2/17=3) IOp(2/18=3)
 ------------------------------------------------------

 ---------
 b3lyp opt
 ---------
 Symbolic Z-matrix:
 Charge =  1 Multiplicity = 4

                         Standard orientation:
 ---------------------------------------------------------------------
 Center     Atomic      Atomic             Coordinates (Angstroms)
 Number     Number       Type             X           Y           Z
 ---------------------------------------------------------------------
      1          6           0        0.223335   -0.505978    0.830353
      2          1           0       -1.272038   -1.888600   -0.000000
      3          6           0       -0.000000    0.610116    0.000000
      4          6           0       -0.068492    1.984520    0.000000
      5          1           0       -0.107151    2.527430    0.933396
      6          1           0       -0.107151    2.527430   -0.933396
      7          6           0        0.223335   -0.505978   -0.830353
      8          6           0       -0.202545   -1.683015   -0.000000
      9          1           0        0.431213   -2.564239   -0.000000
 ---------------------------------------------------------------------

 SCF Done:  E(UB3LYP) =  -192.404204612     A.U. after   15 cycles

 The electronic state is 4-A".
 Alpha  occ. eigenvalues --  -10.52224 -10.52215 -10.47339 -10.45363 -10.43059
 Alpha  occ. eigenvalues --   -1.21225  -1.00821  -0.91340  -0.83787  -0.75106
 Alpha  occ. eigenvalues --   -0.72165  -0.68563  -0.67773  -0.61361  -0.61360
 Alpha  occ. eigenvalues --   -0.59028  -0.47587  -0.47114
 Alpha virt. eigenvalues --   -0.27905  -0.21490  -0.14294  -0.13293  -0.12579
 Alpha virt. eigenvalues --   -0.11447  -0.09373  -0.09171  -0.07588  -0.06426
 Alpha virt. eigenvalues --   -0.05335  -0.05292  -0.04653  -0.04083  -0.03119

  Beta  occ. eigenvalues --  -10.49994 -10.49989 -10.47521 -10.45307 -10.42025
  Beta  occ. eigenvalues --   -1.18694  -0.98993  -0.89681  -0.77268  -0.73725
  Beta  occ. eigenvalues --   -0.69591  -0.66748  -0.66611  -0.60061  -0.56700
  Beta virt. eigenvalues --   -0.42875  -0.34794  -0.30094  -0.21686  -0.18166
  Beta virt. eigenvalues --   -0.13605  -0.12956  -0.11691  -0.11111  -0.08931
  Beta virt. eigenvalues --   -0.08853  -0.07250  -0.05553  -0.04638  -0.04579

 Mulliken charges and spin densities:
               1          2
     1  C    0.071915   1.330841
     2  H    0.261302   0.045900
     3  C    0.736284  -0.330119
     4  C   -0.296665   0.711989
     5  H    0.231202  -0.018792
     6  H    0.231202  -0.018792
     7  C    0.071915   1.330841
     8  C   -0.514224  -0.074819
     9  H    0.207069   0.022950
 Sum of Mulliken charges =   1.00000   3.00000

 Dipole moment (field-independent basis, Debye):
    X=             -0.5716    Y=             -0.1511    Z=             -0.0000  Tot=              0.5912
 Quadrupole moment (field-independent basis, Debye-Ang):
   XX=            -26.8750   YY=            -10.0758   ZZ=            -23.9613
   XY=              0.3991   XZ=             -0.0000   YZ=             -0.0000

  Exact polarizability:  32.915  -0.410  72.428   0.000  -0.000  40.522
 Approx polarizability:  47.507  -1.835 103.632  -0.000  -0.000  75.263

                      1                      2                      3
                     A'                     A"                     A"
 Frequencies --    250.4441               327.3523               447.0196
 Red. masses --      2.9218                 2.8643                 1.0882
 Frc consts  --      0.1080                 0.1808                 0.1281
 IR Inten    --      9.3560                 2.9137                 0.5992

                      4                      5                      6
                     A'                     A"                     A'
 Frequencies --    557.6745               698.7258               743.3215
 Red. masses --      4.7279                 5.3272                 5.7723
 Frc consts  --      0.8663                 1.5324                 1.8791
 IR Inten    --     13.1580                 0.1247                14.6699

                      7                      8                      9
                     A"                     A'                     A'
 Frequencies --    845.7690               873.8542               997.3429
 Red. masses --      2.9903                 1.3617                 1.8680
 Frc consts  --      1.2603                 0.6126                 1.0947
 IR Inten    --      1.1918                25.3243                17.2869

                     10                     11                     12
                     A"                     A"                     A'
 Frequencies --   1019.2627              1078.4977              1088.0298
 Red. masses --      1.1824                 1.4954                 3.1104
 Frc consts  --      0.7237                 1.0248                 2.1694
 IR Inten    --      1.5467                 3.9567                 2.6795

                     13                     14                     15
                     A'                     A"                     A'
 Frequencies --   1158.4168              1183.5874              1459.1270
 Red. masses --      6.0587                 1.5684                 1.1914
 Frc consts  --      4.7903                 1.2945                 1.4944
 IR Inten    --      1.7253                32.0757                12.9807

                     16                     17                     18
                     A'                     A'                     A'
 Frequencies --   1475.1120              1556.3700              3070.5214
 Red. masses --      1.1338                 7.1953                 1.0558
 Frc consts  --      1.4536                10.2690                 5.8648
 IR Inten    --      2.1112                 1.7167                28.9650

                     19                     20                     21
                     A'                     A'                     A"
 Frequencies --   3157.2422              3167.3668              3267.8868
 Red. masses --      1.0524                 1.1128                 1.1219
 Frc consts  --      6.1808                 6.5778                 7.0589
 IR Inten    --     25.8714                16.3174                15.9369

 - Thermochemistry -
 -------------------
 Temperature   298.150 Kelvin.  Pressure   1.00000 Atm.
 Atom     1 has atomic number  6 and mass  12.00000

 Molecular mass:    64.03130 amu.
 Principal axes and moments of inertia in atomic units:
                           1         2         3
     Eigenvalues --    78.10370 423.25397 475.87797
           X            0.00465   0.00000   0.99999
           Y            0.99999   0.00000  -0.00465
           Z           -0.00000   1.00000  -0.00000
 This molecule is an asymmetric top.
 Rotational symmetry number  1.
 Rotational temperatures (Kelvin)      1.10896     0.20464     0.18201
 Rotational constants (GHZ):          23.10699     4.26397     3.79245
 Zero-point vibrational energy     170006.8 (Joules/Mol)
                                   40.63261 (Kcal/Mol)
 Warning -- explicit consideration of   4 degrees of freedom as
           vibrations may cause significant error
 Vibrational temperatures:    360.33   470.99   643.16   802.37  1005.31
          (Kelvin)           1069.47  1216.87  1257.28  1434.95  1466.49
                             1551.72  1565.43  1666.70  1702.92  2099.36
                             2122.35  2239.27  4417.79  4542.56  4557.13
                             4701.75

 Zero-point correction=                           0.064752 (Hartree/Particle)
 Thermal correction to Energy=                    0.069422
 Thermal correction to Enthalpy=                  0.070366
 Thermal correction to Gibbs Free Energy=         0.036591
 Sum of electronic and zero-point Energies=           -192.339452
 Sum of electronic and thermal Energies=              -192.334783
 Sum of electronic and thermal Enthalpies=            -192.333839
 Sum of electronic and thermal Free Energies=         -192.367613

                     E (Thermal)             CV                S
                      KCal/Mol        Cal/Mol-Kelvin    Cal/Mol-Kelvin
 Total                   43.563             16.536             71.085
 Electronic               0.000              0.000              2.755
 Translational            0.889              2.981             38.389
 Rotational               0.889              2.981             24.268
 Vibrational             41.785             10.574              5.673
 Vibration     1          0.663              1.762              1.727
 Vibration     2          0.711              1.621              1.273
 Vibration     3          0.806              1.367              0.805
 Vibration     4          0.913              1.123              0.528

 Optimization completed.
    -- Stationary point found.
 Normal termination of Gaussian 09 at Thu Jan 31 07:50:55 2019.
