 Gaussian 09, Revision E.01,
 Gaussian 09:  EM64L-G09RevE.01 30-Nov-2015

 ---------------------------------------------
 #p b3lyp/6-311++G(3df,2p) freq symmetry=Loose
 ---------------------------------------------

 ---------
 b3lyp opt
 ---------
 Symbolic Z-matrix:
 Charge =  2 Multiplicity = 3

                         Standard orientation:
 ---------------------------------------------------------------------
 Center     Atomic      Atomic             Coordinates (Angstroms)
 Number     Number       Type             X           Y           Z
 ---------------------------------------------------------------------
      1          6           0       -0.504767   -0.751366   -0.000278
      2          1           0       -2.373340   -0.000137    0.937997
      3          6           0        0.674672   -0.000115    0.000062
      4          6           0        2.063716    0.000026    0.000003
      5          1           0        2.600147   -0.946373    0.000649
      6          1           0        2.599762    0.946749   -0.000514
      7          6           0       -0.504661    0.751302    0.000082
      8          6           0       -1.804486    0.000043    0.000075
      9          1           0       -2.373412    0.000421   -0.937795
 ---------------------------------------------------------------------

 SCF Done:  E(UB3LYP) =  -191.868786824     A.U. after   17 cycles

 The electronic state is 3-A.
 Alpha  occ. eigenvalues --  -10.83716 -10.83685 -10.76502 -10.73133 -10.66902
 Alpha  occ. eigenvalues --   -1.52193  -1.27510  -1.18412  -1.08301  -0.99666
 Alpha  occ. eigenvalues --   -0.98353  -0.93048  -0.92772  -0.86725  -0.86034
 Alpha  occ. eigenvalues --   -0.84720  -0.70896
 Alpha virt. eigenvalues --   -0.59914  -0.54116  -0.45250  -0.34251  -0.32907
 Alpha virt. eigenvalues --   -0.31036  -0.28140  -0.27792  -0.26409  -0.25105
 Alpha virt. eigenvalues --   -0.23617  -0.23600  -0.22433  -0.22063  -0.20034

  Beta  occ. eigenvalues --  -10.82289 -10.82270 -10.76507 -10.73257 -10.65877
  Beta  occ. eigenvalues --   -1.50558  -1.26465  -1.16150  -1.03294  -0.98690
  Beta  occ. eigenvalues --   -0.96720  -0.91976  -0.91571  -0.84007  -0.83953
  Beta virt. eigenvalues --   -0.70924  -0.59393  -0.55635  -0.49314  -0.40663
  Beta virt. eigenvalues --   -0.33742  -0.31816  -0.30282  -0.27935  -0.27377
  Beta virt. eigenvalues --   -0.25631  -0.24570  -0.23188  -0.22660  -0.21705

 Mulliken charges and spin densities:
               1          2
     1  C    0.965457   0.551527
     2  H    0.305529   0.033401
     3  C    0.351414   0.071996
     4  C   -0.682014   0.795765
     5  H    0.295748  -0.020350
     6  H    0.295700  -0.020366
     7  C    0.965169   0.551684
     8  C   -0.802578   0.002964
     9  H    0.305576   0.033379
 Sum of Mulliken charges =   2.00000   2.00000

 Dipole moment (field-independent basis, Debye):
    X=             -0.8975    Y=              0.0003    Z=              0.0000  Tot=              0.8975
 Quadrupole moment (field-independent basis, Debye-Ang):
   XX=              6.7958   YY=            -19.1485   ZZ=            -22.8855
   XY=             -0.0001   XZ=             -0.0001   YZ=             -0.0013

  Exact polarizability:  72.317   0.001  34.295   0.000  -0.000  27.259
 Approx polarizability: 108.293   0.005  77.138   0.001   0.005  40.237

                      1                      2                      3
                      A                      A                      A
 Frequencies --    177.9645               226.2345               320.0697
 Red. masses --      4.7452                 3.0717                 1.1155
 Frc consts  --      0.0885                 0.0926                 0.0673
 IR Inten    --      3.2655                 5.9502                 0.0000

                      4                      5                      6
                      A                      A                      A
 Frequencies --    445.8561               494.4823               593.1010
 Red. masses --      6.5474                 3.8352                 5.6297
 Frc consts  --      0.7668                 0.5525                 1.1668
 IR Inten    --      6.5904                 3.2188                 0.2594

                      7                      8                      9
                      A                      A                      A
 Frequencies --    746.6425               899.7019               931.3508
 Red. masses --      5.4466                 1.3195                 1.1135
 Frc consts  --      1.7890                 0.6293                 0.5691
 IR Inten    --      8.8631                24.7016                 0.0000

                     10                     11                     12
                      A                      A                      A
 Frequencies --   1019.2102              1042.1210              1131.7520
 Red. masses --      1.4682                 1.2956                 7.3569
 Frc consts  --      0.8986                 0.8290                 5.5520
 IR Inten    --      0.1455                 0.7137                 4.7550

                     13                     14                     15
                      A                      A                      A
 Frequencies --   1154.9849              1171.9914              1418.8910
 Red. masses --      1.2834                 6.8785                 1.1575
 Frc consts  --      1.0087                 5.5666                 1.3730
 IR Inten    --     56.5616                34.7910                31.6558

                     16                     17                     18
                      A                      A                      A
 Frequencies --   1445.8372              1623.3404              2985.5148
 Red. masses --      1.1168                 8.7687                 1.0483
 Frc consts  --      1.3755                13.6146                 5.5052
 IR Inten    --      6.1660                53.7638               228.5090

                     19                     20                     21
                      A                      A                      A
 Frequencies --   3085.0355              3087.9434              3207.2061
 Red. masses --      1.1250                 1.0495                 1.1252
 Frc consts  --      6.3086                 5.8964                 6.8193
 IR Inten    --    132.2416               175.6303                90.2532

 - Thermochemistry -
 -------------------
 Temperature   298.150 Kelvin.  Pressure   1.00000 Atm.
 Atom     1 has atomic number  6 and mass  12.00000

 Molecular mass:    64.03130 amu.
 Principal axes and moments of inertia in atomic units:
                           1         2         3
     Eigenvalues --    61.16202 458.90393 507.40249
           X            1.00000  -0.00000  -0.00000
           Y            0.00000   1.00000  -0.00012
           Z            0.00000   0.00012   1.00000
 This molecule is an asymmetric top.
 Rotational symmetry number  1.
 Rotational temperatures (Kelvin)      1.41614     0.18874     0.17070
 Rotational constants (GHZ):          29.50755     3.93272     3.55682
 Zero-point vibrational energy     162747.3 (Joules/Mol)
                                   38.89755 (Kcal/Mol)
 Warning -- explicit consideration of   6 degrees of freedom as
           vibrations may cause significant error
 Vibrational temperatures:    256.05   325.50   460.51   641.49   711.45
          (Kelvin)            853.34  1074.25  1294.47  1340.00  1466.41
                             1499.38  1628.34  1661.76  1686.23  2041.47
                             2080.23  2335.62  4295.48  4438.67  4442.86
                             4614.45

 Zero-point correction=                           0.061987 (Hartree/Particle)
 Thermal correction to Energy=                    0.067331
 Thermal correction to Enthalpy=                  0.068275
 Thermal correction to Gibbs Free Energy=         0.033531
 Sum of electronic and zero-point Energies=           -191.806800
 Sum of electronic and thermal Energies=              -191.801456
 Sum of electronic and thermal Enthalpies=            -191.800511
 Sum of electronic and thermal Free Energies=         -191.835256

                     E (Thermal)             CV                S
                      KCal/Mol        Cal/Mol-Kelvin    Cal/Mol-Kelvin
 Total                   42.251             18.290             73.125
 Electronic               0.000              0.000              2.183
 Translational            0.889              2.981             38.389
 Rotational               0.889              2.981             24.169
 Vibrational             40.473             12.329              8.383
 Vibration     1          0.628              1.869              2.350
 Vibration     2          0.650              1.801              1.909
 Vibration     3          0.706              1.635              1.310
 Vibration     4          0.805              1.370              0.808
 Vibration     5          0.850              1.262              0.672
 Vibration     6          0.951              1.046              0.462

 Optimization completed.
    -- Stationary point found.
 Normal termination of Gaussian 09 at Mon Jun 20 09:54:05 2016.
