 Gaussian 09, Revision E.01,
 Gaussian 09:  EM64L-G09RevE.01 30-Nov-2015

 ---------------------------------------------
 #p b3lyp/6-311++G(3df,2p) freq symmetry=Loose
 ---------------------------------------------

 ---------
 b3lyp opt
 ---------
 Symbolic Z-matrix:
 Charge =  2 Multiplicity = 3

                         Standard orientation:
 ---------------------------------------------------------------------
 Center     Atomic      Atomic             Coordinates (Angstroms)
 Number     Number       Type             X           Y           Z
 ---------------------------------------------------------------------
      1          6           0        1.307500   -0.409567   -0.041842
      2          6           0       -2.385842   -0.172619    0.003074
      3          1           0        1.186898   -1.504298   -0.066891
      4          1           0       -2.899709   -0.451160    0.932971
      5          1           0       -2.963260   -0.138508   -0.930889
      6          6           0        2.620164    0.020242    0.026714
      7          6           0       -1.051172    0.133486    0.007593
      8          6           0        0.220079    0.511451    0.009798
      9          1           0        0.411706    1.596010    0.032787
 ---------------------------------------------------------------------

 SCF Done:  E(UB3LYP) =  -191.872357022     A.U. after   28 cycles

 The electronic state is 3-A.
 Alpha  occ. eigenvalues --  -10.75800 -10.75237 -10.72046 -10.69520 -10.68282
 Alpha  occ. eigenvalues --   -1.33030  -1.27150  -1.19434  -1.02880  -0.99925
 Alpha  occ. eigenvalues --   -0.95623  -0.92563  -0.90005  -0.82046  -0.79099
 Alpha  occ. eigenvalues --   -0.75031  -0.72986
 Alpha virt. eigenvalues --   -0.55502  -0.52440  -0.51010  -0.40792  -0.33466
 Alpha virt. eigenvalues --   -0.30440  -0.27579  -0.26185  -0.25874  -0.25016
 Alpha virt. eigenvalues --   -0.22940  -0.22703  -0.22274  -0.20825  -0.20307

  Beta  occ. eigenvalues --  -10.74547 -10.74488 -10.71347 -10.69641 -10.67798
  Beta  occ. eigenvalues --   -1.30750  -1.23868  -1.17326  -1.01049  -0.98732
  Beta  occ. eigenvalues --   -0.94488  -0.90647  -0.88466  -0.78861  -0.73239
  Beta virt. eigenvalues --   -0.66368  -0.62928  -0.54601  -0.47748  -0.45272
  Beta virt. eigenvalues --   -0.38006  -0.32685  -0.30204  -0.27038  -0.26004
  Beta virt. eigenvalues --   -0.25436  -0.24269  -0.22404  -0.21817  -0.21269

 Mulliken charges and spin densities:
               1          2
     1  C    0.258032   0.350777
     2  C   -0.134992   0.407296
     3  H    0.253514  -0.006289
     4  H    0.302340   0.014355
     5  H    0.304958   0.013925
     6  C    0.050356   0.391719
     7  C    0.721786   0.760070
     8  C   -0.011832   0.037830
     9  H    0.255839   0.030317
 Sum of Mulliken charges =   2.00000   2.00000

 Dipole moment (field-independent basis, Debye):
    X=             -3.5480    Y=             -0.7594    Z=             -0.1447  Tot=              3.6312
 Quadrupole moment (field-independent basis, Debye-Ang):
   XX=             14.7590   YY=            -18.0681   ZZ=            -23.7355
   XY=             -0.2314   XZ=             -0.4329   YZ=             -0.1141

  Exact polarizability: 131.910   2.028  36.190  -3.405  -0.085  31.592
 Approx polarizability: 249.973   1.253  56.003  -0.347   0.436  43.334

                      1                      2                      3
                      A                      A                      A
 Frequencies --     40.9258               143.9571               175.2929
 Red. masses --      1.7846                 4.1500                 1.7689
 Frc consts  --      0.0018                 0.0507                 0.0320
 IR Inten    --     61.3374                 4.5187                25.0280

                      4                      5                      6
                      A                      A                      A
 Frequencies --    256.0843               326.6598               489.2704
 Red. masses --      5.6048                 2.7430                 5.4287
 Frc consts  --      0.2166                 0.1725                 0.7657
 IR Inten    --     16.7661                12.5859                 4.5542

                      7                      8                      9
                      A                      A                      A
 Frequencies --    704.9947               816.2173               906.0524
 Red. masses --      2.0558                 1.1582                 3.3008
 Frc consts  --      0.6020                 0.4546                 1.5965
 IR Inten    --     30.8471                71.1070                 3.5789

                     10                     11                     12
                      A                      A                      A
 Frequencies --    956.5405               999.6596              1012.3605
 Red. masses --      1.4771                 1.3522                 1.6110
 Frc consts  --      0.7963                 0.7961                 0.9728
 IR Inten    --      1.4829                19.1329                37.1738

                     13                     14                     15
                      A                      A                      A
 Frequencies --   1129.3962              1253.4415              1386.6814
 Red. masses --      2.5242                 1.3852                 1.1414
 Frc consts  --      1.8970                 1.2822                 1.2932
 IR Inten    --    175.9709               125.3093                13.2374

                     16                     17                     18
                      A                      A                      A
 Frequencies --   1436.8170              1750.8078              2975.2652
 Red. masses --      4.4739                10.1190                 1.0783
 Frc consts  --      5.4418                18.2753                 5.6238
 IR Inten    --     14.3485                13.1032               176.3607

                     19                     20                     21
                      A                      A                      A
 Frequencies --   2988.5253              3004.0091              3090.3745
 Red. masses --      1.0535                 1.0838                 1.1198
 Frc consts  --      5.5435                 5.7624                 6.3013
 IR Inten    --    299.5617               136.1815               138.8062

 - Thermochemistry -
 -------------------
 Temperature   298.150 Kelvin.  Pressure   1.00000 Atm.
 Atom     1 has atomic number  6 and mass  12.00000

 Molecular mass:    64.03130 amu.
 Principal axes and moments of inertia in atomic units:
                           1         2         3
     Eigenvalues --    44.93253 733.73867 765.91833
           X            0.99999   0.00320  -0.00010
           Y           -0.00321   0.99988  -0.01529
           Z            0.00005   0.01529   0.99988
 This molecule is an asymmetric top.
 Rotational symmetry number  1.
 Rotational temperatures (Kelvin)      1.92764     0.11804     0.11308
 Rotational constants (GHZ):          40.16558     2.45965     2.35631
 Zero-point vibrational energy     154577.5 (Joules/Mol)
                                   36.94490 (Kcal/Mol)
 Warning -- explicit consideration of   6 degrees of freedom as
           vibrations may cause significant error
 Vibrational temperatures:     58.88   207.12   252.21   368.45   469.99
          (Kelvin)            703.95  1014.33  1174.35  1303.61  1376.25
                             1438.29  1456.56  1624.95  1803.42  1995.12
                             2067.26  2519.02  4280.74  4299.82  4322.09
                             4446.35

 Zero-point correction=                           0.058875 (Hartree/Particle)
 Thermal correction to Energy=                    0.065319
 Thermal correction to Enthalpy=                  0.066263
 Thermal correction to Gibbs Free Energy=         0.028084
 Sum of electronic and zero-point Energies=           -191.813482
 Sum of electronic and thermal Energies=              -191.807038
 Sum of electronic and thermal Enthalpies=            -191.806094
 Sum of electronic and thermal Free Energies=         -191.844273

                     E (Thermal)             CV                S
                      KCal/Mol        Cal/Mol-Kelvin    Cal/Mol-Kelvin
 Total                   40.988             20.141             80.355
 Electronic               0.000              0.000              2.183
 Translational            0.889              2.981             38.389
 Rotational               0.889              2.981             24.738
 Vibrational             39.211             14.179             15.045
 Vibration     1          0.594              1.981              5.214
 Vibration     2          0.616              1.909              2.751
 Vibration     3          0.627              1.873              2.378
 Vibration     4          0.666              1.753              1.688
 Vibration     5          0.710              1.622              1.277
 Vibration     6          0.845              1.274              0.686

 Normal termination of Gaussian 09 at Mon Jun 20 09:17:25 2016.
