 Gaussian 09, Revision E.01,
 Gaussian 09:  EM64L-G09RevE.01 30-Nov-2015

 ---------------------------------------------
 #p b3lyp/6-311++G(3df,2p) freq symmetry=Loose
 ---------------------------------------------

 ---------
 b3lyp opt
 ---------
 Symbolic Z-matrix:
 Charge =  2 Multiplicity = 1

                         Standard orientation:
 ---------------------------------------------------------------------
 Center     Atomic      Atomic             Coordinates (Angstroms)
 Number     Number       Type             X           Y           Z
 ---------------------------------------------------------------------
      1          6           0        1.362332   -0.116857    0.243020
      2          6           0       -0.903871    0.830206   -0.229837
      3          6           0        0.370325    0.898837   -0.037322
      4          1           0        2.251522   -0.173817   -0.397249
      5          1           0        1.570665   -0.261005    1.310038
      6          6           0        0.060713   -0.788851   -0.355518
      7          1           0        0.100394   -1.193844   -1.371508
      8          6           0       -1.211434   -0.411324    0.299885
      9          1           0       -1.990975   -0.843397    0.937352
 ---------------------------------------------------------------------

 SCF Done:  E(RB3LYP) =  -191.901756296     A.U. after   13 cycles

 The electronic state is 1-A.
 Alpha  occ. eigenvalues --  -10.80436 -10.79692 -10.77176 -10.75609 -10.71696
 Alpha  occ. eigenvalues --   -1.49134  -1.27589  -1.19517  -1.09282  -0.99998
 Alpha  occ. eigenvalues --   -0.99649  -0.96462  -0.92194  -0.90047  -0.84252
 Alpha  occ. eigenvalues --   -0.79203
 Alpha virt. eigenvalues --   -0.61575  -0.59539  -0.51157  -0.47591  -0.36226
 Alpha virt. eigenvalues --   -0.32756  -0.31912  -0.31181  -0.28680  -0.27668
 Alpha virt. eigenvalues --   -0.25458  -0.23794  -0.23278  -0.22676  -0.21461

 Mulliken charges:
               1
     1  C   -0.266016
     2  C    0.189310
     3  C    0.497940
     4  H    0.282411
     5  H    0.310757
     6  C   -0.035527
     7  H    0.291364
     8  C    0.363477
     9  H    0.366284
 Sum of Mulliken charges =   2.00000

 Dipole moment (field-independent basis, Debye):
    X=              0.0564    Y=             -1.3210    Z=              0.3689  Tot=              1.3727
 Quadrupole moment (field-independent basis, Debye-Ang):
   XX=             -6.6139   YY=            -17.8987   ZZ=            -18.7671
   XY=              1.8024   XZ=             -1.8488   YZ=              0.2457

  Exact polarizability:  50.430  -1.552  39.467  -0.049  -0.593  29.779
 Approx polarizability:  98.033  -6.279  89.724   1.551  -4.255  46.292

                      1                      2                      3
                      A                      A                      A
 Frequencies --    282.5150               388.8648               465.5358
 Red. masses --      2.7366                 2.8838                 5.8387
 Frc consts  --      0.1287                 0.2569                 0.7455
 IR Inten    --      8.5876                20.7785                15.4143

                      4                      5                      6
                      A                      A                      A
 Frequencies --    514.8855               709.3685               825.9515
 Red. masses --      5.6314                 3.1327                 1.9419
 Frc consts  --      0.8796                 0.9288                 0.7805
 IR Inten    --     15.5318                 3.3302                49.1484

                      7                      8                      9
                      A                      A                      A
 Frequencies --    943.1278               978.3454              1019.8144
 Red. masses --      1.8260                 2.0425                 1.2280
 Frc consts  --      0.9570                 1.1518                 0.7525
 IR Inten    --      8.5833                27.3799                 4.3286

                     10                     11                     12
                      A                      A                      A
 Frequencies --   1054.2448              1061.2720              1114.8344
 Red. masses --      1.7897                 1.9094                 1.2246
 Frc consts  --      1.1720                 1.2671                 0.8968
 IR Inten    --      4.0454                 4.0064                 1.5084

                     13                     14                     15
                      A                      A                      A
 Frequencies --   1149.6635              1243.0378              1347.4559
 Red. masses --      1.3293                 1.3576                 5.2542
 Frc consts  --      1.0352                 1.2359                 5.6206
 IR Inten    --     43.1597                16.8720                74.5740

                     16                     17                     18
                      A                      A                      A
 Frequencies --   1381.9645              1736.2554              3002.3969
 Red. masses --      1.1350                 9.6960                 1.0530
 Frc consts  --      1.2771                17.2214                 5.5924
 IR Inten    --     78.3976               124.2880               211.0755

                     19                     20                     21
                      A                      A                      A
 Frequencies --   3078.5318              3083.9900              3105.6154
 Red. masses --      1.1110                 1.0978                 1.1129
 Frc consts  --      6.2035                 6.1520                 6.3244
 IR Inten    --     23.5268               241.2010               129.7617

 - Thermochemistry -
 -------------------
 Temperature   298.150 Kelvin.  Pressure   1.00000 Atm.
 Atom     1 has atomic number  6 and mass  12.00000

 Molecular mass:    64.03130 amu.
 Principal axes and moments of inertia in atomic units:
                           1         2         3
     Eigenvalues --   137.06031 255.47788 331.14858
           X            0.99967   0.02110  -0.01477
           Y           -0.02071   0.99946   0.02553
           Z            0.01530  -0.02522   0.99956
 This molecule is an asymmetric top.
 Rotational symmetry number  1.
 Rotational temperatures (Kelvin)      0.63194     0.33903     0.26156
 Rotational constants (GHZ):          13.16750     7.06418     5.44994
 Zero-point vibrational energy     170394.1 (Joules/Mol)
                                   40.72517 (Kcal/Mol)
 Warning -- explicit consideration of   4 degrees of freedom as
           vibrations may cause significant error
 Vibrational temperatures:    406.48   559.49   669.80   740.80  1020.62
          (Kelvin)           1188.36  1356.95  1407.62  1467.28  1516.82
                             1526.93  1604.00  1654.11  1788.45  1938.69
                             1988.34  2498.08  4319.77  4429.32  4437.17
                             4468.28

 Zero-point correction=                           0.064900 (Hartree/Particle)
 Thermal correction to Energy=                    0.069396
 Thermal correction to Enthalpy=                  0.070340
 Thermal correction to Gibbs Free Energy=         0.038327
 Sum of electronic and zero-point Energies=           -191.836857
 Sum of electronic and thermal Energies=              -191.832361
 Sum of electronic and thermal Enthalpies=            -191.831417
 Sum of electronic and thermal Free Energies=         -191.863429

                     E (Thermal)             CV                S
                      KCal/Mol        Cal/Mol-Kelvin    Cal/Mol-Kelvin
 Total                   43.546             15.921             67.376
 Electronic               0.000              0.000              0.000
 Translational            0.889              2.981             38.389
 Rotational               0.889              2.981             23.965
 Vibrational             41.769              9.959              5.022
 Vibration     1          0.682              1.706              1.518
 Vibration     2          0.757              1.494              1.004
 Vibration     3          0.823              1.327              0.750
 Vibration     4          0.870              1.217              0.622

 Optimization completed.
    -- Stationary point found.
 Normal termination of Gaussian 09 at Mon Jun 20 08:26:21 2016.
