 Gaussian 09, Revision E.01,
 Gaussian 09:  EM64L-G09RevE.01 30-Nov-2015

 ---------------------------------------------
 #p b3lyp/6-311++G(3df,2p) freq symmetry=Loose
 ---------------------------------------------

 ---------
 b3lyp opt
 ---------
 Symbolic Z-matrix:
 Charge =  3 Multiplicity = 2

                         Standard orientation:
 ---------------------------------------------------------------------
 Center     Atomic      Atomic             Coordinates (Angstroms)
 Number     Number       Type             X           Y           Z
 ---------------------------------------------------------------------
      1          6           0       -1.378832    0.265159   -0.000034
      2          6           0       -0.102329   -0.406307   -0.000047
      3          6           0        1.163135    0.261748    0.000079
      4          1           0       -1.576663    1.395418    0.000075
      5          1           0       -0.104119   -1.504854   -0.000160
      6          1           0        1.317578    1.400711    0.000203
      7          6           0        2.397006   -0.109950    0.000095
      8          6           0       -2.602318   -0.181370   -0.000134
      9          1           0        3.503232   -0.266955    0.000127
 ---------------------------------------------------------------------

 SCF Done:  E(UB3LYP) =  -191.090160256     A.U. after   19 cycles

 The electronic state is 2-A.
 Alpha  occ. eigenvalues --  -11.07432 -11.00412 -10.97400 -10.92163 -10.90153
 Alpha  occ. eigenvalues --   -1.54786  -1.50886  -1.40515  -1.24762  -1.21720
 Alpha  occ. eigenvalues --   -1.18298  -1.14513  -1.09179  -1.07490  -1.04785
 Alpha  occ. eigenvalues --   -0.99642
 Alpha virt. eigenvalues --   -0.83657  -0.81765  -0.78595  -0.67385  -0.59638
 Alpha virt. eigenvalues --   -0.51370  -0.50806  -0.48941  -0.46467  -0.42586
 Alpha virt. eigenvalues --   -0.40929  -0.40343  -0.40280  -0.39259  -0.38104

  Beta  occ. eigenvalues --  -11.04903 -11.00561 -10.97433 -10.92013 -10.90109
  Beta  occ. eigenvalues --   -1.54089  -1.49967  -1.39735  -1.24387  -1.21069
  Beta  occ. eigenvalues --   -1.18258  -1.13296  -1.07747  -1.04469  -0.98669
  Beta virt. eigenvalues --   -0.86888  -0.82557  -0.79175  -0.77349  -0.65968
  Beta virt. eigenvalues --   -0.59258  -0.51353  -0.50719  -0.48990  -0.46323
  Beta virt. eigenvalues --   -0.42560  -0.40813  -0.40369  -0.40148  -0.38736

 Mulliken charges and spin densities:
               1          2
     1  C    0.360801   0.073559
     2  C    0.536299  -0.067795
     3  C    0.078963   0.032161
     4  H    0.287496  -0.002421
     5  H    0.292146  -0.002275
     6  H    0.268490   0.001432
     7  C    0.369465  -0.079221
     8  C    0.304274   1.042376
     9  H    0.502066   0.002184
 Sum of Mulliken charges =   3.00000   1.00000

 Dipole moment (field-independent basis, Debye):
    X=              0.9310    Y=              0.3764    Z=              0.0001  Tot=              1.0042
 Quadrupole moment (field-independent basis, Debye-Ang):
   XX=             50.8700   YY=            -12.0516   ZZ=            -24.2594
   XY=             -0.7964   XZ=              0.0032   YZ=              0.0012

  Exact polarizability:  94.685   0.451  33.658   0.004   0.001  24.379
 Approx polarizability: 199.687   3.798  55.519   0.008   0.002  33.767

                      1                      2                      3
                      A                      A                      A
 Frequencies --    144.1989               193.7181               214.4991
 Red. masses --      4.1368                 3.6696                 2.2450
 Frc consts  --      0.0507                 0.0811                 0.0609
 IR Inten    --     17.2506                25.5530                 1.8374

                      4                      5                      6
                      A                      A                      A
 Frequencies --    305.4861               414.1042               589.9092
 Red. masses --      4.2467                 3.7263                 1.4517
 Frc consts  --      0.2335                 0.3765                 0.2976
 IR Inten    --      5.2970                 6.2490                 0.2507

                      7                      8                      9
                      A                      A                      A
 Frequencies --    698.4214               788.0330               803.8017
 Red. masses --      1.3567                 2.1839                 1.3927
 Frc consts  --      0.3899                 0.7990                 0.5301
 IR Inten    --    116.5263                47.7575                17.0270

                     10                     11                     12
                      A                      A                      A
 Frequencies --    912.0705               947.5056              1036.4553
 Red. masses --      1.2052                 1.6090                 1.4221
 Frc consts  --      0.5907                 0.8511                 0.9001
 IR Inten    --      3.2470                 4.2846                17.5792

                     13                     14                     15
                      A                      A                      A
 Frequencies --   1101.9968              1180.8903              1398.1162
 Red. masses --      1.8326                 3.0087                 1.4033
 Frc consts  --      1.3113                 2.4720                 1.6162
 IR Inten    --      0.6563                31.8183                 7.3583

                     16                     17                     18
                      A                      A                      A
 Frequencies --   1601.5360              1740.0516              2577.0502
 Red. masses --      8.3356                 5.2471                 1.0737
 Frc consts  --     12.5968                 9.3603                 4.2013
 IR Inten    --    472.7342               861.4426                38.4863

                     19                     20                     21
                      A                      A                      A
 Frequencies --   2603.4191              2936.7039              3047.5707
 Red. masses --      1.0746                 1.1554                 1.0950
 Frc consts  --      4.2914                 5.8710                 5.9921
 IR Inten    --    694.4692               498.0259               133.7355

 - Thermochemistry -
 -------------------
 Temperature   298.150 Kelvin.  Pressure   1.00000 Atm.
 Atom     1 has atomic number  6 and mass  12.00000

 Molecular mass:    64.03130 amu.
 Principal axes and moments of inertia in atomic units:
                           1         2         3
     Eigenvalues --    37.34815 735.19492 772.54306
           X            0.99998  -0.00550  -0.00004
           Y            0.00550   0.99998  -0.00010
           Z            0.00004   0.00010   1.00000
 This molecule is an asymmetric top.
 Rotational symmetry number  1.
 Rotational temperatures (Kelvin)      2.31909     0.11781     0.11212
 Rotational constants (GHZ):          48.32211     2.45478     2.33610
 Zero-point vibrational energy     150942.0 (Joules/Mol)
                                   36.07601 (Kcal/Mol)
 Warning -- explicit consideration of   6 degrees of freedom as
           vibrations may cause significant error
 Vibrational temperatures:    207.47   278.72   308.62   439.53   595.80
          (Kelvin)            848.75  1004.87  1133.80  1156.49  1312.26
                             1363.25  1491.23  1585.53  1699.04  2011.57
                             2304.25  2503.54  3707.80  3745.73  4225.26
                             4384.77

 Zero-point correction=                           0.057491 (Hartree/Particle)
 Thermal correction to Energy=                    0.063417
 Thermal correction to Enthalpy=                  0.064361
 Thermal correction to Gibbs Free Energy=         0.028613
 Sum of electronic and zero-point Energies=           -191.032669
 Sum of electronic and thermal Energies=              -191.026743
 Sum of electronic and thermal Enthalpies=            -191.025799
 Sum of electronic and thermal Free Energies=         -191.061547

                     E (Thermal)             CV                S
                      KCal/Mol        Cal/Mol-Kelvin    Cal/Mol-Kelvin
 Total                   39.795             19.792             75.238
 Electronic               0.000              0.000              1.377
 Translational            0.889              2.981             38.389
 Rotational               0.889              2.981             24.565
 Vibrational             38.017             13.830             10.906
 Vibration     1          0.616              1.909              2.747
 Vibration     2          0.635              1.849              2.192
 Vibration     3          0.644              1.819              2.005
 Vibration     4          0.696              1.663              1.387
 Vibration     5          0.778              1.440              0.912
 Vibration     6          0.947              1.053              0.467

 Normal termination of Gaussian 09 at Wed Jul 20 09:19:38 2016.
