 Gaussian 09, Revision E.01,
 Gaussian 09:  EM64L-G09RevE.01 30-Nov-2015

 ---------------------------------------------
 #p b3lyp/6-311++G(3df,2p) freq symmetry=Loose
 ---------------------------------------------

 ---------
 b3lyp opt
 ---------
 Symbolic Z-matrix:
 Charge =  3 Multiplicity = 2

                         Standard orientation:
 ---------------------------------------------------------------------
 Center     Atomic      Atomic             Coordinates (Angstroms)
 Number     Number       Type             X           Y           Z
 ---------------------------------------------------------------------
      1          6           0       -0.000032   -1.087603    0.361812
      2          6           0       -1.179879   -0.509914   -0.132409
      3          1           0       -2.145692   -0.956052   -0.477273
      4          6           0       -0.729741    0.917243    0.001801
      5          1           0       -1.415046    1.774891    0.174171
      6          6           0        0.729740    0.917243    0.001929
      7          1           0        1.415015    1.774891    0.174418
      8          6           0        1.179903   -0.509914   -0.132203
      9          1           0        2.145775   -0.956052   -0.476899
 ---------------------------------------------------------------------

 SCF Done:  E(UB3LYP) =  -191.114745858     A.U. after   15 cycles

 The electronic state is 2-A.
 Alpha  occ. eigenvalues --  -11.07794 -11.03901 -11.03898 -11.01880 -11.01847
 Alpha  occ. eigenvalues --   -1.69143  -1.49505  -1.47834  -1.30103  -1.28503
 Alpha  occ. eigenvalues --   -1.23830  -1.18794  -1.17549  -1.12996  -1.12680
 Alpha  occ. eigenvalues --   -1.04285
 Alpha virt. eigenvalues --   -0.90931  -0.88500  -0.76157  -0.73045  -0.55970
 Alpha virt. eigenvalues --   -0.52952  -0.52813  -0.49298  -0.48795  -0.47578
 Alpha virt. eigenvalues --   -0.46650  -0.43872  -0.43075  -0.41691  -0.40459

  Beta  occ. eigenvalues --  -11.06404 -11.03972 -11.03969 -11.01494 -11.01463
  Beta  occ. eigenvalues --   -1.68159  -1.49271  -1.45934  -1.29313  -1.28073
  Beta  occ. eigenvalues --   -1.22452  -1.18563  -1.16446  -1.12667  -1.10789
  Beta virt. eigenvalues --   -0.91559  -0.90660  -0.84560  -0.74172  -0.70474
  Beta virt. eigenvalues --   -0.55758  -0.52426  -0.51968  -0.48981  -0.48356
  Beta virt. eigenvalues --   -0.47467  -0.46242  -0.43700  -0.42788  -0.41182

 Mulliken charges and spin densities:
               1          2
     1  C    0.509544   0.683332
     2  C    0.280236  -0.085327
     3  H    0.405739   0.003026
     4  C    0.211386   0.241120
     5  H    0.347868  -0.000486
     6  C    0.211386   0.241120
     7  H    0.347868  -0.000486
     8  C    0.280236  -0.085327
     9  H    0.405739   0.003026
 Sum of Mulliken charges =   3.00000   1.00000

 Dipole moment (field-independent basis, Debye):
    X=              0.0000    Y=              0.0167    Z=             -0.5462  Tot=              0.5465
 Quadrupole moment (field-independent basis, Debye-Ang):
   XX=              5.2044   YY=             -2.4660   ZZ=            -20.8881
   XY=             -0.0001   XZ=              0.0023   YZ=              1.3455

  Exact polarizability:  49.492   0.000  46.136   0.002  -1.009  22.811
 Approx polarizability:  94.361   0.001  92.824   0.005  -7.231  37.413

                      1                      2                      3
                      A                      A                      A
 Frequencies --     48.9864               340.5212               499.4226
 Red. masses --      1.9072                 2.6752                 2.9635
 Frc consts  --      0.0027                 0.1828                 0.4355
 IR Inten    --      6.6888                11.0235                15.1485

                      4                      5                      6
                      A                      A                      A
 Frequencies --    654.3538               774.1095               848.9628
 Red. masses --      6.2951                 2.3946                 2.0324
 Frc consts  --      1.5881                 0.8454                 0.8631
 IR Inten    --      5.8978                31.1807                45.2101

                      7                      8                      9
                      A                      A                      A
 Frequencies --    858.2627               948.8162               979.7639
 Red. masses --      1.8226                 1.3675                 1.4641
 Frc consts  --      0.7910                 0.7254                 0.8281
 IR Inten    --     45.5850                 1.2939                 1.8330

                     10                     11                     12
                      A                      A                      A
 Frequencies --    990.3362              1070.9529              1078.4298
 Red. masses --      1.8639                 1.3354                 5.1901
 Frc consts  --      1.0771                 0.9024                 3.5564
 IR Inten    --      0.6444                10.7289                 4.7970

                     13                     14                     15
                      A                      A                      A
 Frequencies --   1098.1737              1148.2338              1233.9963
 Red. masses --      1.5800                 1.4167                 2.2051
 Frc consts  --      1.1226                 1.1005                 1.9784
 IR Inten    --     22.0835                43.5589                12.2446

                     16                     17                     18
                      A                      A                      A
 Frequencies --   1304.4591              1327.1003              2862.1328
 Red. masses --      2.6733                 2.4500                 1.1064
 Frc consts  --      2.6802                 2.5423                 5.3399
 IR Inten    --    194.1186               207.0740               739.0738

                     19                     20                     21
                      A                      A                      A
 Frequencies --   2870.8312              2926.8315              2943.9415
 Red. masses --      1.1028                 1.1017                 1.1035
 Frc consts  --      5.3548                 5.5603                 5.6349
 IR Inten    --    322.6601               232.0788               273.2066

 - Thermochemistry -
 -------------------
 Temperature   298.150 Kelvin.  Pressure   1.00000 Atm.
 Atom     1 has atomic number  6 and mass  12.00000

 Molecular mass:    64.03130 amu.
 Principal axes and moments of inertia in atomic units:
                           1         2         3
     Eigenvalues --   183.13593 221.28085 386.87103
           X            1.00000   0.00000  -0.00009
           Y            0.00000   0.99947   0.03245
           Z            0.00009  -0.03245   0.99947
 This molecule is an asymmetric top.
 Rotational symmetry number  1.
 Rotational temperatures (Kelvin)      0.47295     0.39142     0.22388
 Rotational constants (GHZ):           9.85465     8.15589     4.66497
 Zero-point vibrational energy     160351.1 (Joules/Mol)
                                   38.32484 (Kcal/Mol)
 Warning -- explicit consideration of   3 degrees of freedom as
           vibrations may cause significant error
 Vibrational temperatures:     70.48   489.93   718.56   941.47  1113.77
          (Kelvin)           1221.47  1234.85  1365.13  1409.66  1424.87
                             1540.86  1551.62  1580.03  1652.05  1775.44
                             1876.82  1909.40  4117.97  4130.48  4211.05
                             4235.67

 Zero-point correction=                           0.061075 (Hartree/Particle)
 Thermal correction to Energy=                    0.065947
 Thermal correction to Enthalpy=                  0.066891
 Thermal correction to Gibbs Free Energy=         0.032519
 Sum of electronic and zero-point Energies=           -191.053671
 Sum of electronic and thermal Energies=              -191.048799
 Sum of electronic and thermal Enthalpies=            -191.047855
 Sum of electronic and thermal Free Energies=         -191.082227

                     E (Thermal)             CV                S
                      KCal/Mol        Cal/Mol-Kelvin    Cal/Mol-Kelvin
 Total                   41.382             16.350             72.342
 Electronic               0.000              0.000              1.377
 Translational            0.889              2.981             38.389
 Rotational               0.889              2.981             24.265
 Vibrational             39.605             10.388              8.311
 Vibration     1          0.595              1.978              4.858
 Vibration     2          0.720              1.595              1.210
 Vibration     3          0.855              1.251              0.660

 Optimization completed.
    -- Stationary point found.
 Normal termination of Gaussian 09 at Wed Jul 20 06:54:44 2016.
