 Gaussian 09, Revision E.01,
 Gaussian 09:  EM64L-G09RevE.01 30-Nov-2015

 ---------------------------------------------
 #p b3lyp/6-311++G(3df,2p) freq symmetry=Loose
 ---------------------------------------------

 ---------
 b3lyp opt
 ---------
 Symbolic Z-matrix:
 Charge =  3 Multiplicity = 2

                         Standard orientation:
 ---------------------------------------------------------------------
 Center     Atomic      Atomic             Coordinates (Angstroms)
 Number     Number       Type             X           Y           Z
 ---------------------------------------------------------------------
      1          6           0       -1.459556   -0.000076    0.418048
      2          6           0       -0.658445   -1.019769   -0.156914
      3          1           0       -0.767531   -2.051368   -0.555709
      4          6           0        0.384822    0.000014   -0.079130
      5          6           0       -0.658445    1.019826   -0.156542
      6          1           0       -0.767531    2.051571   -0.554960
      7          1           0        2.306008   -0.000205    1.124758
      8          6           0        1.843871   -0.000019    0.104488
      9          1           0        2.515570    0.000145   -0.793783
 ---------------------------------------------------------------------

 SCF Done:  E(UB3LYP) =  -191.123406559     A.U. after   14 cycles

 The electronic state is 2-A.
 Alpha  occ. eigenvalues --  -11.02969 -11.02958 -11.02893 -11.00854 -11.00852
 Alpha  occ. eigenvalues --   -1.70294  -1.49421  -1.39888  -1.32436  -1.23840
 Alpha  occ. eigenvalues --   -1.20359  -1.16984  -1.16813  -1.13457  -1.10195
 Alpha  occ. eigenvalues --   -1.01483
 Alpha virt. eigenvalues --   -0.86082  -0.81707  -0.80953  -0.70869  -0.54993
 Alpha virt. eigenvalues --   -0.53017  -0.50663  -0.49196  -0.47250  -0.46110
 Alpha virt. eigenvalues --   -0.45386  -0.45176  -0.42419  -0.41931  -0.40279

  Beta  occ. eigenvalues --  -11.02923 -11.02624 -11.01088 -11.00821 -11.00815
  Beta  occ. eigenvalues --   -1.69378  -1.48879  -1.39584  -1.30468  -1.23652
  Beta  occ. eigenvalues --   -1.18863  -1.16381  -1.16116  -1.13098  -1.09155
  Beta virt. eigenvalues --   -0.86045  -0.84717  -0.81915  -0.77491  -0.68872
  Beta virt. eigenvalues --   -0.54299  -0.52728  -0.50423  -0.48737  -0.46291
  Beta virt. eigenvalues --   -0.45885  -0.45153  -0.44923  -0.41727  -0.41553

 Mulliken charges and spin densities:
               1          2
     1  C    0.469650   0.897273
     2  C    0.302820  -0.014112
     3  H    0.413413   0.003027
     4  C    0.410220   0.124500
     5  C    0.302820  -0.014112
     6  H    0.413413   0.003027
     7  H    0.373137   0.010614
     8  C   -0.060752  -0.011144
     9  H    0.375278   0.000926
 Sum of Mulliken charges =   3.00000   1.00000

 Dipole moment (field-independent basis, Debye):
    X=              3.2345    Y=              0.0001    Z=             -0.4212  Tot=              3.2618
 Quadrupole moment (field-independent basis, Debye-Ang):
   XX=             11.6778   YY=             -5.1116   ZZ=            -18.0999
   XY=             -0.0002   XZ=              1.2827   YZ=              0.0024

  Exact polarizability:  51.749   0.000  37.640  -1.114   0.002  25.277
 Approx polarizability:  88.155   0.001  65.889  -5.966   0.005  39.020

                      1                      2                      3
                      A                      A                      A
 Frequencies --    273.7963               275.3852               315.5822
 Red. masses --      3.8492                 1.0646                 2.9845
 Frc consts  --      0.1700                 0.0476                 0.1751
 IR Inten    --      4.1586                 1.3585                 6.3880

                      4                      5                      6
                      A                      A                      A
 Frequencies --    408.7443               605.7416               754.4734
 Red. masses --      2.2315                 3.7187                 2.5882
 Frc consts  --      0.2197                 0.8039                 0.8680
 IR Inten    --     23.8271                14.7706                 3.9629

                      7                      8                      9
                      A                      A                      A
 Frequencies --    874.1505               955.1477               960.7730
 Red. masses --      2.7786                 1.6481                 1.8958
 Frc consts  --      1.2510                 0.8859                 1.0311
 IR Inten    --     56.1245                27.6092                12.7393

                     10                     11                     12
                      A                      A                      A
 Frequencies --   1006.7856              1060.0418              1082.8724
 Red. masses --      1.8435                 1.5955                 1.1729
 Frc consts  --      1.1010                 1.0563                 0.8104
 IR Inten    --      5.2206                32.3336                 0.6209

                     13                     14                     15
                      A                      A                      A
 Frequencies --   1178.2457              1228.3981              1301.0477
 Red. masses --      1.7958                 3.8492                 3.9552
 Frc consts  --      1.4689                 3.4221                 3.9447
 IR Inten    --     40.5798                48.8581                81.8152

                     16                     17                     18
                      A                      A                      A
 Frequencies --   1326.6808              1351.5203              2787.1484
 Red. masses --      1.7788                 2.0143                 1.0461
 Frc consts  --      1.8446                 2.1677                 4.7880
 IR Inten    --      0.2778               104.2990               502.2389

                     19                     20                     21
                      A                      A                      A
 Frequencies --   2894.6967              2945.6157              2956.3553
 Red. masses --      1.1263                 1.1142                 1.1160
 Frc consts  --      5.5605                 5.6961                 5.7466
 IR Inten    --    286.2759               617.5267                79.7715

 - Thermochemistry -
 -------------------
 Temperature   298.150 Kelvin.  Pressure   1.00000 Atm.
 Atom     1 has atomic number  6 and mass  12.00000

 Molecular mass:    64.03130 amu.
 Principal axes and moments of inertia in atomic units:
                           1         2         3
     Eigenvalues --   138.68210 345.38486 445.55406
           X            0.99987   0.00000   0.01628
           Y            0.00000   1.00000  -0.00018
           Z           -0.01628   0.00018   0.99987
 This molecule is an asymmetric top.
 Rotational symmetry number  1.
 Rotational temperatures (Kelvin)      0.62455     0.25077     0.19440
 Rotational constants (GHZ):          13.01351     5.22530     4.05055
 Zero-point vibrational energy     158763.6 (Joules/Mol)
                                   37.94541 (Kcal/Mol)
 Warning -- explicit consideration of   5 degrees of freedom as
           vibrations may cause significant error
 Vibrational temperatures:    393.93   396.22   454.05   588.09   871.53
          (Kelvin)           1085.52  1257.71  1374.24  1382.34  1448.54
                             1525.16  1558.01  1695.23  1767.39  1871.92
                             1908.80  1944.53  4010.08  4164.82  4238.08
                             4253.53

 Zero-point correction=                           0.060470 (Hartree/Particle)
 Thermal correction to Energy=                    0.065461
 Thermal correction to Enthalpy=                  0.066405
 Thermal correction to Gibbs Free Energy=         0.032582
 Sum of electronic and zero-point Energies=           -191.062937
 Sum of electronic and thermal Energies=              -191.057946
 Sum of electronic and thermal Enthalpies=            -191.057001
 Sum of electronic and thermal Free Energies=         -191.090825

                     E (Thermal)             CV                S
                      KCal/Mol        Cal/Mol-Kelvin    Cal/Mol-Kelvin
 Total                   41.077             17.429             71.187
 Electronic               0.000              0.000              1.377
 Translational            0.889              2.981             38.389
 Rotational               0.889              2.981             24.571
 Vibrational             39.300             11.468              6.849
 Vibration     1          0.676              1.722              1.572
 Vibration     2          0.677              1.719              1.562
 Vibration     3          0.703              1.644              1.333
 Vibration     4          0.773              1.451              0.931
 Vibration     5          0.964              1.020              0.440

 Optimization completed.
    -- Stationary point found.
 Normal termination of Gaussian 09 at Wed Jul 20 04:35:15 2016.
