 Gaussian 09, Revision E.01,
 Gaussian 09:  EM64L-G09RevE.01 30-Nov-2015

 ---------------------------------------------
 #p b3lyp/6-311++G(3df,2p) freq symmetry=Loose
 ---------------------------------------------

 ---------
 b3lyp opt
 ---------
 Symbolic Z-matrix:
 Charge =  0 Multiplicity = 3

                         Standard orientation:
 ---------------------------------------------------------------------
 Center     Atomic      Atomic             Coordinates (Angstroms)
 Number     Number       Type             X           Y           Z
 ---------------------------------------------------------------------
      1          6           0        0.019829    0.441943   -0.000000
      2          6           0        0.019829   -0.667664    0.884523
      3          6           0        0.019829   -0.667664   -0.884523
      4          6           0        0.321649    1.878676   -0.000000
      5          1           0       -0.598833    2.469909   -0.000000
      6          1           0        0.888650    2.153132    0.889654
      7          1           0        0.888650    2.153132   -0.889654
      8          6           0       -0.474444   -1.660705    0.000000
      9          1           0       -0.618617   -2.723686    0.000000
 ---------------------------------------------------------------------

 SCF Done:  E(UB3LYP) =  -192.750754168     A.U. after   14 cycles

 The electronic state is 3-A".
 Alpha  occ. eigenvalues --  -10.23383 -10.22969 -10.22968 -10.22293 -10.19459
 Alpha  occ. eigenvalues --   -0.95659  -0.77817  -0.66692  -0.58339  -0.52803
 Alpha  occ. eigenvalues --   -0.46493  -0.45749  -0.42962  -0.40816  -0.38805
 Alpha  occ. eigenvalues --   -0.30816  -0.21987  -0.20275
 Alpha virt. eigenvalues --   -0.04294  -0.00761   0.00658   0.01174   0.03039
 Alpha virt. eigenvalues --    0.03613   0.05150   0.05220   0.06271   0.07855
 Alpha virt. eigenvalues --    0.08406   0.08735   0.10496   0.10833   0.11927

  Beta  occ. eigenvalues --  -10.22420 -10.22307 -10.22304 -10.21267 -10.19509
  Beta  occ. eigenvalues --   -0.93637  -0.76904  -0.64576  -0.55933  -0.51616
  Beta  occ. eigenvalues --   -0.44976  -0.44421  -0.42197  -0.37699  -0.36166
  Beta  occ. eigenvalues --   -0.27729
  Beta virt. eigenvalues --   -0.10177  -0.08687  -0.03589  -0.00630   0.00907
  Beta virt. eigenvalues --    0.02811   0.03740   0.04173   0.05306   0.05834
  Beta virt. eigenvalues --    0.06691   0.08420   0.08647   0.09653   0.10954

 Mulliken charges and spin densities:
               1          2
     1  C    0.406728   0.554622
     2  C   -0.249951   0.375303
     3  C   -0.249951   0.375303
     4  C   -0.443116  -0.058447
     5  H    0.157147   0.031613
     6  H    0.159126   0.015583
     7  H    0.159126   0.015583
     8  C   -0.173062   0.693005
     9  H    0.233954  -0.002563
 Sum of Mulliken charges =  -0.00000   2.00000

 Dipole moment (field-independent basis, Debye):
    X=             -0.4633    Y=              1.0747    Z=              0.0000  Tot=              1.1703
 Quadrupole moment (field-independent basis, Debye-Ang):
   XX=            -30.7429   YY=            -23.7509   ZZ=            -34.3564
   XY=              1.7764   XZ=             -0.0000   YZ=             -0.0000

  Exact polarizability:  41.638   6.655  73.027   0.000   0.000  62.763
 Approx polarizability:  61.042  10.262 105.152  -0.000  -0.000 125.288

                      1                      2                      3
                     A"                     A'                     A"
 Frequencies --     66.1314               225.2351               337.2795
 Red. masses --      1.1548                 3.3768                 2.9499
 Frc consts  --      0.0030                 0.1009                 0.1977
 IR Inten    --      0.0001                 7.3411                 3.6947

                      4                      5                      6
                     A'                     A'                     A'
 Frequencies --    579.2508               623.7672               676.4073
 Red. masses --      1.5617                 3.3955                 4.6443
 Frc consts  --      0.3087                 0.7784                 1.2519
 IR Inten    --     29.9483                18.7111                 1.7582

                      7                      8                      9
                     A"                     A'                     A"
 Frequencies --    842.5973               898.9403               995.2090
 Red. masses --      2.5420                 5.2833                 2.9308
 Frc consts  --      1.0633                 2.5155                 1.7103
 IR Inten    --     44.9688                 5.2073                10.1262

                     10                     11                     12
                     A'                     A"                     A"
 Frequencies --   1025.5106              1098.7140              1147.6166
 Red. masses --      1.4530                 1.8019                 2.0374
 Frc consts  --      0.9003                 1.2816                 1.5810
 IR Inten    --      0.2645                 0.2748                 4.8546

                     13                     14                     15
                     A'                     A'                     A'
 Frequencies --   1246.8225              1405.6975              1465.9684
 Red. masses --      7.1411                 1.2020                 1.0969
 Frc consts  --      6.5407                 1.3994                 1.3889
 IR Inten    --      0.9542                 0.0721                13.5445

                     16                     17                     18
                     A"                     A'                     A'
 Frequencies --   1479.0346              1519.2958              3012.0196
 Red. masses --      1.0396                 7.2645                 1.0425
 Frc consts  --      1.3399                 9.8796                 5.5723
 IR Inten    --      9.9248                11.7530                12.8043

                     19                     20                     21
                     A'                     A"                     A'
 Frequencies --   3066.4883              3104.4713              3294.9897
 Red. masses --      1.0892                 1.1026                 1.1003
 Frc consts  --      6.0344                 6.2613                 7.0380
 IR Inten    --      8.0283                 5.1966                 4.6000

 - Thermochemistry -
 -------------------
 Temperature   298.150 Kelvin.  Pressure   1.00000 Atm.
 Atom     1 has atomic number  6 and mass  12.00000

 Molecular mass:    64.03130 amu.
 Principal axes and moments of inertia in atomic units:
                           1         2         3
     Eigenvalues --    81.39064 419.59408 483.70658
           X            0.18538   0.00000   0.98267
           Y            0.98267   0.00000  -0.18538
           Z           -0.00000   1.00000   0.00000
 This molecule is an asymmetric top.
 Rotational symmetry number  1.
 Rotational temperatures (Kelvin)      1.06417     0.20642     0.17906
 Rotational constants (GHZ):          22.17382     4.30116     3.73107
 Zero-point vibrational energy     168143.8 (Joules/Mol)
                                   40.18733 (Kcal/Mol)
 Warning -- explicit consideration of   4 degrees of freedom as
           vibrations may cause significant error
 Vibrational temperatures:     95.15   324.06   485.27   833.41   897.46
          (Kelvin)            973.20  1212.31  1293.37  1431.88  1475.48
                             1580.80  1651.16  1793.90  2022.48  2109.20
                             2128.00  2185.93  4333.62  4411.99  4466.64
                             4740.75

 Zero-point correction=                           0.064043 (Hartree/Particle)
 Thermal correction to Energy=                    0.069291
 Thermal correction to Enthalpy=                  0.070235
 Thermal correction to Gibbs Free Energy=         0.034967
 Sum of electronic and zero-point Energies=           -192.686712
 Sum of electronic and thermal Energies=              -192.681464
 Sum of electronic and thermal Enthalpies=            -192.680519
 Sum of electronic and thermal Free Energies=         -192.715787

                     E (Thermal)             CV                S
                      KCal/Mol        Cal/Mol-Kelvin    Cal/Mol-Kelvin
 Total                   43.481             17.124             74.227
 Electronic               0.000              0.000              2.183
 Translational            0.889              2.981             38.389
 Rotational               0.889              2.981             24.317
 Vibrational             41.703             11.163              9.338
 Vibration     1          0.598              1.970              4.265
 Vibration     2          0.650              1.803              1.917
 Vibration     3          0.718              1.601              1.225
 Vibration     4          0.936              1.076              0.487

 Optimization completed.
    -- Stationary point found.
 Normal termination of Gaussian 09 at Wed Jul 20 07:21:47 2016.
