 Gaussian 09, Revision E.01,
 Gaussian 09:  EM64L-G09RevE.01 30-Nov-2015

 ---------------------------------------------
 #p b3lyp/6-311++G(3df,2p) freq symmetry=Loose
 ---------------------------------------------

 ---------
 b3lyp opt
 ---------
 Symbolic Z-matrix:
 Charge =  0 Multiplicity = 1

                         Standard orientation:
 ---------------------------------------------------------------------
 Center     Atomic      Atomic             Coordinates (Angstroms)
 Number     Number       Type             X           Y           Z
 ---------------------------------------------------------------------
      1          6           0       -1.177389    0.120223   -0.038176
      2          6           0        1.251153   -0.214506    0.323610
      3          1           0        1.208382   -0.813206    1.236291
      4          6           0        2.303948   -0.444328   -0.390319
      5          6           0        0.128515    0.764980    0.017445
      6          1           0        0.124133    1.537180    0.790495
      7          1           0        0.335199    1.268344   -0.927928
      8          6           0       -2.250469   -0.411614   -0.076458
      9          1           0       -3.202264   -0.880846   -0.115477
 ---------------------------------------------------------------------

 SCF Done:  E(RB3LYP) =  -192.784809263     A.U. after   13 cycles

 The electronic state is 1-A.
 Alpha  occ. eigenvalues --  -10.24041 -10.23370 -10.19365 -10.19287 -10.18161
 Alpha  occ. eigenvalues --   -0.84638  -0.77539  -0.71746  -0.55414  -0.54631
 Alpha  occ. eigenvalues --   -0.49384  -0.47867  -0.43916  -0.31153  -0.30316
 Alpha  occ. eigenvalues --   -0.29298  -0.29042
 Alpha virt. eigenvalues --   -0.11195  -0.01217  -0.00232   0.00659   0.01120
 Alpha virt. eigenvalues --    0.01486   0.02404   0.03592   0.04955   0.06898
 Alpha virt. eigenvalues --    0.06978   0.07559   0.07938   0.09008   0.10407

 Mulliken charges:
               1
     1  C   -0.407029
     2  C    0.256153
     3  H    0.168508
     4  C   -0.659467
     5  C   -0.427930
     6  H    0.179989
     7  H    0.180075
     8  C    0.394883
     9  H    0.314817
 Sum of Mulliken charges =  -0.00000

 Dipole moment (field-independent basis, Debye):
    X=             -2.0488    Y=              0.8671    Z=              1.3454  Tot=              2.5999
 Quadrupole moment (field-independent basis, Debye-Ang):
   XX=            -35.4828   YY=            -29.1845   ZZ=            -30.1489
   XY=              3.1415   XZ=              3.2117   YZ=             -1.9029

  Exact polarizability:  80.740   2.916  48.477  -3.367   0.193  45.733
 Approx polarizability: 116.661   9.477  72.342  -8.025   0.027  69.536

                      1                      2                      3
                      A                      A                      A
 Frequencies --    103.1814               150.0469               209.2995
 Red. masses --      4.5912                 4.8592                 2.9720
 Frc consts  --      0.0288                 0.0645                 0.0767
 IR Inten    --      9.5901                15.1435                 8.4110

                      4                      5                      6
                      A                      A                      A
 Frequencies --    338.7025               487.8673               664.7201
 Red. masses --      2.8794                 3.2076                 1.7353
 Frc consts  --      0.1946                 0.4498                 0.4518
 IR Inten    --     10.0199                12.2952                24.0318

                      7                      8                      9
                      A                      A                      A
 Frequencies --    680.0625               695.1949               829.8295
 Red. masses --      1.2561                 1.2802                 1.6109
 Frc consts  --      0.3423                 0.3645                 0.6536
 IR Inten    --     45.0835                41.3026                12.3897

                     10                     11                     12
                      A                      A                      A
 Frequencies --    912.5739               984.5150              1054.8626
 Red. masses --      3.0134                 3.5641                 1.4912
 Frc consts  --      1.4786                 2.0354                 0.9776
 IR Inten    --      7.2017                11.0312                 1.2801

                     13                     14                     15
                      A                      A                      A
 Frequencies --   1241.1265              1327.0088              1469.2129
 Red. masses --      1.0931                 1.3208                 1.0790
 Frc consts  --      0.9920                 1.3703                 1.3722
 IR Inten    --      7.6030                24.7637                 6.3858

                     16                     17                     18
                      A                      A                      A
 Frequencies --   1747.7235              2222.6690              3030.2761
 Red. masses --      8.8070                 5.9087                 1.0621
 Frc consts  --     15.8498                17.1984                 5.7459
 IR Inten    --     88.9714                 0.7253                 5.0761

                     19                     20                     21
                      A                      A                      A
 Frequencies --   3069.0312              3088.2179              3462.2997
 Red. masses --      1.0975                 1.0851                 1.1627
 Frc consts  --      6.0906                 6.0973                 8.2121
 IR Inten    --      3.8298                17.7461                68.8752

 - Thermochemistry -
 -------------------
 Temperature   298.150 Kelvin.  Pressure   1.00000 Atm.
 Atom     1 has atomic number  6 and mass  12.00000

 Molecular mass:    64.03130 amu.
 Principal axes and moments of inertia in atomic units:
                           1         2         3
     Eigenvalues --    84.78228 636.29897 677.24115
           X            0.99983   0.01631   0.00867
           Y           -0.01564   0.99731  -0.07155
           Z           -0.00981   0.07140   0.99740
 This molecule is an asymmetric top.
 Rotational symmetry number  1.
 Rotational temperatures (Kelvin)      1.02160     0.13612     0.12789
 Rotational constants (GHZ):          21.28677     2.83631     2.66484
 Zero-point vibrational energy     166092.0 (Joules/Mol)
                                   39.69695 (Kcal/Mol)
 Warning -- explicit consideration of   5 degrees of freedom as
           vibrations may cause significant error
 Vibrational temperatures:    148.45   215.88   301.13   487.32   701.93
          (Kelvin)            956.38   978.46  1000.23  1193.94  1312.99
                             1416.50  1517.71  1785.70  1909.27  2113.87
                             2514.58  3197.92  4359.89  4415.65  4443.25
                             4981.47

 Zero-point correction=                           0.063261 (Hartree/Particle)
 Thermal correction to Energy=                    0.069205
 Thermal correction to Enthalpy=                  0.070149
 Thermal correction to Gibbs Free Energy=         0.034476
 Sum of electronic and zero-point Energies=           -192.721548
 Sum of electronic and thermal Energies=              -192.715605
 Sum of electronic and thermal Enthalpies=            -192.714661
 Sum of electronic and thermal Free Energies=         -192.750333

                     E (Thermal)             CV                S
                      KCal/Mol        Cal/Mol-Kelvin    Cal/Mol-Kelvin
 Total                   43.427             19.353             75.079
 Electronic               0.000              0.000              0.000
 Translational            0.889              2.981             38.389
 Rotational               0.889              2.981             25.105
 Vibrational             41.649             13.391             11.584
 Vibration     1          0.605              1.947              3.393
 Vibration     2          0.618              1.903              2.672
 Vibration     3          0.642              1.827              2.050
 Vibration     4          0.719              1.598              1.218
 Vibration     5          0.844              1.277              0.689

 Optimization completed.
    -- Stationary point found.
 Normal termination of Gaussian 09 at Wed Jun 22 01:51:05 2016.
