 Gaussian 09, Revision E.01,
 Gaussian 09:  EM64L-G09RevE.01 30-Nov-2015

 ---------------------------------------------
 #p b3lyp/6-311++G(3df,2p) freq symmetry=Loose
 ---------------------------------------------

 ---------
 b3lyp opt
 ---------
 Symbolic Z-matrix:
 Charge =  0 Multiplicity = 3

                         Standard orientation:
 ---------------------------------------------------------------------
 Center     Atomic      Atomic             Coordinates (Angstroms)
 Number     Number       Type             X           Y           Z
 ---------------------------------------------------------------------
      1          6           0       -0.524569   -0.157409   -0.000113
      2          6           0       -1.874357   -0.409829    0.000196
      3          6           0       -1.437728    0.873818   -0.000480
      4          6           0        1.885153    0.463216   -0.000109
      5          1           0        2.934566    0.211898   -0.002920
      6          1           0        1.586621    1.499512    0.003595
      7          6           0        0.868641   -0.624537    0.000219
      8          1           0        0.988199   -1.291832   -0.865887
      9          1           0        0.987773   -1.291143    0.866935
 ---------------------------------------------------------------------

 SCF Done:  E(UB3LYP) =  -192.720234311     A.U. after   15 cycles

 The electronic state is 3-A.
 Alpha  occ. eigenvalues --  -10.27179 -10.22814 -10.22010 -10.21893 -10.20739
 Alpha  occ. eigenvalues --   -0.95422  -0.82276  -0.67643  -0.55748  -0.51411
 Alpha  occ. eigenvalues --   -0.48697  -0.45543  -0.43282  -0.41128  -0.38333
 Alpha  occ. eigenvalues --   -0.28891  -0.25766  -0.24035
 Alpha virt. eigenvalues --   -0.04708  -0.01681  -0.01396   0.00751   0.02052
 Alpha virt. eigenvalues --    0.02667   0.05251   0.05461   0.06077   0.07453
 Alpha virt. eigenvalues --    0.08418   0.08722   0.09707   0.10671   0.11362

  Beta  occ. eigenvalues --  -10.26621 -10.22925 -10.21260 -10.21144 -10.19283
  Beta  occ. eigenvalues --   -0.94487  -0.81032  -0.64662  -0.54525  -0.48893
  Beta  occ. eigenvalues --   -0.47594  -0.43525  -0.41701  -0.38980  -0.37463
  Beta  occ. eigenvalues --   -0.26145
  Beta virt. eigenvalues --   -0.14098  -0.09017  -0.03761  -0.01243  -0.00326
  Beta virt. eigenvalues --    0.00944   0.02310   0.02784   0.05500   0.05600
  Beta virt. eigenvalues --    0.06161   0.07501   0.09018   0.09676   0.09798

 Mulliken charges and spin densities:
               1          2
     1  C    0.569219   0.320076
     2  C   -0.340532   0.341263
     3  C   -0.281695   0.348612
     4  C   -0.624231   1.117522
     5  H    0.194708  -0.030759
     6  H    0.183830  -0.030347
     7  C   -0.017697  -0.167405
     8  H    0.158109   0.050309
     9  H    0.158289   0.050728
 Sum of Mulliken charges =  -0.00000   2.00000

 Dipole moment (field-independent basis, Debye):
    X=              3.1954    Y=             -1.2187    Z=              0.0013  Tot=              3.4199
 Quadrupole moment (field-independent basis, Debye-Ang):
   XX=            -33.5055   YY=            -32.3117   ZZ=            -30.1934
   XY=             -1.2165   XZ=             -0.0016   YZ=              0.0069

  Exact polarizability:  68.975   4.553  67.683  -0.006  -0.012  41.472
 Approx polarizability:  92.898   4.792 103.288  -0.011  -0.020  60.787

                      1                      2                      3
                      A                      A                      A
 Frequencies --     61.8201               127.4564               188.8121
 Red. masses --      3.8099                 1.0512                 4.1464
 Frc consts  --      0.0086                 0.0101                 0.0871
 IR Inten    --      3.2926                 2.1811                18.8761

                      4                      5                      6
                      A                      A                      A
 Frequencies --    361.2324               484.2996               500.7980
 Red. masses --      2.5029                 1.3065                 4.5629
 Frc consts  --      0.1924                 0.1805                 0.6742
 IR Inten    --      0.4715                55.5552                 9.3956

                      7                      8                      9
                      A                      A                      A
 Frequencies --    674.3247               738.2534               856.7368
 Red. masses --     11.3981                 3.1642                 1.9922
 Frc consts  --      3.0537                 1.0161                 0.8615
 IR Inten    --    402.2163                 3.6995                 0.5646

                     10                     11                     12
                      A                      A                      A
 Frequencies --   1001.9727              1084.0548              1170.8055
 Red. masses --      1.5315                 2.8824                 1.0910
 Frc consts  --      0.9059                 1.9958                 0.8812
 IR Inten    --      5.8704                 1.1109                 0.0722

                     13                     14                     15
                      A                      A                      A
 Frequencies --   1293.7754              1369.4104              1418.9558
 Red. masses --      2.1111                 3.4801                 1.0675
 Frc consts  --      2.0820                 3.8452                 1.2664
 IR Inten    --     43.1883                28.9185                 9.0394

                     16                     17                     18
                      A                      A                      A
 Frequencies --   1453.2096              1708.5873              2958.5017
 Red. masses --      1.1598                11.7096                 1.0586
 Frc consts  --      1.4430                20.1403                 5.4589
 IR Inten    --      1.8630                45.8214                 6.2934

                     19                     20                     21
                      A                      A                      A
 Frequencies --   2965.6464              3156.8845              3270.1439
 Red. masses --      1.0953                 1.0499                 1.1208
 Frc consts  --      5.6757                 6.1646                 7.0619
 IR Inten    --      0.9772                 7.6615                 1.2958

 - Thermochemistry -
 -------------------
 Temperature   298.150 Kelvin.  Pressure   1.00000 Atm.
 Atom     1 has atomic number  6 and mass  12.00000

 Molecular mass:    64.03130 amu.
 Principal axes and moments of inertia in atomic units:
                           1         2         3
     Eigenvalues --    92.50687 485.71619 567.41624
           X            0.99999   0.00326  -0.00001
           Y           -0.00326   0.99999   0.00017
           Z            0.00002  -0.00017   1.00000
 This molecule is an asymmetric top.
 Rotational symmetry number  1.
 Rotational temperatures (Kelvin)      0.93630     0.17832     0.15265
 Rotational constants (GHZ):          19.50927     3.71563     3.18063
 Zero-point vibrational energy     160572.8 (Joules/Mol)
                                   38.37783 (Kcal/Mol)
 Warning -- explicit consideration of   6 degrees of freedom as
           vibrations may cause significant error
 Vibrational temperatures:     88.95   183.38   271.66   519.73   696.80
          (Kelvin)            720.54   970.20  1062.18  1232.65  1441.61
                             1559.71  1684.53  1861.45  1970.27  2041.56
                             2090.84  2458.27  4256.62  4266.90  4542.05
                             4705.00

 Zero-point correction=                           0.061159 (Hartree/Particle)
 Thermal correction to Energy=                    0.067274
 Thermal correction to Enthalpy=                  0.068218
 Thermal correction to Gibbs Free Energy=         0.030934
 Sum of electronic and zero-point Energies=           -192.659075
 Sum of electronic and thermal Energies=              -192.652960
 Sum of electronic and thermal Enthalpies=            -192.652016
 Sum of electronic and thermal Free Energies=         -192.689300

                     E (Thermal)             CV                S
                      KCal/Mol        Cal/Mol-Kelvin    Cal/Mol-Kelvin
 Total                   42.215             19.385             78.471
 Electronic               0.000              0.000              2.183
 Translational            0.889              2.981             38.389
 Rotational               0.889              2.981             24.748
 Vibrational             40.438             13.423             13.151
 Vibration     1          0.597              1.973              4.398
 Vibration     2          0.611              1.926              2.984
 Vibration     3          0.633              1.855              2.239
 Vibration     4          0.735              1.552              1.117
 Vibration     5          0.840              1.285              0.699
 Vibration     6          0.856              1.248              0.656

 Normal termination of Gaussian 09 at Wed Jun 22 03:51:52 2016.
