 Gaussian 09, Revision E.01,
 Gaussian 09:  EM64L-G09RevE.01 30-Nov-2015

 ---------------------------------------------
 #p b3lyp/6-311++G(3df,2p) freq symmetry=Loose
 ---------------------------------------------

 ---------
 b3lyp opt
 ---------
 Symbolic Z-matrix:
 Charge =  1 Multiplicity = 4

                         Standard orientation:
 ---------------------------------------------------------------------
 Center     Atomic      Atomic             Coordinates (Angstroms)
 Number     Number       Type             X           Y           Z
 ---------------------------------------------------------------------
      1          6           0        1.255673   -0.797018    0.000122
      2          1           0        1.495714   -1.360754    0.908357
      3          6           0        0.138315    0.170493    0.000236
      4          6           0        1.399185    0.660637   -0.000244
      5          1           0        2.061858    1.512998   -0.001488
      6          1           0        1.495597   -1.361484   -0.907499
      7          6           0       -1.223408    0.457732    0.000342
      8          1           0       -1.561935    1.494466    0.000977
      9          6           0       -2.151637   -0.539381   -0.000515
 ---------------------------------------------------------------------

 SCF Done:  E(UB3LYP) =  -192.375450437     A.U. after   17 cycles

 The electronic state is 4-A.
 Alpha  occ. eigenvalues --  -10.50230 -10.47135 -10.46329 -10.45560 -10.41929
 Alpha  occ. eigenvalues --   -1.15020  -1.04157  -0.86828  -0.83169  -0.77306
 Alpha  occ. eigenvalues --   -0.73011  -0.69447  -0.63534  -0.58334  -0.57142
 Alpha  occ. eigenvalues --   -0.56049  -0.49263  -0.46510
 Alpha virt. eigenvalues --   -0.31438  -0.18176  -0.15034  -0.13624  -0.12450
 Alpha virt. eigenvalues --   -0.10946  -0.10435  -0.08864  -0.07622  -0.06992
 Alpha virt. eigenvalues --   -0.06615  -0.04529  -0.04501  -0.03841  -0.03241

  Beta  occ. eigenvalues --  -10.46405 -10.46309 -10.46015 -10.45401 -10.41956
  Beta  occ. eigenvalues --   -1.13570  -1.00843  -0.83750  -0.80520  -0.75572
  Beta  occ. eigenvalues --   -0.70922  -0.67215  -0.58507  -0.55808  -0.54096
  Beta virt. eigenvalues --   -0.39196  -0.39043  -0.26637  -0.25247  -0.15617
  Beta virt. eigenvalues --   -0.14740  -0.13322  -0.12076  -0.10745  -0.10147
  Beta virt. eigenvalues --   -0.08211  -0.06824  -0.06609  -0.06432  -0.03652

 Mulliken charges and spin densities:
               1          2
     1  C   -0.378985  -0.072926
     2  H    0.219933   0.077237
     3  C    0.299176   0.136605
     4  C    0.255434   0.424243
     5  H    0.324187  -0.010494
     6  H    0.219887   0.077095
     7  C   -0.132946  -0.059738
     8  H    0.220846   0.056488
     9  C   -0.027533   2.371490
 Sum of Mulliken charges =   1.00000   3.00000

 Dipole moment (field-independent basis, Debye):
    X=              0.6022    Y=              0.5754    Z=             -0.0006  Tot=              0.8329
 Quadrupole moment (field-independent basis, Debye-Ang):
   XX=            -12.0760   YY=            -20.4687   ZZ=            -26.2814
   XY=              1.0070   XZ=             -0.0012   YZ=             -0.0004

  Exact polarizability:  87.670   2.534  48.545   0.004  -0.000  32.599
 Approx polarizability: 145.944  12.538  76.461   0.015   0.003  47.628

                      1                      2                      3
                      A                      A                      A
 Frequencies --    157.5510               221.7862               293.5015
 Red. masses --      2.8526                 4.5534                 2.0319
 Frc consts  --      0.0417                 0.1320                 0.1031
 IR Inten    --      1.5977                 0.7657                 4.2593

                      4                      5                      6
                      A                      A                      A
 Frequencies --    554.9115               590.4191               725.1507
 Red. masses --      5.1839                 1.2072                 3.3713
 Frc consts  --      0.9405                 0.2479                 1.0445
 IR Inten    --      2.2723                12.3654                 7.6693

                      7                      8                      9
                      A                      A                      A
 Frequencies --    824.4941               881.1097               946.4152
 Red. masses --      1.4694                 1.3377                 1.4221
 Frc consts  --      0.5885                 0.6119                 0.7505
 IR Inten    --     19.4257                 1.6031                55.2633

                     10                     11                     12
                      A                      A                      A
 Frequencies --    969.9589              1061.6340              1130.3392
 Red. masses --      1.5236                 1.4147                 4.2272
 Frc consts  --      0.8446                 0.9394                 3.1822
 IR Inten    --      4.0252                20.0934                 7.2813

                     13                     14                     15
                      A                      A                      A
 Frequencies --   1184.8353              1270.2417              1344.7674
 Red. masses --      4.9557                 1.4673                 1.8266
 Frc consts  --      4.0989                 1.3949                 1.9462
 IR Inten    --     76.5889                20.5311                64.4948

                     16                     17                     18
                      A                      A                      A
 Frequencies --   1390.5192              1676.9017              2979.5438
 Red. masses --      1.6066                 8.8069                 1.0491
 Frc consts  --      1.8303                14.5911                 5.4873
 IR Inten    --     10.1303                 1.4173               100.0866

                     19                     20                     21
                      A                      A                      A
 Frequencies --   3030.8595              3083.9641              3241.0051
 Red. masses --      1.1053                 1.0868                 1.1092
 Frc consts  --      5.9820                 6.0900                 6.8650
 IR Inten    --     22.4834                17.0017                62.3519

 - Thermochemistry -
 -------------------
 Temperature   298.150 Kelvin.  Pressure   1.00000 Atm.
 Atom     1 has atomic number  6 and mass  12.00000

 Molecular mass:    64.03130 amu.
 Principal axes and moments of inertia in atomic units:
                           1         2         3
     Eigenvalues --   103.78041 460.63139 552.54460
           X            0.99947  -0.03249  -0.00002
           Y            0.03249   0.99947  -0.00005
           Z            0.00003   0.00005   1.00000
 This molecule is an asymmetric top.
 Rotational symmetry number  1.
 Rotational temperatures (Kelvin)      0.83459     0.18803     0.15675
 Rotational constants (GHZ):          17.39000     3.91797     3.26624
 Zero-point vibrational energy     164844.9 (Joules/Mol)
                                   39.39887 (Kcal/Mol)
 Warning -- explicit consideration of   5 degrees of freedom as
           vibrations may cause significant error
 Vibrational temperatures:    226.68   319.10   422.28   798.39   849.48
          (Kelvin)           1043.33  1186.26  1267.72  1361.68  1395.55
                             1527.45  1626.30  1704.71  1827.59  1934.82
                             2000.64  2412.68  4286.89  4360.73  4437.13
                             4663.08

 Zero-point correction=                           0.062786 (Hartree/Particle)
 Thermal correction to Energy=                    0.067977
 Thermal correction to Enthalpy=                  0.068921
 Thermal correction to Gibbs Free Energy=         0.033765
 Sum of electronic and zero-point Energies=           -192.312664
 Sum of electronic and thermal Energies=              -192.307474
 Sum of electronic and thermal Enthalpies=            -192.306530
 Sum of electronic and thermal Free Energies=         -192.341686

                     E (Thermal)             CV                S
                      KCal/Mol        Cal/Mol-Kelvin    Cal/Mol-Kelvin
 Total                   42.656             17.526             73.993
 Electronic               0.000              0.000              2.755
 Translational            0.889              2.981             38.389
 Rotational               0.889              2.981             24.783
 Vibrational             40.879             11.565              8.066
 Vibration     1          0.621              1.894              2.579
 Vibration     2          0.648              1.808              1.944
 Vibration     3          0.688              1.686              1.454
 Vibration     4          0.910              1.129              0.534
 Vibration     5          0.948              1.052              0.466

 Normal termination of Gaussian 09 at Mon Jun 20 06:09:56 2016.
