 Gaussian 09, Revision E.01,
 Gaussian 09:  EM64L-G09RevE.01 30-Nov-2015

 ---------------------------------------------
 #p b3lyp/6-311++G(3df,2p) freq symmetry=Loose
 ---------------------------------------------

 ---------
 b3lyp opt
 ---------
 Symbolic Z-matrix:
 Charge =  3 Multiplicity = 2

                         Standard orientation:
 ---------------------------------------------------------------------
 Center     Atomic      Atomic             Coordinates (Angstroms)
 Number     Number       Type             X           Y           Z
 ---------------------------------------------------------------------
      1          6           0        2.297722    0.475317    0.000034
      2          6           0       -1.626513   -0.559655    0.000003
      3          1           0       -1.795653    1.819222   -0.000286
      4          1           0       -2.141754   -1.548001    0.000100
      5          6           0       -0.268588   -0.009610   -0.000009
      6          6           0       -1.397513    0.765839   -0.000146
      7          6           0        1.149388   -0.383643    0.000091
      8          1           0        1.505250   -1.000462   -0.929185
      9          1           0        1.505177   -1.000242    0.929540
 ---------------------------------------------------------------------

 SCF Done:  E(UB3LYP) =  -191.055123360     A.U. after   21 cycles

 The electronic state is 2-A.
 Alpha  occ. eigenvalues --  -11.13494 -11.00182 -10.97065 -10.96787 -10.94541
 Alpha  occ. eigenvalues --   -1.65747  -1.56542  -1.36225  -1.27232  -1.21573
 Alpha  occ. eigenvalues --   -1.19635  -1.17777  -1.10251  -1.09048  -1.07136
 Alpha  occ. eigenvalues --   -1.03520
 Alpha virt. eigenvalues --   -0.85737  -0.84021  -0.74373  -0.68626  -0.59007
 Alpha virt. eigenvalues --   -0.54392  -0.50602  -0.50147  -0.49299  -0.47832
 Alpha virt. eigenvalues --   -0.44682  -0.44227  -0.42547  -0.41873  -0.38028

  Beta  occ. eigenvalues --  -11.12699 -10.99752 -10.96692 -10.96656 -10.94486
  Beta  occ. eigenvalues --   -1.64388  -1.55390  -1.35113  -1.25522  -1.19834
  Beta  occ. eigenvalues --   -1.18516  -1.17498  -1.09517  -1.06762  -1.02922
  Beta virt. eigenvalues --   -0.94187  -0.84610  -0.82993  -0.73900  -0.68419
  Beta virt. eigenvalues --   -0.58058  -0.53158  -0.50368  -0.49542  -0.48410
  Beta virt. eigenvalues --   -0.47083  -0.44421  -0.43822  -0.42455  -0.41345

 Mulliken charges and spin densities:
               1          2
     1  C    0.509004   0.413310
     2  C    0.156085   0.187974
     3  H    0.420536   0.074999
     4  H    0.420029   0.018843
     5  C    0.406185   0.283684
     6  C    0.492761   0.009752
     7  C   -0.164825  -0.019988
     8  H    0.380112   0.015713
     9  H    0.380112   0.015713
 Sum of Mulliken charges =   3.00000   1.00000

 Dipole moment (field-independent basis, Debye):
    X=              2.3676    Y=             -0.8486    Z=              0.0002  Tot=              2.5151
 Quadrupole moment (field-independent basis, Debye-Ang):
   XX=             24.1855   YY=             -7.5788   ZZ=            -19.7264
   XY=             -1.0542   XZ=              0.0018   YZ=             -0.0015

  Exact polarizability: 123.299   4.079  39.076   0.003  -0.001  26.415
 Approx polarizability: 295.048  32.662  72.615   0.006  -0.002  41.965

                      1                      2                      3
                      A                      A                      A
 Frequencies --     94.5496               223.1151               347.1048
 Red. masses --      2.6280                 5.3364                 3.5641
 Frc consts  --      0.0138                 0.1565                 0.2530
 IR Inten    --      0.3124                 1.9945                26.4391

                      4                      5                      6
                      A                      A                      A
 Frequencies --    347.8693               537.5456               556.7789
 Red. masses --      2.2661                 1.9198                 5.0557
 Frc consts  --      0.1616                 0.3268                 0.9234
 IR Inten    --     39.0064                 0.6463               421.7200

                      7                      8                      9
                      A                      A                      A
 Frequencies --    653.4549               732.1412               761.3322
 Red. masses --      1.9628                 1.3839                 2.4265
 Frc consts  --      0.4938                 0.4371                 0.8287
 IR Inten    --     15.0101                19.2944               191.5317

                     10                     11                     12
                      A                      A                      A
 Frequencies --    840.2223               900.6959               962.9877
 Red. masses --      1.2253                 1.3481                 1.8977
 Frc consts  --      0.5097                 0.6443                 1.0369
 IR Inten    --     52.5141               161.9337                57.5200

                     13                     14                     15
                      A                      A                      A
 Frequencies --    996.7910              1083.2017              1133.2437
 Red. masses --      1.2116                 1.2729                 3.7552
 Frc consts  --      0.7093                 0.8800                 2.8414
 IR Inten    --      1.1554                58.3034               198.5939

                     16                     17                     18
                      A                      A                      A
 Frequencies --   1247.1958              1633.3575              2386.5397
 Red. masses --      2.0796                 5.1755                 1.0878
 Frc consts  --      1.9059                 8.1351                 3.6503
 IR Inten    --     60.0677               135.4286               461.1821

                     19                     20                     21
                      A                      A                      A
 Frequencies --   2399.3211              2734.6343              2900.7291
 Red. masses --      1.0586                 1.1141                 1.1339
 Frc consts  --      3.5905                 4.9087                 5.6212
 IR Inten    --    834.9438              1238.0620               973.2004

 - Thermochemistry -
 -------------------
 Temperature   298.150 Kelvin.  Pressure   1.00000 Atm.
 Atom     1 has atomic number  6 and mass  12.00000

 Molecular mass:    64.03130 amu.
 Principal axes and moments of inertia in atomic units:
                           1         2         3
     Eigenvalues --    88.09650 533.84344 609.50587
           X            0.99973  -0.02336  -0.00004
           Y            0.02336   0.99973   0.00012
           Z            0.00004  -0.00012   1.00000
 This molecule is an asymmetric top.
 Rotational symmetry number  1.
 Rotational temperatures (Kelvin)      0.98317     0.16225     0.14210
 Rotational constants (GHZ):          20.48596     3.38066     2.96099
 Zero-point vibrational energy     140398.6 (Joules/Mol)
                                   33.55607 (Kcal/Mol)
 Warning -- explicit consideration of   6 degrees of freedom as
           vibrations may cause significant error
 Vibrational temperatures:    136.04   321.01   499.41   500.51   773.41
          (Kelvin)            801.08   940.17  1053.39  1095.39  1208.89
                             1295.90  1385.52  1434.16  1558.48  1630.48
                             1794.43  2350.03  3433.69  3452.08  3934.52
                             4173.50

 Zero-point correction=                           0.053475 (Hartree/Particle)
 Thermal correction to Energy=                    0.059280
 Thermal correction to Enthalpy=                  0.060224
 Thermal correction to Gibbs Free Energy=         0.024520
 Sum of electronic and zero-point Energies=           -191.001648
 Sum of electronic and thermal Energies=              -190.995844
 Sum of electronic and thermal Enthalpies=            -190.994900
 Sum of electronic and thermal Free Energies=         -191.030603

                     E (Thermal)             CV                S
                      KCal/Mol        Cal/Mol-Kelvin    Cal/Mol-Kelvin
 Total                   37.198             20.242             75.144
 Electronic               0.000              0.000              1.377
 Translational            0.889              2.981             38.389
 Rotational               0.889              2.981             24.864
 Vibrational             35.421             14.280             10.513
 Vibration     1          0.603              1.953              3.564
 Vibration     2          0.649              1.806              1.934
 Vibration     3          0.725              1.581              1.179
 Vibration     4          0.725              1.580              1.176
 Vibration     5          0.893              1.167              0.571
 Vibration     6          0.912              1.125              0.530

 Optimization completed.
    -- Stationary point found.
 Normal termination of Gaussian 09 at Wed Jul 20 02:28:09 2016.
