 Gaussian 09, Revision E.01,
 Gaussian 09:  EM64L-G09RevE.01 30-Nov-2015

 ---------------------------------------------
 #p b3lyp/6-311++G(3df,2p) freq symmetry=Loose
 ---------------------------------------------

 ---------
 b3lyp opt
 ---------
 Symbolic Z-matrix:
 Charge =  1 Multiplicity = 4

                         Standard orientation:
 ---------------------------------------------------------------------
 Center     Atomic      Atomic             Coordinates (Angstroms)
 Number     Number       Type             X           Y           Z
 ---------------------------------------------------------------------
      1          6           0       -1.160910    0.921007    0.000000
      2          1           0       -1.094633    2.015794    0.000000
      3          6           0        1.108585   -0.403893   -0.000000
      4          6           0        0.000000    0.195554    0.000000
      5          6           0       -2.388858    0.334683    0.000000
      6          1           0       -3.421555    0.657771    0.000000
      7          6           0        2.273636   -1.052107   -0.000000
      8          1           0        2.760736   -1.322514    0.933278
      9          1           0        2.760736   -1.322514   -0.933278
 ---------------------------------------------------------------------

 SCF Done:  E(UB3LYP) =  -192.465545993     A.U. after   16 cycles

 The electronic state is 4-A".
 Alpha  occ. eigenvalues --  -10.47122 -10.46171 -10.45626 -10.44880 -10.41054
 Alpha  occ. eigenvalues --   -1.07563  -1.02462  -0.94379  -0.85545  -0.73504
 Alpha  occ. eigenvalues --   -0.71738  -0.70160  -0.67325  -0.59321  -0.57639
 Alpha  occ. eigenvalues --   -0.50042  -0.49195  -0.43218
 Alpha virt. eigenvalues --   -0.29581  -0.16641  -0.14784  -0.14399  -0.12240
 Alpha virt. eigenvalues --   -0.11047  -0.09987  -0.09783  -0.07364  -0.06988
 Alpha virt. eigenvalues --   -0.05944  -0.05026  -0.03922  -0.03148  -0.02873

  Beta  occ. eigenvalues --  -10.45967 -10.45690 -10.44801 -10.43734 -10.40056
  Beta  occ. eigenvalues --   -1.04796  -0.99722  -0.90731  -0.82444  -0.70957
  Beta  occ. eigenvalues --   -0.69791  -0.68593  -0.65258  -0.55806  -0.54115
  Beta virt. eigenvalues --   -0.40043  -0.31410  -0.30460  -0.24749  -0.14825
  Beta virt. eigenvalues --   -0.13376  -0.12256  -0.11469  -0.10348  -0.09413
  Beta virt. eigenvalues --   -0.09350  -0.06702  -0.06595  -0.05200  -0.04269

 Mulliken charges and spin densities:
               1          2
     1  C   -0.055303   0.118536
     2  H    0.216735   0.082642
     3  C    0.483904   0.120389
     4  C    0.273868   0.471972
     5  C   -0.249545   1.440206
     6  H    0.275816   0.018685
     7  C   -0.427711   0.724290
     8  H    0.241119   0.011640
     9  H    0.241119   0.011640
 Sum of Mulliken charges =   1.00000   3.00000

 Dipole moment (field-independent basis, Debye):
    X=             -0.7804    Y=              0.6239    Z=             -0.0000  Tot=              0.9991
 Quadrupole moment (field-independent basis, Debye-Ang):
   XX=             -0.1659   YY=            -21.7023   ZZ=            -25.9359
   XY=            -11.1490   XZ=             -0.0000   YZ=              0.0000

  Exact polarizability: 113.686 -28.486  49.508   0.000   0.000  32.896
 Approx polarizability: 178.162 -46.599  74.329  -0.000  -0.000  46.869

                      1                      2                      3
                     A'                     A"                     A"
 Frequencies --     89.9193               116.5208               209.7395
 Red. masses --      4.4612                 1.2447                 2.2031
 Frc consts  --      0.0213                 0.0100                 0.0571
 IR Inten    --      7.3023                 4.3540                 9.1655

                      4                      5                      6
                     A'                     A"                     A'
 Frequencies --    374.0604               426.5980               473.3219
 Red. masses --      5.3421                 2.5794                 4.2475
 Frc consts  --      0.4404                 0.2766                 0.5607
 IR Inten    --      2.0527                 2.0797                 0.0756

                      7                      8                      9
                     A"                     A'                     A'
 Frequencies --    694.8886               709.4571               745.8294
 Red. masses --      1.3227                 1.3435                 1.8772
 Frc consts  --      0.3763                 0.3984                 0.6152
 IR Inten    --     27.5980                54.1049                12.3838

                     10                     11                     12
                     A"                     A'                     A"
 Frequencies --    904.3272               913.1567               922.3166
 Red. masses --      1.7066                 2.0628                 1.4948
 Frc consts  --      0.8223                 1.0134                 0.7492
 IR Inten    --      3.0191                16.6105                 3.0669

                     13                     14                     15
                     A'                     A'                     A'
 Frequencies --   1243.3301              1296.4768              1377.2192
 Red. masses --      1.3203                 2.0589                 1.7206
 Frc consts  --      1.2025                 2.0390                 1.9228
 IR Inten    --     10.3786                27.0868                 8.4034

                     16                     17                     18
                     A'                     A'                     A'
 Frequencies --   1476.9056              1972.6964              3008.9275
 Red. masses --      6.1010                11.8245                 1.0824
 Frc consts  --      7.8407                27.1114                 5.7739
 IR Inten    --    190.0220               191.6683                19.6580

                     19                     20                     21
                     A'                     A"                     A'
 Frequencies --   3091.0386              3178.6881              3218.8840
 Red. masses --      1.0509                 1.1135                 1.0983
 Frc consts  --      5.9160                 6.6290                 6.7045
 IR Inten    --    212.7195                55.7942                48.7364

 - Thermochemistry -
 -------------------
 Temperature   298.150 Kelvin.  Pressure   1.00000 Atm.
 Atom     1 has atomic number  6 and mass  12.00000

 Molecular mass:    64.03130 amu.
 Principal axes and moments of inertia in atomic units:
                           1         2         3
     Eigenvalues --    39.76722 776.49599 803.72414
           X            0.93513   0.35431   0.00000
           Y           -0.35431   0.93513   0.00000
           Z            0.00000  -0.00000   1.00000
 This molecule is an asymmetric top.
 Rotational symmetry number  1.
 Rotational temperatures (Kelvin)      2.17802     0.11154     0.10777
 Rotational constants (GHZ):          45.38264     2.32421     2.24547
 Zero-point vibrational energy     158172.0 (Joules/Mol)
                                   37.80403 (Kcal/Mol)
 Warning -- explicit consideration of   6 degrees of freedom as
           vibrations may cause significant error
 Vibrational temperatures:    129.37   167.65   301.77   538.19   613.78
          (Kelvin)            681.00   999.79  1020.75  1073.08  1301.12
                             1313.83  1327.01  1788.87  1865.34  1981.51
                             2124.94  2838.27  4329.17  4447.31  4573.42
                             4631.25

 Zero-point correction=                           0.060245 (Hartree/Particle)
 Thermal correction to Energy=                    0.066458
 Thermal correction to Enthalpy=                  0.067402
 Thermal correction to Gibbs Free Energy=         0.029986
 Sum of electronic and zero-point Energies=           -192.405301
 Sum of electronic and thermal Energies=              -192.399088
 Sum of electronic and thermal Enthalpies=            -192.398144
 Sum of electronic and thermal Free Energies=         -192.435560

                     E (Thermal)             CV                S
                      KCal/Mol        Cal/Mol-Kelvin    Cal/Mol-Kelvin
 Total                   41.703             20.305             78.749
 Electronic               0.000              0.000              2.755
 Translational            0.889              2.981             38.389
 Rotational               0.889              2.981             24.721
 Vibrational             39.925             14.343             12.884
 Vibration     1          0.602              1.956              3.662
 Vibration     2          0.608              1.936              3.157
 Vibration     3          0.642              1.826              2.046
 Vibration     4          0.745              1.525              1.063
 Vibration     5          0.788              1.412              0.870
 Vibration     6          0.830              1.309              0.728

 Normal termination of Gaussian 09 at Wed Jul 20 13:07:18 2016.
