 Gaussian 09, Revision E.01,
 Gaussian 09:  EM64L-G09RevE.01 30-Nov-2015

 ---------------------------------------------
 #p b3lyp/6-311++G(3df,2p) freq symmetry=Loose
 ---------------------------------------------

 ---------
 b3lyp opt
 ---------
 Symbolic Z-matrix:
 Charge =  1 Multiplicity = 2

                         Standard orientation:
 ---------------------------------------------------------------------
 Center     Atomic      Atomic             Coordinates (Angstroms)
 Number     Number       Type             X           Y           Z
 ---------------------------------------------------------------------
      1          6           0       -0.943239   -0.723462   -0.106135
      2          6           0        0.148973    0.396511   -0.698835
      3          6           0        1.423295    0.000331   -0.000176
      4          6           0        0.149369   -0.397266    0.699260
      5          1           0       -1.499382   -1.533047   -0.552539
      6          1           0        1.995398    0.807412    0.442603
      7          1           0        1.996618   -0.805617   -0.442776
      8          6           0       -0.943923    0.723594    0.105792
      9          1           0       -1.499478    1.533007    0.553278
 ---------------------------------------------------------------------

 SCF Done:  E(UB3LYP) =  -192.438195817     A.U. after   14 cycles

 The electronic state is 2-A.
 Alpha  occ. eigenvalues --  -10.50594 -10.50577 -10.49184 -10.49150 -10.46906
 Alpha  occ. eigenvalues --   -1.28612  -1.02269  -0.89399  -0.82276  -0.81866
 Alpha  occ. eigenvalues --   -0.73901  -0.71380  -0.65995  -0.62738  -0.59868
 Alpha  occ. eigenvalues --   -0.55461  -0.48496
 Alpha virt. eigenvalues --   -0.28996  -0.20489  -0.17911  -0.14548  -0.14442
 Alpha virt. eigenvalues --   -0.12892  -0.12148  -0.10000  -0.09763  -0.08938
 Alpha virt. eigenvalues --   -0.07787  -0.06367  -0.05857  -0.05511  -0.02669

  Beta  occ. eigenvalues --  -10.49952 -10.49934 -10.48925 -10.48890 -10.46870
  Beta  occ. eigenvalues --   -1.27688  -1.01743  -0.88349  -0.81524  -0.79630
  Beta  occ. eigenvalues --   -0.73641  -0.70525  -0.65304  -0.62167  -0.58346
  Beta  occ. eigenvalues --   -0.53729
  Beta virt. eigenvalues --   -0.37677  -0.26712  -0.18779  -0.16848  -0.14471
  Beta virt. eigenvalues --   -0.14238  -0.12610  -0.11883  -0.09854  -0.09550
  Beta virt. eigenvalues --   -0.08690  -0.07600  -0.06282  -0.05778  -0.05139

 Mulliken charges and spin densities:
               1          2
     1  C    0.186491   0.108518
     2  C    0.045543   0.386129
     3  C   -0.607506   0.019269
     4  C    0.044588   0.388306
     5  H    0.325929  -0.005940
     6  H    0.246439  -0.000086
     7  H    0.246612  -0.000090
     8  C    0.186028   0.109778
     9  H    0.325875  -0.005885
 Sum of Mulliken charges =   1.00000   1.00000

 Dipole moment (field-independent basis, Debye):
    X=             -0.2749    Y=              0.0022    Z=             -0.0004  Tot=              0.2749
 Quadrupole moment (field-independent basis, Debye-Ang):
   XX=            -15.8936   YY=            -21.1048   ZZ=            -27.0225
   XY=             -0.0015   XZ=             -0.0025   YZ=              2.4784

  Exact polarizability:  48.840  -0.010  40.419   0.005  -0.773  37.526
 Approx polarizability:  75.562  -0.043  68.743   0.023 -11.762  77.736

                      1                      2                      3
                      A                      A                      A
 Frequencies --    310.8978               359.3686               556.3464
 Red. masses --      5.2189                 2.8208                 5.8849
 Frc consts  --      0.2972                 0.2146                 1.0732
 IR Inten    --     32.5756                11.3439                 0.1637

                      4                      5                      6
                      A                      A                      A
 Frequencies --    674.0312               739.7478               770.3817
 Red. masses --      6.2694                 4.9966                 1.4891
 Frc consts  --      1.6782                 1.6110                 0.5207
 IR Inten    --     45.6069                10.3249                22.1702

                      7                      8                      9
                      A                      A                      A
 Frequencies --    807.4074               964.6886              1025.8141
 Red. masses --      1.2359                 1.5345                 1.2668
 Frc consts  --      0.4747                 0.8414                 0.7854
 IR Inten    --     14.3284                 0.2012                17.0373

                     10                     11                     12
                      A                      A                      A
 Frequencies --   1036.7500              1043.3069              1074.7819
 Red. masses --      1.1866                 1.4562                 1.9071
 Frc consts  --      0.7515                 0.9339                 1.2980
 IR Inten    --     10.6663                 1.6561                 3.4690

                     13                     14                     15
                      A                      A                      A
 Frequencies --   1129.4256              1146.5293              1332.9829
 Red. masses --      5.1693                 1.2446                 5.2391
 Frc consts  --      3.8851                 0.9639                 5.4848
 IR Inten    --     23.4539                11.6802                 2.0912

                     16                     17                     18
                      A                      A                      A
 Frequencies --   1451.6063              1484.9379              3127.1864
 Red. masses --      6.3064                 1.1399                 1.0549
 Frc consts  --      7.8295                 1.4810                 6.0779
 IR Inten    --     20.9418                 3.9499                 6.5445

                     19                     20                     21
                      A                      A                      A
 Frequencies --   3221.6634              3240.2119              3256.4126
 Red. masses --      1.1189                 1.0988                 1.1186
 Frc consts  --      6.8421                 6.7971                 6.9888
 IR Inten    --     31.5015                64.2405                34.3136

 - Thermochemistry -
 -------------------
 Temperature   298.150 Kelvin.  Pressure   1.00000 Atm.
 Atom     1 has atomic number  6 and mass  12.00000

 Molecular mass:    64.03130 amu.
 Principal axes and moments of inertia in atomic units:
                           1         2         3
     Eigenvalues --   126.42024 254.23647 291.84537
           X            1.00000   0.00008  -0.00003
           Y           -0.00007   0.97237   0.23343
           Z            0.00005  -0.23343   0.97237
 This molecule is an asymmetric top.
 Rotational symmetry number  1.
 Rotational temperatures (Kelvin)      0.68513     0.34068     0.29678
 Rotational constants (GHZ):          14.27573     7.09867     6.18390
 Zero-point vibrational energy     171990.0 (Joules/Mol)
                                   41.10659 (Kcal/Mol)
 Warning -- explicit consideration of   3 degrees of freedom as
           vibrations may cause significant error
 Vibrational temperatures:    447.31   517.05   800.46   969.78  1064.33
          (Kelvin)           1108.41  1161.68  1387.97  1475.92  1491.65
                             1501.08  1546.37  1624.99  1649.60  1917.86
                             2088.54  2136.49  4499.32  4635.25  4661.94
                             4685.25

 Zero-point correction=                           0.065508 (Hartree/Particle)
 Thermal correction to Energy=                    0.069899
 Thermal correction to Enthalpy=                  0.070843
 Thermal correction to Gibbs Free Energy=         0.038464
 Sum of electronic and zero-point Energies=           -192.372688
 Sum of electronic and thermal Energies=              -192.368297
 Sum of electronic and thermal Enthalpies=            -192.367353
 Sum of electronic and thermal Free Energies=         -192.399732

                     E (Thermal)             CV                S
                      KCal/Mol        Cal/Mol-Kelvin    Cal/Mol-Kelvin
 Total                   43.862             15.810             68.147
 Electronic               0.000              0.000              1.377
 Translational            0.889              2.981             38.389
 Rotational               0.889              2.981             23.754
 Vibrational             42.085              9.848              4.626
 Vibration     1          0.700              1.653              1.358
 Vibration     2          0.734              1.556              1.125
 Vibration     3          0.912              1.126              0.531

 Optimization completed.
    -- Stationary point found.
 Normal termination of Gaussian 09 at Mon Jun 20 05:16:33 2016.
