 Gaussian 09, Revision E.01,
 Gaussian 09:  EM64L-G09RevE.01 30-Nov-2015

 ------------------------------------------------------
 #p b3lyp/6-311++G(3df,2p) freq IOp(2/17=3) IOp(2/18=3)
 ------------------------------------------------------

 ---------
 b3lyp opt
 ---------
 Symbolic Z-matrix:
 Charge =  1 Multiplicity = 4

                         Standard orientation:
 ---------------------------------------------------------------------
 Center     Atomic      Atomic             Coordinates (Angstroms)
 Number     Number       Type             X           Y           Z
 ---------------------------------------------------------------------
      1          6           0       -1.381259    0.631011    0.000000
      2          6           0        1.863598   -0.954224    0.000000
      3          1           0       -2.086936    1.462497    0.000000
      4          1           0        2.268774   -1.350219   -0.930092
      5          1           0        2.268774   -1.350219    0.930092
      6          6           0       -1.893555   -0.642652    0.000000
      7          6           0        0.951080   -0.060916    0.000000
      8          6           0        0.000000    0.908134    0.000000
      9          1           0        0.310498    1.949818    0.000000
 ---------------------------------------------------------------------

 SCF Done:  E(UB3LYP) =  -192.409587560     A.U. after   18 cycles

 The electronic state is 4-A".
 Alpha  occ. eigenvalues --  -10.50040 -10.46419 -10.46239 -10.44874 -10.40666
 Alpha  occ. eigenvalues --   -1.08538  -1.01582  -0.94382  -0.82555  -0.72778
 Alpha  occ. eigenvalues --   -0.71953  -0.68137  -0.67785  -0.61029  -0.59073
 Alpha  occ. eigenvalues --   -0.51492  -0.49361  -0.46677
 Alpha virt. eigenvalues --   -0.30582  -0.21848  -0.17801  -0.14836  -0.12702
 Alpha virt. eigenvalues --   -0.10651  -0.10116  -0.09175  -0.07547  -0.07163
 Alpha virt. eigenvalues --   -0.06769  -0.04715  -0.04589  -0.03611  -0.02663

  Beta  occ. eigenvalues --  -10.46186 -10.45966 -10.45792 -10.44460 -10.40694
  Beta  occ. eigenvalues --   -1.06408  -0.99655  -0.91016  -0.79366  -0.71488
  Beta  occ. eigenvalues --   -0.70104  -0.66581  -0.65540  -0.55561  -0.51348
  Beta virt. eigenvalues --   -0.39137  -0.38639  -0.26877  -0.25044  -0.21394
  Beta virt. eigenvalues --   -0.14429  -0.14263  -0.12527  -0.10115  -0.09571
  Beta virt. eigenvalues --   -0.08764  -0.07041  -0.06833  -0.06459  -0.04400

 Mulliken charges and spin densities:
               1          2
     1  C   -0.044656  -0.025038
     2  C   -0.278810   0.028582
     3  H    0.206526   0.054921
     4  H    0.236510   0.028030
     5  H    0.236510   0.028030
     6  C    0.017155   2.407413
     7  C    0.615725   0.268746
     8  C   -0.200864   0.199809
     9  H    0.211904   0.009508
 Sum of Mulliken charges =   1.00000   3.00000

 Dipole moment (field-independent basis, Debye):
    X=              0.1904    Y=              0.0994    Z=              0.0000  Tot=              0.2148
 Quadrupole moment (field-independent basis, Debye-Ang):
   XX=            -11.4546   YY=            -19.1615   ZZ=            -26.1683
   XY=             -5.6807   XZ=             -0.0000   YZ=             -0.0000

  Exact polarizability:  89.273  -9.982  54.553   0.000  -0.000  33.013
 Approx polarizability: 136.853 -12.281  89.787  -0.000  -0.000  47.847

                      1                      2                      3
                     A'                     A"                     A"
 Frequencies --    154.3946               213.0301               280.7542
 Red. masses --      5.0244                 2.2689                 1.1045
 Frc consts  --      0.0706                 0.0607                 0.0513
 IR Inten    --      1.5970                 3.9180                 0.1416

                      4                      5                      6
                     A'                     A"                     A'
 Frequencies --    382.1320               415.5580               690.0349
 Red. masses --      7.1080                 2.0007                 6.7003
 Frc consts  --      0.6115                 0.2036                 1.8797
 IR Inten    --      8.1066                 4.1183                 1.0693

                      7                      8                      9
                     A"                     A"                     A'
 Frequencies --    789.3914               886.6084               902.7956
 Red. masses --      1.2509                 1.8157                 1.3158
 Frc consts  --      0.4593                 0.8409                 0.6319
 IR Inten    --     28.8510                14.7602                47.4061

                     10                     11                     12
                     A"                     A'                     A'
 Frequencies --    955.6907               962.1549              1147.9365
 Red. masses --      1.5483                 3.5841                 1.7524
 Frc consts  --      0.8332                 1.9549                 1.3606
 IR Inten    --      0.7877                 3.1414                22.7499

                     13                     14                     15
                     A'                     A'                     A'
 Frequencies --   1264.9200              1335.4966              1398.3413
 Red. masses --      1.4688                 1.1300                 2.2127
 Frc consts  --      1.3847                 1.1875                 2.5492
 IR Inten    --      0.8085                39.5555                28.2560

                     16                     17                     18
                     A'                     A'                     A'
 Frequencies --   1444.8520              1951.6492              3079.2673
 Red. masses --      3.5188                 9.7459                 1.0609
 Frc consts  --      4.3281                21.8714                 5.9270
 IR Inten    --      0.3531               216.0150               172.8999

                     19                     20                     21
                     A'                     A'                     A"
 Frequencies --   3090.4266              3135.2231              3149.6640
 Red. masses --      1.0862                 1.0888                 1.1110
 Frc consts  --      6.1124                 6.3060                 6.4936
 IR Inten    --     12.0332                26.3758                57.9864

 - Thermochemistry -
 -------------------
 Temperature   298.150 Kelvin.  Pressure   1.00000 Atm.
 Atom     1 has atomic number  6 and mass  12.00000

 Molecular mass:    64.03130 amu.
 Principal axes and moments of inertia in atomic units:
                           1         2         3
     Eigenvalues --   124.78694 507.07520 619.40856
           X            0.96648   0.25673   0.00000
           Y           -0.25673   0.96648   0.00000
           Z           -0.00000   0.00000   1.00000
 This molecule is an asymmetric top.
 Rotational symmetry number  1.
 Rotational temperatures (Kelvin)      0.69409     0.17081     0.13983
 Rotational constants (GHZ):          14.46258     3.55912     2.91365
 Zero-point vibrational energy     165266.0 (Joules/Mol)
                                   39.49953 (Kcal/Mol)
 Warning -- explicit consideration of   5 degrees of freedom as
           vibrations may cause significant error
 Vibrational temperatures:    222.14   306.50   403.94   549.80   597.89
          (Kelvin)            992.81  1135.76  1275.63  1298.92  1375.02
                             1384.32  1651.62  1819.94  1921.48  2011.90
                             2078.82  2807.98  4430.37  4446.43  4510.88
                             4531.66

 Zero-point correction=                           0.062947 (Hartree/Particle)
 Thermal correction to Energy=                    0.068474
 Thermal correction to Enthalpy=                  0.069418
 Thermal correction to Gibbs Free Energy=         0.033497
 Sum of electronic and zero-point Energies=           -192.346641
 Sum of electronic and thermal Energies=              -192.341113
 Sum of electronic and thermal Enthalpies=            -192.340169
 Sum of electronic and thermal Free Energies=         -192.376090

                     E (Thermal)             CV                S
                      KCal/Mol        Cal/Mol-Kelvin    Cal/Mol-Kelvin
 Total                   42.968             18.466             75.602
 Electronic               0.000              0.000              2.755
 Translational            0.889              2.981             38.389
 Rotational               0.889              2.981             25.175
 Vibrational             41.191             12.504              9.283
 Vibration     1          0.620              1.898              2.617
 Vibration     2          0.644              1.821              2.018
 Vibration     3          0.680              1.709              1.529
 Vibration     4          0.752              1.508              1.031
 Vibration     5          0.779              1.436              0.907

 Optimization completed.
    -- Stationary point found.
 Normal termination of Gaussian 09 at Thu Jan 31 07:35:51 2019.
