 Gaussian 09, Revision E.01,
 Gaussian 09:  EM64L-G09RevE.01 30-Nov-2015

 ---------------------------------------------
 #p b3lyp/6-311++G(3df,2p) freq symmetry=Loose
 ---------------------------------------------

 ---------
 b3lyp opt
 ---------
 Symbolic Z-matrix:
 Charge =  1 Multiplicity = 4

                         Standard orientation:
 ---------------------------------------------------------------------
 Center     Atomic      Atomic             Coordinates (Angstroms)
 Number     Number       Type             X           Y           Z
 ---------------------------------------------------------------------
      1          6           0       -1.790363    0.048285   -0.000028
      2          1           0       -2.088559    0.640907    0.873585
      3          1           0       -2.089671    0.642368   -0.872266
      4          1           0       -2.300656   -0.911017   -0.000419
      5          6           0        1.681018   -0.121033    0.000071
      6          6           0       -0.342064   -0.108703   -0.000092
      7          6           0        0.587969   -1.125807   -0.000088
      8          6           0        0.803514    0.912819    0.000061
      9          1           0        0.838442    1.994381   -0.000440
 ---------------------------------------------------------------------

 SCF Done:  E(UB3LYP) =  -192.401986409     A.U. after   16 cycles

 The electronic state is 4-A.
 Alpha  occ. eigenvalues --  -10.51177 -10.50755 -10.49903 -10.47738 -10.39654
 Alpha  occ. eigenvalues --   -1.19231  -0.99780  -0.92268  -0.84187  -0.73819
 Alpha  occ. eigenvalues --   -0.70555  -0.68786  -0.68013  -0.61480  -0.61455
 Alpha  occ. eigenvalues --   -0.54441  -0.52641  -0.46920
 Alpha virt. eigenvalues --   -0.35003  -0.19179  -0.15739  -0.13712  -0.11950
 Alpha virt. eigenvalues --   -0.10887  -0.10655  -0.09934  -0.08366  -0.07712
 Alpha virt. eigenvalues --   -0.06308  -0.05845  -0.05644  -0.04560  -0.02851

  Beta  occ. eigenvalues --  -10.50280 -10.49216 -10.47446 -10.46923 -10.39583
  Beta  occ. eigenvalues --   -1.15748  -0.98603  -0.88305  -0.81175  -0.70376
  Beta  occ. eigenvalues --   -0.68185  -0.66080  -0.65607  -0.60273  -0.58474
  Beta virt. eigenvalues --   -0.36436  -0.35849  -0.35014  -0.30956  -0.15469
  Beta virt. eigenvalues --   -0.13907  -0.12781  -0.11019  -0.10546  -0.09725
  Beta virt. eigenvalues --   -0.09251  -0.07736  -0.07382  -0.06009  -0.04858

 Mulliken charges and spin densities:
               1          2
     1  C   -0.424793   0.065842
     2  H    0.211002   0.008888
     3  H    0.210970   0.008858
     4  H    0.191058   0.007015
     5  C    0.011462   1.021745
     6  C    0.281729   0.133521
     7  C    0.109414   1.331992
     8  C    0.093471   0.393733
     9  H    0.315687   0.028406
 Sum of Mulliken charges =   1.00000   3.00000

 Dipole moment (field-independent basis, Debye):
    X=             -0.5695    Y=              1.2934    Z=              0.0000  Tot=              1.4132
 Quadrupole moment (field-independent basis, Debye-Ang):
   XX=            -16.4284   YY=            -21.2358   ZZ=            -26.6658
   XY=              0.5418   XZ=             -0.0006   YZ=             -0.0009

  Exact polarizability:  64.311  -0.993  48.186  -0.001   0.001  32.047
 Approx polarizability:  98.746  -8.675  83.067  -0.003   0.004  48.436

                      1                      2                      3
                      A                      A                      A
 Frequencies --    114.4243               246.7828               336.5268
 Red. masses --      1.1003                 4.5259                 2.7964
 Frc consts  --      0.0085                 0.1624                 0.1866
 IR Inten    --      0.8634                 0.2158                 2.7177

                      4                      5                      6
                      A                      A                      A
 Frequencies --    539.3771               583.0608               745.0020
 Red. masses --      3.1501                 5.8992                 1.2765
 Frc consts  --      0.5400                 1.1816                 0.4174
 IR Inten    --      5.1465                 7.1374                26.1715

                      7                      8                      9
                      A                      A                      A
 Frequencies --    798.2674               953.6226               983.1786
 Red. masses --      3.7248                 3.2054                 1.6449
 Frc consts  --      1.3984                 1.7174                 0.9368
 IR Inten    --     15.8684                 8.4853                 6.7746

                     10                     11                     12
                      A                      A                      A
 Frequencies --   1080.0941              1095.3794              1146.1243
 Red. masses --      2.1258                 1.3465                 6.5055
 Frc consts  --      1.4611                 0.9519                 5.0349
 IR Inten    --      5.7179                11.5836                 5.9270

                     13                     14                     15
                      A                      A                      A
 Frequencies --   1356.3105              1421.0259              1425.4570
 Red. masses --      1.2318                 1.8522                 1.0456
 Frc consts  --      1.3351                 2.2037                 1.2518
 IR Inten    --     88.0578                59.5762                17.6165

                     16                     17                     18
                      A                      A                      A
 Frequencies --   1454.9679              1519.9525              2995.3905
 Red. masses --      2.5453                 3.7905                 1.0396
 Frc consts  --      3.1747                 5.1594                 5.4958
 IR Inten    --     14.2848                47.6060                63.4388

                     19                     20                     21
                      A                      A                      A
 Frequencies --   3034.3377              3145.4337              3203.8684
 Red. masses --      1.0942                 1.0998                 1.0986
 Frc consts  --      5.9359                 6.4110                 6.6439
 IR Inten    --     11.4002                 5.4790                61.4346

 - Thermochemistry -
 -------------------
 Temperature   298.150 Kelvin.  Pressure   1.00000 Atm.
 Atom     1 has atomic number  6 and mass  12.00000

 Molecular mass:    64.03130 amu.
 Principal axes and moments of inertia in atomic units:
                           1         2         3
     Eigenvalues --   116.65751 362.72294 468.41068
           X            0.99992   0.01268  -0.00001
           Y           -0.01268   0.99992  -0.00003
           Z            0.00001   0.00003   1.00000
 This molecule is an asymmetric top.
 Rotational symmetry number  1.
 Rotational temperatures (Kelvin)      0.74246     0.23879     0.18491
 Rotational constants (GHZ):          15.47042     4.97554     3.85290
 Zero-point vibrational energy     168545.4 (Joules/Mol)
                                   40.28331 (Kcal/Mol)
 Warning -- explicit consideration of   5 degrees of freedom as
           vibrations may cause significant error
 Vibrational temperatures:    164.63   355.06   484.19   776.04   838.89
          (Kelvin)           1071.89  1148.53  1372.05  1414.57  1554.01
                             1576.00  1649.02  1951.43  2044.54  2050.91
                             2093.37  2186.87  4309.69  4365.73  4525.57
                             4609.65

 Zero-point correction=                           0.064196 (Hartree/Particle)
 Thermal correction to Energy=                    0.069333
 Thermal correction to Enthalpy=                  0.070277
 Thermal correction to Gibbs Free Energy=         0.035211
 Sum of electronic and zero-point Energies=           -192.337791
 Sum of electronic and thermal Energies=              -192.332653
 Sum of electronic and thermal Enthalpies=            -192.331709
 Sum of electronic and thermal Free Energies=         -192.366775

                     E (Thermal)             CV                S
                      KCal/Mol        Cal/Mol-Kelvin    Cal/Mol-Kelvin
 Total                   43.507             17.027             73.803
 Electronic               0.000              0.000              2.755
 Translational            0.889              2.981             38.389
 Rotational               0.889              2.981             24.498
 Vibrational             41.730             11.066              8.161
 Vibration     1          0.607              1.937              3.192
 Vibration     2          0.661              1.768              1.753
 Vibration     3          0.717              1.603              1.229
 Vibration     4          0.894              1.163              0.567
 Vibration     5          0.940              1.068              0.480

 Optimization completed.
    -- Stationary point found.
 Normal termination of Gaussian 09 at Mon Jun 20 06:27:21 2016.
