 Gaussian 09, Revision E.01,
 Gaussian 09:  EM64L-G09RevE.01 30-Nov-2015

 ---------------------------------------------
 #p b3lyp/6-311++G(3df,2p) freq symmetry=Loose
 ---------------------------------------------

 ---------
 b3lyp opt
 ---------
 Symbolic Z-matrix:
 Charge =  1 Multiplicity = 4

                         Standard orientation:
 ---------------------------------------------------------------------
 Center     Atomic      Atomic             Coordinates (Angstroms)
 Number     Number       Type             X           Y           Z
 ---------------------------------------------------------------------
      1          6           0        1.425764   -0.488886   -0.662348
      2          6           0       -1.769724   -0.558385    0.408620
      3          1           0       -2.126204   -1.508302    0.034592
      4          6           0       -1.079108    0.594623   -0.197912
      5          1           0       -1.408648    0.790725   -1.227066
      6          1           0       -1.216028    1.504319    0.395087
      7          6           0        0.331582    0.181044   -0.192745
      8          6           0        1.540267    0.082302    0.536206
      9          1           0        2.058198    0.349076    1.446461
 ---------------------------------------------------------------------

 SCF Done:  E(UB3LYP) =  -192.390731713     A.U. after   15 cycles

 The electronic state is 4-A.
 Alpha  occ. eigenvalues --  -10.51580 -10.50652 -10.49878 -10.42753 -10.42326
 Alpha  occ. eigenvalues --   -1.21246  -1.03099  -0.85031  -0.83826  -0.76689
 Alpha  occ. eigenvalues --   -0.72170  -0.68546  -0.65650  -0.63520  -0.62064
 Alpha  occ. eigenvalues --   -0.53211  -0.46091  -0.43224
 Alpha virt. eigenvalues --   -0.28305  -0.26396  -0.15121  -0.13918  -0.12854
 Alpha virt. eigenvalues --   -0.11759  -0.11277  -0.09381  -0.07971  -0.07472
 Alpha virt. eigenvalues --   -0.06189  -0.05362  -0.04861  -0.04229  -0.03304

  Beta  occ. eigenvalues --  -10.51102 -10.49603 -10.49132 -10.42807 -10.39491
  Beta  occ. eigenvalues --   -1.19951  -1.01158  -0.83336  -0.79040  -0.74072
  Beta  occ. eigenvalues --   -0.69463  -0.66503  -0.63260  -0.61389  -0.60282
  Beta virt. eigenvalues --   -0.38630  -0.30206  -0.27561  -0.25145  -0.22137
  Beta virt. eigenvalues --   -0.14689  -0.13669  -0.12262  -0.11302  -0.10796
  Beta virt. eigenvalues --   -0.08810  -0.07560  -0.06792  -0.05381  -0.04223

 Mulliken charges and spin densities:
               1          2
     1  C    0.020618   0.923682
     2  C   -0.341680   1.891473
     3  H    0.245095   0.009307
     4  C   -0.026609  -0.173117
     5  H    0.194540   0.075312
     6  H    0.204360   0.054025
     7  C    0.208753   0.097592
     8  C    0.176920   0.118237
     9  H    0.318004   0.003489
 Sum of Mulliken charges =   1.00000   3.00000

 Dipole moment (field-independent basis, Debye):
    X=              1.4654    Y=              0.7222    Z=              0.4570  Tot=              1.6964
 Quadrupole moment (field-independent basis, Debye-Ang):
   XX=            -14.9602   YY=            -23.5229   ZZ=            -23.8693
   XY=              0.8850   XZ=              4.2946   YZ=              0.8407

  Exact polarizability:  69.931   1.693  40.510  -1.725   1.480  41.246
 Approx polarizability:  99.404   1.222  61.425  -4.359   5.203  66.420

                      1                      2                      3
                      A                      A                      A
 Frequencies --    114.4185               191.9063               324.4407
 Red. masses --      3.0810                 3.4065                 2.0476
 Frc consts  --      0.0238                 0.0739                 0.1270
 IR Inten    --      6.3471                11.2253                29.3307

                      4                      5                      6
                      A                      A                      A
 Frequencies --    373.5148               504.1823               746.8123
 Red. masses --      1.5257                 6.1252                 1.5537
 Frc consts  --      0.1254                 0.9174                 0.5106
 IR Inten    --     16.2528                14.7317                22.7142

                      7                      8                      9
                      A                      A                      A
 Frequencies --    763.1559               896.0501               927.6650
 Red. masses --      2.1030                 1.3724                 1.3926
 Frc consts  --      0.7216                 0.6492                 0.7061
 IR Inten    --      6.5464                19.3288                26.3791

                     10                     11                     12
                      A                      A                      A
 Frequencies --    997.8751              1049.7610              1111.5494
 Red. masses --      1.6007                 4.7793                 2.6855
 Frc consts  --      0.9391                 3.1031                 1.9549
 IR Inten    --     13.7769                 1.1963                42.3799

                     13                     14                     15
                      A                      A                      A
 Frequencies --   1227.9488              1252.1401              1401.7202
 Red. masses --      1.4358                 1.3240                 5.0762
 Frc consts  --      1.2755                 1.2230                 5.8764
 IR Inten    --     27.3965                20.5907               108.5209

                     16                     17                     18
                      A                      A                      A
 Frequencies --   1422.5050              1711.2734              2974.7138
 Red. masses --      1.1741                 8.2632                 1.0601
 Frc consts  --      1.3998                14.2572                 5.5268
 IR Inten    --     33.0463                44.0254                12.5847

                     19                     20                     21
                      A                      A                      A
 Frequencies --   3040.5944              3212.2714              3242.8802
 Red. masses --      1.0976                 1.0916                 1.1182
 Frc consts  --      5.9790                 6.6365                 6.9282
 IR Inten    --      9.7435                28.8366                90.3861

 - Thermochemistry -
 -------------------
 Temperature   298.150 Kelvin.  Pressure   1.00000 Atm.
 Atom     1 has atomic number  6 and mass  12.00000

 Molecular mass:    64.03130 amu.
 Principal axes and moments of inertia in atomic units:
                           1         2         3
     Eigenvalues --   113.82606 476.21023 481.20415
           X            0.99917   0.00550   0.04046
           Y           -0.00910   0.99596   0.08931
           Z           -0.03981  -0.08961   0.99518
 This molecule is an asymmetric top.
 Rotational symmetry number  1.
 Rotational temperatures (Kelvin)      0.76093     0.18188     0.17999
 Rotational constants (GHZ):          15.85526     3.78980     3.75047
 Zero-point vibrational energy     164411.0 (Joules/Mol)
                                   39.29518 (Kcal/Mol)
 Warning -- explicit consideration of   5 degrees of freedom as
           vibrations may cause significant error
 Vibrational temperatures:    164.62   276.11   466.80   537.40   725.40
          (Kelvin)           1074.50  1098.01  1289.21  1334.70  1435.72
                             1510.37  1599.27  1766.74  1801.55  2016.76
                             2046.66  2462.14  4279.94  4374.73  4621.74
                             4665.78

 Zero-point correction=                           0.062621 (Hartree/Particle)
 Thermal correction to Energy=                    0.068106
 Thermal correction to Enthalpy=                  0.069051
 Thermal correction to Gibbs Free Energy=         0.033217
 Sum of electronic and zero-point Energies=           -192.328111
 Sum of electronic and thermal Energies=              -192.322625
 Sum of electronic and thermal Enthalpies=            -192.321681
 Sum of electronic and thermal Free Energies=         -192.357515

                     E (Thermal)             CV                S
                      KCal/Mol        Cal/Mol-Kelvin    Cal/Mol-Kelvin
 Total                   42.737             18.144             75.418
 Electronic               0.000              0.000              2.755
 Translational            0.889              2.981             38.389
 Rotational               0.889              2.981             24.770
 Vibrational             40.960             12.182              9.504
 Vibration     1          0.607              1.937              3.193
 Vibration     2          0.634              1.851              2.209
 Vibration     3          0.709              1.627              1.288
 Vibration     4          0.745              1.526              1.065
 Vibration     5          0.859              1.241              0.648

 Normal termination of Gaussian 09 at Mon Jun 20 07:39:54 2016.
