 Gaussian 09, Revision E.01,
 Gaussian 09:  EM64L-G09RevE.01 30-Nov-2015

 ---------------------------------------------
 #p b3lyp/6-311++G(3df,2p) freq symmetry=Loose
 ---------------------------------------------

 ---------
 b3lyp opt
 ---------
 Symbolic Z-matrix:
 Charge =  2 Multiplicity = 1

                         Standard orientation:
 ---------------------------------------------------------------------
 Center     Atomic      Atomic             Coordinates (Angstroms)
 Number     Number       Type             X           Y           Z
 ---------------------------------------------------------------------
      1          6           0       -1.790421   -0.000020    0.111018
      2          1           0       -2.343867   -0.938465    0.136262
      3          1           0       -2.343867    0.938416    0.136601
      4          6           0       -0.411711    0.000015   -0.085421
      5          6           0        0.664771    0.975060   -0.184953
      6          1           0        0.888903    1.910747   -0.704809
      7          6           0        0.664771   -0.974993   -0.185306
      8          1           0        0.888903   -1.910492   -0.705501
      9          6           0        1.357578   -0.000097    0.534237
 ---------------------------------------------------------------------

 SCF Done:  E(RB3LYP) =  -191.934588346     A.U. after   12 cycles

 The electronic state is 1-A.
 Alpha  occ. eigenvalues --  -10.76396 -10.76394 -10.75880 -10.72935 -10.70816
 Alpha  occ. eigenvalues --   -1.46862  -1.23318  -1.15951  -1.06457  -1.03005
 Alpha  occ. eigenvalues --   -0.94305  -0.93818  -0.91648  -0.87706  -0.84948
 Alpha  occ. eigenvalues --   -0.74910
 Alpha virt. eigenvalues --   -0.62983  -0.56476  -0.50443  -0.44569  -0.32349
 Alpha virt. eigenvalues --   -0.31301  -0.30827  -0.29927  -0.28644  -0.26642
 Alpha virt. eigenvalues --   -0.25447  -0.23391  -0.22814  -0.22788  -0.20991

 Mulliken charges:
               1
     1  C   -0.217240
     2  H    0.289395
     3  H    0.289395
     4  C    0.346083
     5  C    0.193566
     6  H    0.370670
     7  C    0.193566
     8  H    0.370670
     9  C    0.163895
 Sum of Mulliken charges =   2.00000

 Dipole moment (field-independent basis, Debye):
    X=             -0.8855    Y=              0.0002    Z=             -1.1805  Tot=              1.4757
 Quadrupole moment (field-independent basis, Debye-Ang):
   XX=             -3.5470   YY=            -10.1809   ZZ=            -23.3579
   XY=              0.0005   XZ=             -2.5052   YZ=              0.0024

  Exact polarizability:  72.985  -0.003  40.615   4.369  -0.001  28.296
 Approx polarizability: 207.834  -0.005  67.848  29.852   0.003  50.103

                      1                      2                      3
                      A                      A                      A
 Frequencies --    283.2750               289.3540               387.3121
 Red. masses --      1.3632                 4.6815                 2.0705
 Frc consts  --      0.0644                 0.2309                 0.1830
 IR Inten    --      1.5712                 7.3949                 0.6328

                      4                      5                      6
                      A                      A                      A
 Frequencies --    420.3696               672.4646               746.4759
 Red. masses --      2.4572                 6.1006                 2.8516
 Frc consts  --      0.2558                 1.6254                 0.9362
 IR Inten    --     37.8864                50.6689                 0.9757

                      7                      8                      9
                      A                      A                      A
 Frequencies --    838.2966               937.1191               986.2738
 Red. masses --      2.3948                 1.7395                 1.3947
 Frc consts  --      0.9916                 0.9000                 0.7993
 IR Inten    --     65.6422                79.7673                 0.3649

                     10                     11                     12
                      A                      A                      A
 Frequencies --   1010.5069              1092.3020              1110.2032
 Red. masses --      1.2961                 1.4006                 1.4498
 Frc consts  --      0.7798                 0.9845                 1.0528
 IR Inten    --      0.0935                 1.3391                52.4357

                     13                     14                     15
                      A                      A                      A
 Frequencies --   1127.6234              1289.3284              1336.7333
 Red. masses --      1.4398                 4.9755                 6.0408
 Frc consts  --      1.0787                 4.8732                 6.3597
 IR Inten    --      1.8747                56.4739                78.2202

                     16                     17                     18
                      A                      A                      A
 Frequencies --   1453.0821              1547.5589              3086.7633
 Red. masses --      1.2862                 4.6864                 1.0569
 Frc consts  --      1.6001                 6.6127                 5.9331
 IR Inten    --     87.5122               192.3161               102.6712

                     19                     20                     21
                      A                      A                      A
 Frequencies --   3119.7992              3126.2783              3198.3566
 Red. masses --      1.1083                 1.1110                 1.1254
 Frc consts  --      6.3555                 6.3978                 6.7831
 IR Inten    --    299.7170                84.3045                73.3125

 - Thermochemistry -
 -------------------
 Temperature   298.150 Kelvin.  Pressure   1.00000 Atm.
 Atom     1 has atomic number  6 and mass  12.00000

 Molecular mass:    64.03130 amu.
 Principal axes and moments of inertia in atomic units:
                           1         2         3
     Eigenvalues --   133.59586 325.90382 420.49490
           X            0.99974   0.00000  -0.02275
           Y           -0.00000   1.00000  -0.00018
           Z            0.02275   0.00018   0.99974
 This molecule is an asymmetric top.
 Rotational symmetry number  1.
 Rotational temperatures (Kelvin)      0.64833     0.26576     0.20598
 Rotational constants (GHZ):          13.50896     5.53765     4.29195
 Zero-point vibrational energy     167832.9 (Joules/Mol)
                                   40.11303 (Kcal/Mol)
 Warning -- explicit consideration of   4 degrees of freedom as
           vibrations may cause significant error
 Vibrational temperatures:    407.57   416.32   557.26   604.82   967.53
          (Kelvin)           1074.01  1206.12  1348.30  1419.03  1453.89
                             1571.58  1597.33  1622.40  1855.05  1923.26
                             2090.66  2226.59  4441.16  4488.69  4498.01
                             4601.72

 Zero-point correction=                           0.063924 (Hartree/Particle)
 Thermal correction to Energy=                    0.068756
 Thermal correction to Enthalpy=                  0.069700
 Thermal correction to Gibbs Free Energy=         0.036897
 Sum of electronic and zero-point Energies=           -191.870664
 Sum of electronic and thermal Energies=              -191.865832
 Sum of electronic and thermal Enthalpies=            -191.864888
 Sum of electronic and thermal Free Energies=         -191.897691

                     E (Thermal)             CV                S
                      KCal/Mol        Cal/Mol-Kelvin    Cal/Mol-Kelvin
 Total                   43.145             16.960             69.040
 Electronic               0.000              0.000              0.000
 Translational            0.889              2.981             38.389
 Rotational               0.889              2.981             24.419
 Vibrational             41.368             10.998              6.232
 Vibration     1          0.682              1.705              1.514
 Vibration     2          0.686              1.694              1.478
 Vibration     3          0.756              1.497              1.010
 Vibration     4          0.783              1.426              0.891

 Optimization completed.
    -- Stationary point found.
 Normal termination of Gaussian 09 at Tue Jul 19 22:17:06 2016.
