 Gaussian 09, Revision E.01,
 Gaussian 09:  EM64L-G09RevE.01 30-Nov-2015

 ------------------------------------------------------
 #p b3lyp/6-311++G(3df,2p) freq IOp(2/17=3) IOp(2/18=3)
 ------------------------------------------------------

 ---------
 b3lyp opt
 ---------
 Symbolic Z-matrix:
 Charge =  2 Multiplicity = 1

                         Standard orientation:
 ---------------------------------------------------------------------
 Center     Atomic      Atomic             Coordinates (Angstroms)
 Number     Number       Type             X           Y           Z
 ---------------------------------------------------------------------
      1          6           0        0.231936    0.707409    0.000000
      2          1           0        1.363673    0.985043    0.000000
      3          6           0        0.000000    2.078156    0.000000
      4          6           0       -0.164102   -0.459618    0.910264
      5          1           0       -0.740824   -0.405101    1.838002
      6          6           0        0.103650   -1.469505   -0.000000
      7          1           0        0.074949   -2.555851   -0.000000
      8          6           0       -0.164102   -0.459618   -0.910264
      9          1           0       -0.740824   -0.405101   -1.838002
 ---------------------------------------------------------------------

 SCF Done:  E(RB3LYP) =  -191.881509355     A.U. after   12 cycles

 The electronic state is 1-A'.
 Alpha  occ. eigenvalues --  -10.81756 -10.75329 -10.75327 -10.72119 -10.70204
 Alpha  occ. eigenvalues --   -1.43652  -1.28522  -1.12775  -1.09221  -1.01667
 Alpha  occ. eigenvalues --   -0.96116  -0.91638  -0.91236  -0.85588  -0.82248
 Alpha  occ. eigenvalues --   -0.77940
 Alpha virt. eigenvalues --   -0.62059  -0.57683  -0.53707  -0.49734  -0.35303
 Alpha virt. eigenvalues --   -0.31201  -0.31005  -0.29846  -0.28041  -0.27275
 Alpha virt. eigenvalues --   -0.26784  -0.24152  -0.23927  -0.22850  -0.22640

 Mulliken charges:
               1
     1  C    0.420877
     2  H    0.295314
     3  C   -0.265328
     4  C    0.175754
     5  H    0.328720
     6  C    0.184251
     7  H    0.355939
     8  C    0.175754
     9  H    0.328720
 Sum of Mulliken charges =   2.00000

 Dipole moment (field-independent basis, Debye):
    X=             -0.1085    Y=             -0.5118    Z=              0.0000  Tot=              0.5232
 Quadrupole moment (field-independent basis, Debye-Ang):
   XX=            -20.8482   YY=             -7.0548   ZZ=            -14.4152
   XY=              1.7954   XZ=             -0.0000   YZ=              0.0000

  Exact polarizability:  29.903   0.615  56.432  -0.000  -0.000  41.130
 Approx polarizability:  48.541  -3.683  95.019  -0.000   0.000  74.207

                      1                      2                      3
                     A'                     A"                     A'
 Frequencies --    137.8518               226.7683               309.0176
 Red. masses --      4.8524                 5.6692                 2.4226
 Frc consts  --      0.0543                 0.1718                 0.1363
 IR Inten    --     28.2941                 4.4725                 4.8367

                      4                      5                      6
                     A'                     A'                     A"
 Frequencies --    635.9077               728.7149               768.6887
 Red. masses --      4.3058                 1.6815                 7.4794
 Frc consts  --      1.0259                 0.5261                 2.6038
 IR Inten    --      6.4045                30.6560                 1.8147

                      7                      8                      9
                     A"                     A'                     A'
 Frequencies --    873.1117               900.8071               991.3143
 Red. masses --      1.0836                 1.4572                 1.4122
 Frc consts  --      0.4867                 0.6967                 0.8176
 IR Inten    --     16.9472                75.7328                 3.1308

                     10                     11                     12
                     A"                     A'                     A"
 Frequencies --   1009.5385              1023.7348              1047.7785
 Red. masses --      1.3990                 1.5805                 1.1314
 Frc consts  --      0.8401                 0.9759                 0.7318
 IR Inten    --      1.9494                12.8063                 5.4670

                     13                     14                     15
                     A'                     A"                     A"
 Frequencies --   1161.4870              1183.7256              1369.0169
 Red. masses --      1.4577                 1.2727                 4.2624
 Frc consts  --      1.1587                 1.0507                 4.7067
 IR Inten    --     11.4737                 2.3956                66.9958

                     16                     17                     18
                     A'                     A'                     A'
 Frequencies --   1388.9982              1486.1054              2496.7103
 Red. masses --      8.6403                 4.5793                 1.0710
 Frc consts  --      9.8216                 5.9586                 3.9335
 IR Inten    --    241.4959               131.3611               193.1379

                     19                     20                     21
                     A'                     A"                     A'
 Frequencies --   3106.9786              3107.2751              3188.3936
 Red. masses --      1.0984                 1.1017                 1.1178
 Frc consts  --      6.2473                 6.2669                 6.6952
 IR Inten    --     55.0112               221.0511               147.2327

 - Thermochemistry -
 -------------------
 Temperature   298.150 Kelvin.  Pressure   1.00000 Atm.
 Atom     1 has atomic number  6 and mass  12.00000

 Molecular mass:    64.03130 amu.
 Principal axes and moments of inertia in atomic units:
                           1         2         3
     Eigenvalues --   110.53384 360.76697 440.89443
           X            0.04019   0.00000   0.99919
           Y            0.99919   0.00000  -0.04019
           Z            0.00000   1.00000  -0.00000
 This molecule is an asymmetric top.
 Rotational symmetry number  1.
 Rotational temperatures (Kelvin)      0.78360     0.24008     0.19645
 Rotational constants (GHZ):          16.32750     5.00251     4.09336
 Zero-point vibrational energy     162344.8 (Joules/Mol)
                                   38.80133 (Kcal/Mol)
 Warning -- explicit consideration of   3 degrees of freedom as
           vibrations may cause significant error
 Vibrational temperatures:    198.34   326.27   444.61   914.93  1048.46
          (Kelvin)           1105.97  1256.21  1296.06  1426.28  1452.50
                             1472.92  1507.52  1671.12  1703.11  1969.71
                             1998.46  2138.17  3592.20  4470.24  4470.67
                             4587.38

 Zero-point correction=                           0.061834 (Hartree/Particle)
 Thermal correction to Energy=                    0.066901
 Thermal correction to Enthalpy=                  0.067845
 Thermal correction to Gibbs Free Energy=         0.034319
 Sum of electronic and zero-point Energies=           -191.819676
 Sum of electronic and thermal Energies=              -191.814608
 Sum of electronic and thermal Enthalpies=            -191.813664
 Sum of electronic and thermal Free Energies=         -191.847190

                     E (Thermal)             CV                S
                      KCal/Mol        Cal/Mol-Kelvin    Cal/Mol-Kelvin
 Total                   41.981             16.995             70.561
 Electronic               0.000              0.000              0.000
 Translational            0.889              2.981             38.389
 Rotational               0.889              2.981             24.379
 Vibrational             40.204             11.033              7.794
 Vibration     1          0.614              1.916              2.833
 Vibration     2          0.650              1.800              1.904
 Vibration     3          0.698              1.657              1.368

 Normal termination of Gaussian 09 at Thu Jan 31 08:02:50 2019.
