 Gaussian 09, Revision E.01,
 Gaussian 09:  EM64L-G09RevE.01 30-Nov-2015

 ---------------------------------------------
 #p b3lyp/6-311++G(3df,2p) freq symmetry=Loose
 ---------------------------------------------

 ---------
 b3lyp opt
 ---------
 Symbolic Z-matrix:
 Charge =  1 Multiplicity = 4

                         Standard orientation:
 ---------------------------------------------------------------------
 Center     Atomic      Atomic             Coordinates (Angstroms)
 Number     Number       Type             X           Y           Z
 ---------------------------------------------------------------------
      1          6           0       -0.583041   -1.482091    0.000000
      2          6           0        0.366460    1.772444    0.000000
      3          1           0       -0.393369    2.544611    0.000000
      4          1           0        1.407195    2.069610    0.000000
      5          6           0        0.000000    0.455130    0.000000
      6          6           0       -1.219462   -0.236685    0.000000
      7          6           0        0.806636   -0.910764    0.000000
      8          1           0        1.381314   -1.101197    0.906490
      9          1           0        1.381314   -1.101197   -0.906490
 ---------------------------------------------------------------------

 SCF Done:  E(UB3LYP) =  -192.413489381     A.U. after   16 cycles

 The electronic state is 4-A".
 Alpha  occ. eigenvalues --  -10.51328 -10.48838 -10.47125 -10.45465 -10.43880
 Alpha  occ. eigenvalues --   -1.16698  -1.00874  -0.91783  -0.83296  -0.71898
 Alpha  occ. eigenvalues --   -0.70985  -0.70011  -0.69668  -0.62510  -0.57478
 Alpha  occ. eigenvalues --   -0.53012  -0.51261  -0.51139
 Alpha virt. eigenvalues --   -0.31486  -0.20192  -0.15584  -0.14110  -0.11951
 Alpha virt. eigenvalues --   -0.11106  -0.10909  -0.09940  -0.08296  -0.06773
 Alpha virt. eigenvalues --   -0.05520  -0.05355  -0.05151  -0.04115  -0.02806

  Beta  occ. eigenvalues --  -10.48988 -10.46916 -10.46842 -10.44724 -10.43553
  Beta  occ. eigenvalues --   -1.13417  -0.98087  -0.89446  -0.79803  -0.70233
  Beta  occ. eigenvalues --   -0.68351  -0.67884  -0.66093  -0.60199  -0.54446
  Beta virt. eigenvalues --   -0.40243  -0.36747  -0.33093  -0.25461  -0.16703
  Beta virt. eigenvalues --   -0.15236  -0.13533  -0.11591  -0.10409  -0.10384
  Beta virt. eigenvalues --   -0.09311  -0.07640  -0.06269  -0.05004  -0.04701

 Mulliken charges and spin densities:
               1          2
     1  C    0.388575   1.275773
     2  C   -0.382946   0.513789
     3  H    0.237339  -0.005122
     4  H    0.239685  -0.012920
     5  C    0.787784   0.022817
     6  C   -0.098369   1.086424
     7  C   -0.631377   0.089624
     8  H    0.229654   0.014807
     9  H    0.229654   0.014807
 Sum of Mulliken charges =   1.00000   3.00000

 Dipole moment (field-independent basis, Debye):
    X=              1.2425    Y=              1.0528    Z=              0.0000  Tot=              1.6286
 Quadrupole moment (field-independent basis, Debye-Ang):
   XX=            -22.0195   YY=            -14.6358   ZZ=            -26.4283
   XY=              0.6695   XZ=             -0.0000   YZ=              0.0000

  Exact polarizability:  49.520   6.615  73.666   0.000  -0.000  32.240
 Approx polarizability:  81.379  17.420 128.253   0.000   0.000  48.213

                      1                      2                      3
                     A"                     A'                     A"
 Frequencies --    180.5392               348.2372               482.9797
 Red. masses --      4.0903                 2.6380                 1.2261
 Frc consts  --      0.0785                 0.1885                 0.1685
 IR Inten    --      2.4917                 2.0481                 1.5973

                      4                      5                      6
                     A"                     A'                     A'
 Frequencies --    534.9846               651.3386               770.6671
 Red. masses --      2.0095                 4.9125                 6.0532
 Frc consts  --      0.3389                 1.2279                 2.1182
 IR Inten    --      2.4852                 7.6713                 2.3625

                      7                      8                      9
                     A"                     A'                     A'
 Frequencies --    934.4792               974.5075              1016.3291
 Red. masses --      1.6213                 2.9872                 2.6257
 Frc consts  --      0.8342                 1.6714                 1.5979
 IR Inten    --      0.0002                 9.8528                19.6130

                     10                     11                     12
                     A"                     A"                     A'
 Frequencies --   1019.6367              1070.0361              1126.6277
 Red. masses --      1.3302                 1.1281                 1.7206
 Frc consts  --      0.8148                 0.7610                 1.2867
 IR Inten    --     16.7692                 1.0124                22.9432

                     13                     14                     15
                     A'                     A'                     A'
 Frequencies --   1230.3204              1327.6825              1438.9610
 Red. masses --      2.2136                 6.9404                 1.2957
 Frc consts  --      1.9742                 7.2081                 1.5807
 IR Inten    --     36.2486                64.5870                 6.6579

                     16                     17                     18
                     A'                     A'                     A'
 Frequencies --   1449.9270              1541.4112              3054.2508
 Red. masses --      1.3174                 3.2050                 1.0533
 Frc consts  --      1.6318                 4.4866                 5.7891
 IR Inten    --     27.5719                16.7915                16.9987

                     19                     20                     21
                     A"                     A'                     A'
 Frequencies --   3126.6177              3140.0541              3247.1387
 Red. masses --      1.1112                 1.0552                 1.1211
 Frc consts  --      6.4001                 6.1299                 6.9648
 IR Inten    --     13.6298                19.2777                14.9041

 - Thermochemistry -
 -------------------
 Temperature   298.150 Kelvin.  Pressure   1.00000 Atm.
 Atom     1 has atomic number  6 and mass  12.00000

 Molecular mass:    64.03130 amu.
 Principal axes and moments of inertia in atomic units:
                           1         2         3
     Eigenvalues --   129.94438 337.15701 455.27183
           X            0.20296   0.97919   0.00000
           Y            0.97919  -0.20296   0.00000
           Z            0.00000  -0.00000   1.00000
 This molecule is an asymmetric top.
 Rotational symmetry number  1.
 Rotational temperatures (Kelvin)      0.66655     0.25689     0.19025
 Rotational constants (GHZ):          13.88857     5.35282     3.96410
 Zero-point vibrational energy     171465.1 (Joules/Mol)
                                   40.98114 (Kcal/Mol)
 Warning -- explicit consideration of   4 degrees of freedom as
           vibrations may cause significant error
 Vibrational temperatures:    259.76   501.04   694.90   769.72   937.13
          (Kelvin)           1108.82  1344.51  1402.10  1462.27  1467.03
                             1539.54  1620.96  1770.15  1910.24  2070.34
                             2086.12  2217.74  4394.38  4498.50  4517.83
                             4671.90

 Zero-point correction=                           0.065308 (Hartree/Particle)
 Thermal correction to Energy=                    0.070001
 Thermal correction to Enthalpy=                  0.070946
 Thermal correction to Gibbs Free Energy=         0.036902
 Sum of electronic and zero-point Energies=           -192.348182
 Sum of electronic and thermal Energies=              -192.343488
 Sum of electronic and thermal Enthalpies=            -192.342544
 Sum of electronic and thermal Free Energies=         -192.376588

                     E (Thermal)             CV                S
                      KCal/Mol        Cal/Mol-Kelvin    Cal/Mol-Kelvin
 Total                   43.927             16.202             71.651
 Electronic               0.000              0.000              2.755
 Translational            0.889              2.981             38.389
 Rotational               0.889              2.981             24.504
 Vibrational             42.149             10.240              6.003
 Vibration     1          0.629              1.866              2.323
 Vibration     2          0.726              1.579              1.174
 Vibration     3          0.839              1.288              0.702
 Vibration     4          0.890              1.173              0.576

 Optimization completed.
    -- Stationary point found.
 Normal termination of Gaussian 09 at Wed Jul 20 19:21:36 2016.
