 Gaussian 09, Revision E.01,
 Gaussian 09:  EM64L-G09RevE.01 30-Nov-2015

 ---------------------------------------------
 #p b3lyp/6-311++G(3df,2p) freq symmetry=Loose
 ---------------------------------------------

 ---------
 b3lyp opt
 ---------
 Symbolic Z-matrix:
 Charge =  1 Multiplicity = 2

                         Standard orientation:
 ---------------------------------------------------------------------
 Center     Atomic      Atomic             Coordinates (Angstroms)
 Number     Number       Type             X           Y           Z
 ---------------------------------------------------------------------
      1          6           0       -0.561842   -0.840035   -0.288627
      2          1           0       -1.216941   -1.520442   -0.810065
      3          6           0       -0.772656   -0.000100    0.882658
      4          6           0       -0.561842    0.840100   -0.288436
      5          1           0       -1.216941    1.520626   -0.809720
      6          6           0        0.880732    0.691061   -0.058651
      7          1           0        1.621567    1.417798    0.245650
      8          6           0        0.880732   -0.691048   -0.058808
      9          1           0        1.621567   -1.417854    0.245328
 ---------------------------------------------------------------------

 SCF Done:  E(UB3LYP) =  -192.468632767     A.U. after   15 cycles

 The electronic state is 2-A.
 Alpha  occ. eigenvalues --  -10.50739 -10.47989 -10.47979 -10.46835 -10.46778
 Alpha  occ. eigenvalues --   -1.23180  -0.97206  -0.93718  -0.81656  -0.77727
 Alpha  occ. eigenvalues --   -0.77036  -0.69070  -0.66509  -0.63535  -0.59185
 Alpha  occ. eigenvalues --   -0.54547  -0.48074
 Alpha virt. eigenvalues --   -0.29571  -0.26497  -0.18784  -0.15000  -0.13950
 Alpha virt. eigenvalues --   -0.12359  -0.11511  -0.10749  -0.08858  -0.08287
 Alpha virt. eigenvalues --   -0.07663  -0.06982  -0.06220  -0.05678  -0.03342

  Beta  occ. eigenvalues --  -10.49869 -10.47543 -10.47536 -10.46801 -10.46744
  Beta  occ. eigenvalues --   -1.22320  -0.96599  -0.92859  -0.80153  -0.77287
  Beta  occ. eigenvalues --   -0.76308  -0.68170  -0.66024  -0.61285  -0.58281
  Beta  occ. eigenvalues --   -0.52649
  Beta virt. eigenvalues --   -0.36912  -0.28210  -0.26163  -0.17140  -0.14735
  Beta virt. eigenvalues --   -0.13825  -0.11644  -0.11285  -0.10615  -0.08620
  Beta virt. eigenvalues --   -0.07986  -0.07452  -0.06511  -0.06113  -0.05409

 Mulliken charges and spin densities:
               1          2
     1  C    0.058440   0.263811
     2  H    0.308824  -0.012009
     3  C   -0.049682   0.463201
     4  C    0.058441   0.263810
     5  H    0.308824  -0.012009
     6  C   -0.068438   0.010132
     7  H    0.226015   0.006466
     8  C   -0.068438   0.010131
     9  H    0.226015   0.006466
 Sum of Mulliken charges =   1.00000   1.00000

 Dipole moment (field-independent basis, Debye):
    X=              0.4994    Y=              0.0001    Z=             -1.2308  Tot=              1.3283
 Quadrupole moment (field-independent basis, Debye-Ang):
   XX=            -18.9350   YY=            -18.4822   ZZ=            -27.4051
   XY=             -0.0003   XZ=              2.9189   YZ=              0.0010

  Exact polarizability:  49.670   0.000  46.270  -3.144   0.001  38.912
 Approx polarizability:  91.709   0.002  78.975 -17.866   0.001  70.967

                      1                      2                      3
                      A                      A                      A
 Frequencies --    280.2019               343.2727               627.1399
 Red. masses --      4.0149                 2.6449                 4.1036
 Frc consts  --      0.1857                 0.1836                 0.9509
 IR Inten    --     12.1733                 0.7123                 0.7182

                      4                      5                      6
                      A                      A                      A
 Frequencies --    725.5409               783.3774               853.0654
 Red. masses --      7.1189                 1.1916                 1.4918
 Frc consts  --      2.2079                 0.4308                 0.6396
 IR Inten    --      0.0366                36.8128                 3.5104

                      7                      8                      9
                      A                      A                      A
 Frequencies --    903.6714               932.7424               983.1745
 Red. masses --      1.5616                 1.6512                 1.7038
 Frc consts  --      0.7513                 0.8464                 0.9704
 IR Inten    --    111.7415                 0.0009                 1.6955

                     10                     11                     12
                      A                      A                      A
 Frequencies --   1011.7981              1027.4211              1083.5009
 Red. masses --      1.4801                 2.5886                 1.2160
 Frc consts  --      0.8928                 1.6100                 0.8411
 IR Inten    --      1.0023                16.1331                 3.7288

                     13                     14                     15
                      A                      A                      A
 Frequencies --   1134.6515              1156.8886              1260.3051
 Red. masses --      1.9612                 1.4730                 5.9327
 Frc consts  --      1.4877                 1.1616                 5.5521
 IR Inten    --      1.0723                 0.0126                 3.4467

                     16                     17                     18
                      A                      A                      A
 Frequencies --   1344.6050              1469.4098              3208.1259
 Red. masses --      2.0741                 4.4787                 1.0916
 Frc consts  --      2.2094                 5.6975                 6.6196
 IR Inten    --     30.2086                52.4499                12.9582

                     19                     20                     21
                      A                      A                      A
 Frequencies --   3225.5595              3241.2340              3247.9330
 Red. masses --      1.1058                 1.0991                 1.1054
 Frc consts  --      6.7788                 6.8029                 6.8707
 IR Inten    --     37.0537                71.1465                39.3012

 - Thermochemistry -
 -------------------
 Temperature   298.150 Kelvin.  Pressure   1.00000 Atm.
 Atom     1 has atomic number  6 and mass  12.00000

 Molecular mass:    64.03130 amu.
 Principal axes and moments of inertia in atomic units:
                           1         2         3
     Eigenvalues --   177.50854 194.57095 282.11140
           X            0.99560  -0.00000   0.09367
           Y            0.00001   1.00000  -0.00011
           Z           -0.09367   0.00011   0.99560
 This molecule is an asymmetric top.
 Rotational symmetry number  1.
 Rotational temperatures (Kelvin)      0.48794     0.44515     0.30702
 Rotational constants (GHZ):          10.16707     9.27549     6.39726
 Zero-point vibrational energy     172523.2 (Joules/Mol)
                                   41.23402 (Kcal/Mol)
 Warning -- explicit consideration of   2 degrees of freedom as
           vibrations may cause significant error
 Vibrational temperatures:    403.15   493.89   902.31  1043.89  1127.10
          (Kelvin)           1227.37  1300.18  1342.01  1414.57  1455.75
                             1478.23  1558.91  1632.51  1664.50  1813.30
                             1934.58  2114.15  4615.77  4640.85  4663.41
                             4673.05

 Zero-point correction=                           0.065711 (Hartree/Particle)
 Thermal correction to Energy=                    0.070059
 Thermal correction to Enthalpy=                  0.071003
 Thermal correction to Gibbs Free Energy=         0.038631
 Sum of electronic and zero-point Energies=           -192.402922
 Sum of electronic and thermal Energies=              -192.398574
 Sum of electronic and thermal Enthalpies=            -192.397630
 Sum of electronic and thermal Free Energies=         -192.430002

                     E (Thermal)             CV                S
                      KCal/Mol        Cal/Mol-Kelvin    Cal/Mol-Kelvin
 Total                   43.962             15.484             68.132
 Electronic               0.000              0.000              1.377
 Translational            0.889              2.981             38.389
 Rotational               0.889              2.981             23.792
 Vibrational             42.185              9.522              4.573
 Vibration     1          0.680              1.710              1.532
 Vibration     2          0.722              1.589              1.197

 Optimization completed.
    -- Stationary point found.
 Normal termination of Gaussian 09 at Wed Jul 20 08:57:29 2016.
