 Gaussian 09, Revision E.01,
 Gaussian 09:  EM64L-G09RevE.01 30-Nov-2015

 ---------------------------------------------
 #p b3lyp/6-311++G(3df,2p) freq symmetry=Loose
 ---------------------------------------------

 ---------
 b3lyp opt
 ---------
 Symbolic Z-matrix:
 Charge =  1 Multiplicity = 4

                         Standard orientation:
 ---------------------------------------------------------------------
 Center     Atomic      Atomic             Coordinates (Angstroms)
 Number     Number       Type             X           Y           Z
 ---------------------------------------------------------------------
      1          6           0       -0.374827    1.195547    0.000014
      2          6           0        0.472860    0.130013   -0.000236
      3          6           0        1.822383   -0.422069   -0.000278
      4          1           0        1.940976   -1.077112   -0.868067
      5          1           0        2.578372    0.358341   -0.011512
      6          1           0        1.947334   -1.055638    0.882406
      7          6           0       -0.911106   -0.073090    0.000060
      8          6           0       -1.999713   -0.912252   -0.000024
      9          1           0       -0.524260    2.265516   -0.000046
 ---------------------------------------------------------------------

 SCF Done:  E(UB3LYP) =  -192.410326303     A.U. after   15 cycles

 The electronic state is 4-A.
 Alpha  occ. eigenvalues --  -10.50226 -10.49341 -10.48762 -10.47460 -10.38658
 Alpha  occ. eigenvalues --   -1.19378  -0.99180  -0.96330  -0.81945  -0.73595
 Alpha  occ. eigenvalues --   -0.68250  -0.67610  -0.64321  -0.62174  -0.60701
 Alpha  occ. eigenvalues --   -0.57714  -0.49948  -0.46277
 Alpha virt. eigenvalues --   -0.26546  -0.21596  -0.15803  -0.12784  -0.11621
 Alpha virt. eigenvalues --   -0.10424  -0.09907  -0.08596  -0.08220  -0.07194
 Alpha virt. eigenvalues --   -0.06115  -0.05840  -0.04642  -0.03621  -0.02392

  Beta  occ. eigenvalues --  -10.49154 -10.48414 -10.47034 -10.45790 -10.38647
  Beta  occ. eigenvalues --   -1.18259  -0.96678  -0.91257  -0.80915  -0.72366
  Beta  occ. eigenvalues --   -0.66362  -0.66073  -0.61152  -0.59282  -0.57874
  Beta virt. eigenvalues --   -0.38988  -0.35641  -0.27582  -0.24885  -0.15776
  Beta virt. eigenvalues --   -0.15636  -0.12469  -0.11277  -0.10079  -0.09679
  Beta virt. eigenvalues --   -0.08134  -0.07499  -0.06665  -0.05269  -0.05221

 Mulliken charges and spin densities:
               1          2
     1  C    0.079347   0.259946
     2  C   -0.035848   0.257814
     3  C   -0.302421   0.009505
     4  H    0.204693   0.007064
     5  H    0.192860   0.005694
     6  H    0.205469   0.007177
     7  C    0.409264  -0.054668
     8  C   -0.063997   2.499926
     9  H    0.310633   0.007541
 Sum of Mulliken charges =   1.00000   3.00000

 Dipole moment (field-independent basis, Debye):
    X=              0.0157    Y=              0.7872    Z=              0.0036  Tot=              0.7874
 Quadrupole moment (field-independent basis, Debye-Ang):
   XX=            -15.0161   YY=            -19.0645   ZZ=            -26.1976
   XY=             -0.4120   XZ=              0.0077   YZ=             -0.0023

  Exact polarizability:  65.057   4.339  48.993   0.014  -0.004  31.182
 Approx polarizability:  92.813  10.741  77.283   0.032  -0.013  45.757

                      1                      2                      3
                      A                      A                      A
 Frequencies --     47.7059               238.8844               304.3378
 Red. masses --      1.0764                 3.9471                 2.7709
 Frc consts  --      0.0014                 0.1327                 0.1512
 IR Inten    --      2.2333                 0.4155                 9.8517

                      4                      5                      6
                      A                      A                      A
 Frequencies --    492.5239               538.9037               766.4674
 Red. masses --      3.3589                 4.7160                 4.7344
 Frc consts  --      0.4801                 0.8069                 1.6387
 IR Inten    --      2.2471                 0.5441                 0.0408

                      7                      8                      9
                      A                      A                      A
 Frequencies --    878.7232               878.9933              1025.3839
 Red. masses --      1.9238                 1.4511                 1.6271
 Frc consts  --      0.8752                 0.6606                 1.0080
 IR Inten    --      4.7216                 9.7665                10.2852

                     10                     11                     12
                      A                      A                      A
 Frequencies --   1035.1062              1068.0619              1231.9007
 Red. masses --      1.6202                 2.3393                 4.5600
 Frc consts  --      1.0228                 1.5722                 4.0772
 IR Inten    --     11.1557                21.7627                19.7229

                     13                     14                     15
                      A                      A                      A
 Frequencies --   1383.1259              1419.9399              1450.6813
 Red. masses --      1.1805                 3.1454                 1.0422
 Frc consts  --      1.3306                 3.7365                 1.2922
 IR Inten    --     41.9499                81.3729                15.7787

                     16                     17                     18
                      A                      A                      A
 Frequencies --   1469.9875              1746.1745              3023.9222
 Red. masses --      1.3983                 8.3785                 1.0370
 Frc consts  --      1.7802                15.0519                 5.5871
 IR Inten    --     43.7692                30.6577                34.6699

                     19                     20                     21
                      A                      A                      A
 Frequencies --   3074.0609              3144.4712              3238.4061
 Red. masses --      1.0968                 1.1024                 1.1166
 Frc consts  --      6.1067                 6.4221                 6.8994
 IR Inten    --      9.0568                 4.9826                54.8307

 - Thermochemistry -
 -------------------
 Temperature   298.150 Kelvin.  Pressure   1.00000 Atm.
 Atom     1 has atomic number  6 and mass  12.00000

 Molecular mass:    64.03130 amu.
 Principal axes and moments of inertia in atomic units:
                           1         2         3
     Eigenvalues --   137.27791 421.39701 547.64529
           X            0.99851  -0.05451   0.00004
           Y            0.05451   0.99851  -0.00002
           Z           -0.00003   0.00003   1.00000
 This molecule is an asymmetric top.
 Rotational symmetry number  1.
 Rotational temperatures (Kelvin)      0.63094     0.20554     0.15816
 Rotational constants (GHZ):          13.14663     4.28276     3.29546
 Zero-point vibrational energy     170215.2 (Joules/Mol)
                                   40.68241 (Kcal/Mol)
 Warning -- explicit consideration of   5 degrees of freedom as
           vibrations may cause significant error
 Vibrational temperatures:     68.64   343.70   437.87   708.63   775.36
          (Kelvin)           1102.77  1264.29  1264.67  1475.30  1489.29
                             1536.70  1772.43  1990.01  2042.97  2087.20
                             2114.98  2512.35  4350.74  4422.88  4524.19
                             4659.34

 Zero-point correction=                           0.064832 (Hartree/Particle)
 Thermal correction to Energy=                    0.070190
 Thermal correction to Enthalpy=                  0.071134
 Thermal correction to Gibbs Free Energy=         0.034859
 Sum of electronic and zero-point Energies=           -192.345495
 Sum of electronic and thermal Energies=              -192.340137
 Sum of electronic and thermal Enthalpies=            -192.339192
 Sum of electronic and thermal Free Energies=         -192.375468

                     E (Thermal)             CV                S
                      KCal/Mol        Cal/Mol-Kelvin    Cal/Mol-Kelvin
 Total                   44.045             17.182             76.348
 Electronic               0.000              0.000              2.755
 Translational            0.889              2.981             38.389
 Rotational               0.889              2.981             24.964
 Vibrational             42.267             11.221             10.240
 Vibration     1          0.595              1.978              4.910
 Vibration     2          0.657              1.781              1.811
 Vibration     3          0.695              1.665              1.393
 Vibration     4          0.848              1.267              0.677
 Vibration     5          0.894              1.164              0.568

 Normal termination of Gaussian 09 at Mon Jun 20 06:09:34 2016.
