 Gaussian 09, Revision E.01,
 Gaussian 09:  EM64L-G09RevE.01 30-Nov-2015

 ---------------------------------------------
 #p b3lyp/6-311++G(3df,2p) freq symmetry=Loose
 ---------------------------------------------

 ---------
 b3lyp opt
 ---------
 Symbolic Z-matrix:
 Charge =  2 Multiplicity = 3

                         Standard orientation:
 ---------------------------------------------------------------------
 Center     Atomic      Atomic             Coordinates (Angstroms)
 Number     Number       Type             X           Y           Z
 ---------------------------------------------------------------------
      1          6           0        0.335602   -0.653045    0.000000
      2          1           0        1.431805   -0.935910    0.000000
      3          6           0       -0.103629   -2.057834    0.000000
      4          1           0       -0.058772    2.530430   -0.000000
      5          6           0       -0.122942    0.437713   -0.952643
      6          1           0       -0.644892    0.374897   -1.909908
      7          6           0       -0.000000    1.444733   -0.000000
      8          6           0       -0.122942    0.437713    0.952643
      9          1           0       -0.644892    0.374897    1.909908
 ---------------------------------------------------------------------

 SCF Done:  E(UB3LYP) =  -191.838655017     A.U. after   16 cycles

 The electronic state is 3-A".
 Alpha  occ. eigenvalues --  -10.82393 -10.73628 -10.72769 -10.72768 -10.68477
 Alpha  occ. eigenvalues --   -1.41598  -1.26125  -1.12184  -1.07574  -1.00452
 Alpha  occ. eigenvalues --   -0.96957  -0.90831  -0.90267  -0.86370  -0.85239
 Alpha  occ. eigenvalues --   -0.78157  -0.73692
 Alpha virt. eigenvalues --   -0.61106  -0.54949  -0.47746  -0.33644  -0.31626
 Alpha virt. eigenvalues --   -0.30603  -0.29598  -0.27293  -0.26477  -0.25926
 Alpha virt. eigenvalues --   -0.24090  -0.23570  -0.23234  -0.21523  -0.19727

  Beta  occ. eigenvalues --  -10.79267 -10.73395 -10.72583 -10.72582 -10.68371
  Beta  occ. eigenvalues --   -1.40831  -1.22520  -1.11654  -1.04890  -0.99899
  Beta  occ. eigenvalues --   -0.95146  -0.89483  -0.88631  -0.84476  -0.79080
  Beta virt. eigenvalues --   -0.66252  -0.56891  -0.56437  -0.52926  -0.47028
  Beta virt. eigenvalues --   -0.33291  -0.30004  -0.29911  -0.29352  -0.27061
  Beta virt. eigenvalues --   -0.26241  -0.25344  -0.23483  -0.23115  -0.22642

 Mulliken charges and spin densities:
               1          2
     1  C    0.343495   0.038188
     2  H    0.291595   0.010089
     3  C    0.001638   1.695849
     4  H    0.353411   0.010011
     5  C    0.026496   0.091421
     6  H    0.322110   0.003356
     7  C    0.312648   0.056309
     8  C    0.026496   0.091421
     9  H    0.322110   0.003356
 Sum of Mulliken charges =   2.00000   2.00000

 Dipole moment (field-independent basis, Debye):
    X=             -0.0551    Y=             -1.2046    Z=              0.0000  Tot=              1.2059
 Quadrupole moment (field-independent basis, Debye-Ang):
   XX=            -20.6806   YY=             -2.2626   ZZ=            -14.9515
   XY=             -1.8596   XZ=              0.0000   YZ=              0.0000

  Exact polarizability:  29.622   1.453  73.717   0.000   0.000  41.299
 Approx polarizability:  48.446   9.345 131.443  -0.000  -0.000  73.718

                      1                      2                      3
                     A'                     A'                     A"
 Frequencies --    221.5637               358.5263               359.3768
 Red. masses --      3.6362                 2.5826                 4.6938
 Frc consts  --      0.1052                 0.1956                 0.3572
 IR Inten    --      0.4220                14.5402                 0.2758

                      4                      5                      6
                     A'                     A'                     A"
 Frequencies --    651.3658               680.2714               831.7048
 Red. masses --      4.3146                 2.2783                 1.4048
 Frc consts  --      1.0785                 0.6212                 0.5725
 IR Inten    --     16.0828                36.3111                 7.5903

                      7                      8                      9
                     A"                     A'                     A'
 Frequencies --    912.1230               931.9482               978.2753
 Red. masses --      2.9337                 1.7169                 1.6622
 Frc consts  --      1.4381                 0.8786                 0.9372
 IR Inten    --     16.0350                43.2862                27.0780

                     10                     11                     12
                     A"                     A'                     A"
 Frequencies --   1013.4717              1037.0646              1050.8754
 Red. masses --      1.3264                 2.5630                 1.1772
 Frc consts  --      0.8027                 1.6241                 0.7659
 IR Inten    --      2.4774                10.7628                12.1018

                     13                     14                     15
                     A'                     A'                     A"
 Frequencies --   1089.3641              1181.1087              1188.5137
 Red. masses --      1.2439                 1.8328                 1.3493
 Frc consts  --      0.8697                 1.5064                 1.1230
 IR Inten    --     31.8009                31.0800                 0.8929

                     16                     17                     18
                     A"                     A'                     A'
 Frequencies --   1345.1541              1447.3190              2718.4298
 Red. masses --      3.9996                 4.1471                 1.0790
 Frc consts  --      4.2639                 5.1182                 4.6979
 IR Inten    --    103.5886                84.9780               204.7362

                     19                     20                     21
                     A'                     A"                     A'
 Frequencies --   3123.8950              3126.8555              3175.2370
 Red. masses --      1.0969                 1.1017                 1.1167
 Frc consts  --      6.3068                 6.3466                 6.6333
 IR Inten    --     42.3368               183.4499               197.8296

 - Thermochemistry -
 -------------------
 Temperature   298.150 Kelvin.  Pressure   1.00000 Atm.
 Atom     1 has atomic number  6 and mass  12.00000

 Molecular mass:    64.03130 amu.
 Principal axes and moments of inertia in atomic units:
                           1         2         3
     Eigenvalues --   120.54895 349.48130 437.00604
           X           -0.03787   0.00000   0.99928
           Y            0.99928   0.00000   0.03787
           Z            0.00000   1.00000   0.00000
 This molecule is an asymmetric top.
 Rotational symmetry number  1.
 Rotational temperatures (Kelvin)      0.71849     0.24784     0.19820
 Rotational constants (GHZ):          14.97102     5.16406     4.12979
 Zero-point vibrational energy     164022.6 (Joules/Mol)
                                   39.20235 (Kcal/Mol)
 Warning -- explicit consideration of   3 degrees of freedom as
           vibrations may cause significant error
 Vibrational temperatures:    318.78   515.84   517.06   937.17   978.76
          (Kelvin)           1196.64  1312.34  1340.86  1407.52  1458.16
                             1492.10  1511.97  1567.35  1699.35  1710.00
                             1935.37  2082.37  3911.21  4494.58  4498.84
                             4568.45

 Zero-point correction=                           0.062473 (Hartree/Particle)
 Thermal correction to Energy=                    0.067174
 Thermal correction to Enthalpy=                  0.068118
 Thermal correction to Gibbs Free Energy=         0.034444
 Sum of electronic and zero-point Energies=           -191.776182
 Sum of electronic and thermal Energies=              -191.771481
 Sum of electronic and thermal Enthalpies=            -191.770537
 Sum of electronic and thermal Free Energies=         -191.804211

                     E (Thermal)             CV                S
                      KCal/Mol        Cal/Mol-Kelvin    Cal/Mol-Kelvin
 Total                   42.152             16.583             70.873
 Electronic               0.000              0.000              2.183
 Translational            0.889              2.981             38.389
 Rotational               0.889              2.981             24.424
 Vibrational             40.375             10.621              5.876
 Vibration     1          0.648              1.808              1.946
 Vibration     2          0.733              1.558              1.128
 Vibration     3          0.734              1.556              1.125

 Normal termination of Gaussian 09 at Wed Jul 20 06:26:36 2016.
