 Gaussian 09, Revision E.01,
 Gaussian 09:  EM64L-G09RevE.01 30-Nov-2015

 ---------------------------------------------
 #p b3lyp/6-311++G(3df,2p) freq symmetry=Loose
 ---------------------------------------------

 ---------
 b3lyp opt
 ---------
 Symbolic Z-matrix:
 Charge =  3 Multiplicity = 4

                         Standard orientation:
 ---------------------------------------------------------------------
 Center     Atomic      Atomic             Coordinates (Angstroms)
 Number     Number       Type             X           Y           Z
 ---------------------------------------------------------------------
      1          6           0        0.685897   -1.066038   -0.188818
      2          6           0        1.691479   -0.144773    0.268133
      3          6           0       -0.325625   -0.038149   -0.061936
      4          6           0        0.775273    0.926523   -0.066753
      5          1           0        0.911831    1.992909   -0.351302
      6          6           0       -1.783934   -0.104826    0.042964
      7          1           0       -2.454916    0.731620    0.683271
      8          1           0       -2.383500    0.900877   -0.357832
      9          1           0       -2.331956   -1.061831    0.064323
 ---------------------------------------------------------------------

 SCF Done:  E(UB3LYP) =  -190.984392601     A.U. after   15 cycles

 The electronic state is 4-A.
 Alpha  occ. eigenvalues --  -11.03503 -11.03378 -11.01383 -10.99802 -10.98446
 Alpha  occ. eigenvalues --   -1.68617  -1.51386  -1.37809  -1.36484  -1.24575
 Alpha  occ. eigenvalues --   -1.19386  -1.18370  -1.13364  -1.12521  -1.04777
 Alpha  occ. eigenvalues --   -1.02703  -1.00262
 Alpha virt. eigenvalues --   -0.82245  -0.81967  -0.67911  -0.62264  -0.56413
 Alpha virt. eigenvalues --   -0.54423  -0.52878  -0.49134  -0.47288  -0.46498
 Alpha virt. eigenvalues --   -0.45390  -0.41931  -0.41379  -0.40352  -0.39189

  Beta  occ. eigenvalues --  -11.01346 -11.01272 -11.01170 -10.99517 -10.97293
  Beta  occ. eigenvalues --   -1.66339  -1.47930  -1.35350  -1.33536  -1.21892
  Beta  occ. eigenvalues --   -1.17306  -1.15454  -1.11656  -1.09732
  Beta virt. eigenvalues --   -0.91253  -0.84638  -0.81248  -0.78733  -0.77135
  Beta virt. eigenvalues --   -0.63513  -0.60528  -0.54297  -0.52726  -0.50188
  Beta virt. eigenvalues --   -0.48023  -0.45945  -0.45324  -0.43650  -0.41394

 Mulliken charges and spin densities:
               1          2
     1  C    0.421447   0.964765
     2  C    0.452396   1.073094
     3  C    0.688288  -0.005032
     4  C    0.213756   0.093741
     5  H    0.390119   0.029650
     6  C   -0.181740   0.701029
     7  H    0.334471   0.087791
     8  H    0.321458   0.066157
     9  H    0.359805  -0.011195
 Sum of Mulliken charges =   3.00000   3.00000

 Dipole moment (field-independent basis, Debye):
    X=             -4.7763    Y=              2.5173    Z=              0.3444  Tot=              5.4100
 Quadrupole moment (field-independent basis, Debye-Ang):
   XX=             20.5141   YY=             -7.7784   ZZ=            -20.8379
   XY=             -2.6940   XZ=             -1.4197   YZ=             -0.4880

  Exact polarizability:  62.598  -1.806  39.876  -0.001  -0.160  24.309
 Approx polarizability: 107.282  -3.855  73.528   3.109   0.969  37.971

                      1                      2                      3
                      A                      A                      A
 Frequencies --    170.5234               222.5889               356.6452
 Red. masses --      1.1134                 5.0492                 2.4184
 Frc consts  --      0.0191                 0.1474                 0.1812
 IR Inten    --     28.1103                 8.6544                17.6561

                      4                      5                      6
                      A                      A                      A
 Frequencies --    424.6328               482.4086               650.0028
 Red. masses --      1.6655                 1.4940                 3.6354
 Frc consts  --      0.1769                 0.2049                 0.9050
 IR Inten    --     10.0603                29.1468                53.8232

                      7                      8                      9
                      A                      A                      A
 Frequencies --    767.5735               789.6971               847.4803
 Red. masses --      1.8098                 1.8032                 2.8141
 Frc consts  --      0.6282                 0.6625                 1.1908
 IR Inten    --     38.5290                31.2895                14.2062

                     10                     11                     12
                      A                      A                      A
 Frequencies --    956.2693              1046.3167              1066.0588
 Red. masses --      1.8487                 2.9991                 2.2742
 Frc consts  --      0.9960                 1.9345                 1.5228
 IR Inten    --     25.3104                 8.3664                24.3736

                     13                     14                     15
                      A                      A                      A
 Frequencies --   1156.0410              1204.9904              1245.4678
 Red. masses --      1.4820                 2.9185                 4.0248
 Frc consts  --      1.1669                 2.4968                 3.6784
 IR Inten    --    394.5007               212.6241                35.8078

                     16                     17                     18
                      A                      A                      A
 Frequencies --   1340.8323              1480.4733              1783.7729
 Red. masses --      3.1339                 1.2446                 1.0280
 Frc consts  --      3.3195                 1.6073                 1.9272
 IR Inten    --      7.7602                63.0894               248.1084

                     19                     20                     21
                      A                      A                      A
 Frequencies --   2277.5825              2927.7791              3002.4618
 Red. masses --      1.0848                 1.1057                 1.0959
 Frc consts  --      3.3154                 5.5843                 5.8208
 IR Inten    --    412.4055               360.7232               247.6391

 - Thermochemistry -
 -------------------
 Temperature   298.150 Kelvin.  Pressure   1.00000 Atm.
 Atom     1 has atomic number  6 and mass  12.00000

 Molecular mass:    64.03130 amu.
 Principal axes and moments of inertia in atomic units:
                           1         2         3
     Eigenvalues --   117.34079 379.59253 481.84881
           X            0.99992   0.00101  -0.01264
           Y           -0.00127   0.99979  -0.02047
           Z            0.01262   0.02048   0.99971
 This molecule is an asymmetric top.
 Rotational symmetry number  1.
 Rotational temperatures (Kelvin)      0.73814     0.22818     0.17975
 Rotational constants (GHZ):          15.38034     4.75442     3.74545
 Zero-point vibrational energy     144745.7 (Joules/Mol)
                                   34.59506 (Kcal/Mol)
 Warning -- explicit consideration of   5 degrees of freedom as
           vibrations may cause significant error
 Vibrational temperatures:    245.34   320.26   513.13   610.95   694.08
          (Kelvin)            935.21  1104.37  1136.20  1219.33  1375.86
                             1505.41  1533.82  1663.28  1733.71  1791.95
                             1929.16  2130.07  2566.45  3276.93  4212.42
                             4319.87

 Zero-point correction=                           0.055131 (Hartree/Particle)
 Thermal correction to Energy=                    0.060515
 Thermal correction to Enthalpy=                  0.061459
 Thermal correction to Gibbs Free Energy=         0.026193
 Sum of electronic and zero-point Energies=           -190.929262
 Sum of electronic and thermal Energies=              -190.923878
 Sum of electronic and thermal Enthalpies=            -190.922933
 Sum of electronic and thermal Free Energies=         -190.958200

                     E (Thermal)             CV                S
                      KCal/Mol        Cal/Mol-Kelvin    Cal/Mol-Kelvin
 Total                   37.974             18.714             74.224
 Electronic               0.000              0.000              2.755
 Translational            0.889              2.981             38.389
 Rotational               0.889              2.981             24.577
 Vibrational             36.196             12.752              8.503
 Vibration     1          0.626              1.879              2.430
 Vibration     2          0.648              1.807              1.938
 Vibration     3          0.732              1.562              1.137
 Vibration     4          0.787              1.417              0.876
 Vibration     5          0.839              1.289              0.704

 Optimization completed.
    -- Stationary point found.
 Normal termination of Gaussian 09 at Mon Jun 20 12:37:32 2016.
