 Gaussian 09, Revision E.01,
 Gaussian 09:  EM64L-G09RevE.01 30-Nov-2015

 ------------------------------------------------------
 #p b3lyp/6-311++G(3df,2p) freq IOp(2/17=3) IOp(2/18=3)
 ------------------------------------------------------

 ---------
 b3lyp opt
 ---------
 Symbolic Z-matrix:
 Charge =  1 Multiplicity = 2

                         Standard orientation:
 ---------------------------------------------------------------------
 Center     Atomic      Atomic             Coordinates (Angstroms)
 Number     Number       Type             X           Y           Z
 ---------------------------------------------------------------------
      1          6           0       -0.372425    0.114662   -1.408858
      2          1           0       -0.577207   -0.611337   -2.187976
      3          1           0       -0.635739    1.139820   -1.660441
      4          6           0        0.884257   -0.013858   -0.624606
      5          6           0        0.884257   -0.013858    0.624606
      6          6           0       -0.619348   -0.377486    0.000000
      7          6           0       -0.372425    0.114662    1.408858
      8          1           0       -0.635739    1.139820    1.660441
      9          1           0       -0.577207   -0.611337    2.187976
 ---------------------------------------------------------------------

 SCF Done:  E(UB3LYP) =  -192.438621131     A.U. after   13 cycles

 The electronic state is 2-A'.
 Alpha  occ. eigenvalues --  -10.51544 -10.48931 -10.48770 -10.47755 -10.47754
 Alpha  occ. eigenvalues --   -1.22922  -1.03076  -0.94381  -0.81295  -0.74770
 Alpha  occ. eigenvalues --   -0.74336  -0.70067  -0.68975  -0.64848  -0.58135
 Alpha  occ. eigenvalues --   -0.55970  -0.47176
 Alpha virt. eigenvalues --   -0.33329  -0.23140  -0.20927  -0.16360  -0.13999
 Alpha virt. eigenvalues --   -0.12785  -0.12391  -0.10249  -0.10103  -0.08719
 Alpha virt. eigenvalues --   -0.07128  -0.05705  -0.04925  -0.04794  -0.03416

  Beta  occ. eigenvalues --  -10.49985 -10.48836 -10.48676 -10.47717 -10.47716
  Beta  occ. eigenvalues --   -1.21960  -1.02749  -0.93711  -0.79596  -0.74546
  Beta  occ. eigenvalues --   -0.72790  -0.69326  -0.68543  -0.64264  -0.57320
  Beta  occ. eigenvalues --   -0.54359
  Beta virt. eigenvalues --   -0.33026  -0.32215  -0.22593  -0.19599  -0.16136
  Beta virt. eigenvalues --   -0.13351  -0.12707  -0.12250  -0.10148  -0.09932
  Beta virt. eigenvalues --   -0.08669  -0.07029  -0.05491  -0.04868  -0.04284

 Mulliken charges and spin densities:
               1          2
     1  C   -0.250783  -0.001356
     2  H    0.233979   0.006862
     3  H    0.248938   0.013366
     4  C    0.150130   0.049387
     5  C    0.150130   0.049387
     6  C    0.235473   0.863481
     7  C   -0.250783  -0.001356
     8  H    0.248938   0.013366
     9  H    0.233979   0.006862
 Sum of Mulliken charges =   1.00000   1.00000

 Dipole moment (field-independent basis, Debye):
    X=             -0.9605    Y=              0.7981    Z=             -0.0000  Tot=              1.2488
 Quadrupole moment (field-independent basis, Debye-Ang):
   XX=            -25.0363   YY=            -25.0894   ZZ=            -14.2622
   XY=             -0.5095   XZ=             -0.0000   YZ=              0.0000

  Exact polarizability:  41.798   0.537  33.021  -0.000  -0.000  55.307
 Approx polarizability:  80.148   3.886  48.971   0.000   0.000  97.402

                      1                      2                      3
                     A"                     A'                     A"
 Frequencies --    243.7660               291.2893               527.1479
 Red. masses --      4.0477                 2.4324                10.2853
 Frc consts  --      0.1417                 0.1216                 1.6840
 IR Inten    --     27.4796                 6.5487                19.8308

                      4                      5                      6
                     A'                     A'                     A"
 Frequencies --    580.6605               625.2597               884.7728
 Red. masses --      4.7080                 8.7680                 8.3954
 Frc consts  --      0.9353                 2.0196                 3.8722
 IR Inten    --     22.6314                 1.3179                 1.7081

                      7                      8                      9
                     A"                     A"                     A'
 Frequencies --    956.6135               994.2600              1006.0587
 Red. masses --      1.1432                 1.2730                 1.6888
 Frc consts  --      0.6164                 0.7415                 1.0071
 IR Inten    --      0.0143                10.4488                 6.8391

                     10                     11                     12
                     A'                     A'                     A'
 Frequencies --   1038.2780              1064.2808              1151.4655
 Red. masses --      2.0856                 1.5355                 1.2139
 Frc consts  --      1.3246                 1.0247                 0.9483
 IR Inten    --      7.7411                 5.6041                33.0054

                     13                     14                     15
                     A"                     A"                     A"
 Frequencies --   1157.6167              1231.6702              1458.1140
 Red. masses --      1.2207                 6.2870                 1.0962
 Frc consts  --      0.9638                 5.6193                 1.3731
 IR Inten    --      0.3167                30.9282                 9.4143

                     16                     17                     18
                     A'                     A'                     A'
 Frequencies --   1466.0341              1970.5214              3091.9566
 Red. masses --      1.1121                11.1019                 1.0563
 Frc consts  --      1.4083                25.3985                 5.9497
 IR Inten    --      3.5976                12.2509                 7.8227

                     19                     20                     21
                     A"                     A"                     A'
 Frequencies --   3095.6174              3185.8291              3186.1584
 Red. masses --      1.0568                 1.1138                 1.1143
 Frc consts  --      5.9669                 6.6603                 6.6650
 IR Inten    --     20.6487                 5.6146                36.2653

 - Thermochemistry -
 -------------------
 Temperature   298.150 Kelvin.  Pressure   1.00000 Atm.
 Atom     1 has atomic number  6 and mass  12.00000

 Molecular mass:    64.03130 amu.
 Principal axes and moments of inertia in atomic units:
                           1         2         3
     Eigenvalues --   119.55408 276.99152 358.27424
           X            0.00000   0.99942  -0.03414
           Y            0.00000   0.03414   0.99942
           Z            1.00000   0.00000  -0.00000
 This molecule is an asymmetric top.
 Rotational symmetry number  1.
 Rotational temperatures (Kelvin)      0.72447     0.31269     0.24175
 Rotational constants (GHZ):          15.09560     6.51551     5.03732
 Zero-point vibrational energy     174698.9 (Joules/Mol)
                                   41.75403 (Kcal/Mol)
 Warning -- explicit consideration of   4 degrees of freedom as
           vibrations may cause significant error
 Vibrational temperatures:    350.72   419.10   758.45   835.44   899.61
          (Kelvin)           1272.99  1376.35  1430.52  1447.49  1493.85
                             1531.26  1656.70  1665.55  1772.10  2097.90
                             2109.29  2835.14  4448.63  4453.90  4583.69
                             4584.17

 Zero-point correction=                           0.066539 (Hartree/Particle)
 Thermal correction to Energy=                    0.071123
 Thermal correction to Enthalpy=                  0.072067
 Thermal correction to Gibbs Free Energy=         0.039166
 Sum of electronic and zero-point Energies=           -192.372082
 Sum of electronic and thermal Energies=              -192.367499
 Sum of electronic and thermal Enthalpies=            -192.366554
 Sum of electronic and thermal Free Energies=         -192.399456

                     E (Thermal)             CV                S
                      KCal/Mol        Cal/Mol-Kelvin    Cal/Mol-Kelvin
 Total                   44.630             15.861             69.246
 Electronic               0.000              0.000              1.377
 Translational            0.889              2.981             38.389
 Rotational               0.889              2.981             23.988
 Vibrational             42.853              9.899              5.492
 Vibration     1          0.659              1.773              1.775
 Vibration     2          0.687              1.690              1.466
 Vibration     3          0.882              1.190              0.594
 Vibration     4          0.937              1.073              0.484

 Optimization completed.
    -- Stationary point found.
 Normal termination of Gaussian 09 at Thu Jan 31 07:15:39 2019.
