 Gaussian 09, Revision E.01,
 Gaussian 09:  EM64L-G09RevE.01 30-Nov-2015

 ---------------------------------------------
 #p b3lyp/6-311++G(3df,2p) freq symmetry=Loose
 ---------------------------------------------

 ---------
 b3lyp opt
 ---------
 Symbolic Z-matrix:
 Charge =  1 Multiplicity = 4

                         Standard orientation:
 ---------------------------------------------------------------------
 Center     Atomic      Atomic             Coordinates (Angstroms)
 Number     Number       Type             X           Y           Z
 ---------------------------------------------------------------------
      1          6           0        0.414096    1.046798   -0.000098
      2          1           0        0.365665    2.122392   -0.000853
      3          6           0        0.516276   -1.028900   -0.000285
      4          1           0        0.574570   -2.104145   -0.000087
      5          6           0       -0.562722   -0.047776   -0.000255
      6          6           0        1.444271    0.055771    0.000299
      7          1           0        2.525712    0.109161    0.000985
      8          6           0       -1.924532   -0.132850    0.000212
      9          1           0       -2.790274    0.514333    0.000720
 ---------------------------------------------------------------------

 SCF Done:  E(UB3LYP) =  -192.463366429     A.U. after   15 cycles

 The electronic state is 4-A.
 Alpha  occ. eigenvalues --  -10.47823 -10.47230 -10.47127 -10.43296 -10.43073
 Alpha  occ. eigenvalues --   -1.15125  -1.00332  -0.89676  -0.84503  -0.75159
 Alpha  occ. eigenvalues --   -0.74698  -0.66928  -0.64782  -0.62402  -0.61717
 Alpha  occ. eigenvalues --   -0.51882  -0.49610  -0.43063
 Alpha virt. eigenvalues --   -0.30230  -0.16042  -0.14248  -0.13426  -0.12000
 Alpha virt. eigenvalues --   -0.11109  -0.10734  -0.09343  -0.08487  -0.07979
 Alpha virt. eigenvalues --   -0.05299  -0.04841  -0.04699  -0.03823  -0.02587

  Beta  occ. eigenvalues --  -10.47247 -10.46857 -10.45413 -10.42170 -10.42050
  Beta  occ. eigenvalues --   -1.13066  -0.95834  -0.86630  -0.82324  -0.73712
  Beta  occ. eigenvalues --   -0.72883  -0.64830  -0.61264  -0.60696  -0.59182
  Beta virt. eigenvalues --   -0.40329  -0.31856  -0.30031  -0.24384  -0.13921
  Beta virt. eigenvalues --   -0.13116  -0.12337  -0.11375  -0.10520  -0.10193
  Beta virt. eigenvalues --   -0.07993  -0.07706  -0.07635  -0.04045  -0.03880

 Mulliken charges and spin densities:
               1          2
     1  C   -0.123282   0.809310
     2  H    0.303201  -0.019869
     3  C   -0.137616   0.768363
     4  H    0.303008  -0.019338
     5  C    0.374994  -0.067762
     6  C    0.032739   0.153712
     7  H    0.310876  -0.007666
     8  C   -0.339799   1.379729
     9  H    0.275880   0.003522
 Sum of Mulliken charges =   1.00000   3.00000

 Dipole moment (field-independent basis, Debye):
    X=             -0.2006    Y=              0.5618    Z=              0.0007  Tot=              0.5965
 Quadrupole moment (field-independent basis, Debye-Ang):
   XX=            -10.4986   YY=            -20.3581   ZZ=            -28.1321
   XY=             -1.6390   XZ=              0.0003   YZ=             -0.0014

  Exact polarizability:  73.252   0.215  49.695   0.000   0.002  29.816
 Approx polarizability: 120.742   2.370  77.576   0.003   0.006  44.499

                      1                      2                      3
                      A                      A                      A
 Frequencies --    153.6881               339.1366               530.3140
 Red. masses --      2.6472                 2.4402                 1.7795
 Frc consts  --      0.0368                 0.1654                 0.2949
 IR Inten    --     10.4552                10.2011                18.6141

                      4                      5                      6
                      A                      A                      A
 Frequencies --    583.1413               638.3300               736.4740
 Red. masses --      1.2370                 1.2619                 2.3021
 Frc consts  --      0.2478                 0.3030                 0.7357
 IR Inten    --      7.2515                27.2801                18.1370

                      7                      8                      9
                      A                      A                      A
 Frequencies --    740.4464               776.7196               899.7879
 Red. masses --      1.9109                 2.3222                 2.2646
 Frc consts  --      0.6173                 0.8254                 1.0802
 IR Inten    --     31.9895                11.4344                48.0593

                     10                     11                     12
                      A                      A                      A
 Frequencies --    950.6328               977.9398              1037.3216
 Red. masses --      2.2131                 1.5862                 2.8187
 Frc consts  --      1.1784                 0.8938                 1.7870
 IR Inten    --      3.3840                 1.1333                 1.4183

                     13                     14                     15
                      A                      A                      A
 Frequencies --   1144.0966              1187.9231              1320.0432
 Red. masses --      2.5258                 1.4381                 1.9648
 Frc consts  --      1.9479                 1.1956                 2.0172
 IR Inten    --      1.4861                 7.6391                 7.0274

                     16                     17                     18
                      A                      A                      A
 Frequencies --   1328.5711              1517.2801              3210.2036
 Red. masses --      2.8591                 7.9569                 1.0971
 Frc consts  --      2.9734                10.7926                 6.6611
 IR Inten    --    101.2394                 0.1028                14.4906

                     19                     20                     21
                      A                      A                      A
 Frequencies --   3231.2551              3259.8893              3267.8664
 Red. masses --      1.0984                 1.0939                 1.1085
 Frc consts  --      6.7571                 6.8492                 6.9745
 IR Inten    --     61.7759                61.7205                 0.1441

 - Thermochemistry -
 -------------------
 Temperature   298.150 Kelvin.  Pressure   1.00000 Atm.
 Atom     1 has atomic number  6 and mass  12.00000

 Molecular mass:    64.03130 amu.
 Principal axes and moments of inertia in atomic units:
                           1         2         3
     Eigenvalues --   126.27635 333.22271 459.49903
           X            0.99963  -0.02716   0.00000
           Y            0.02716   0.99963  -0.00003
           Z           -0.00000   0.00003   1.00000
 This molecule is an asymmetric top.
 Rotational symmetry number  1.
 Rotational temperatures (Kelvin)      0.68591     0.25993     0.18850
 Rotational constants (GHZ):          14.29200     5.41602     3.92763
 Zero-point vibrational energy     166466.7 (Joules/Mol)
                                   39.78650 (Kcal/Mol)
 Warning -- explicit consideration of   4 degrees of freedom as
           vibrations may cause significant error
 Vibrational temperatures:    221.12   487.94   763.00   839.01   918.41
          (Kelvin)           1059.62  1065.34  1117.52  1294.59  1367.75
                             1407.04  1492.47  1646.10  1709.15  1899.25
                             1911.52  2183.02  4618.76  4649.05  4690.25
                             4701.72

 Zero-point correction=                           0.063404 (Hartree/Particle)
 Thermal correction to Energy=                    0.068275
 Thermal correction to Enthalpy=                  0.069219
 Thermal correction to Gibbs Free Energy=         0.034885
 Sum of electronic and zero-point Energies=           -192.399963
 Sum of electronic and thermal Energies=              -192.395092
 Sum of electronic and thermal Enthalpies=            -192.394148
 Sum of electronic and thermal Free Energies=         -192.428481

                     E (Thermal)             CV                S
                      KCal/Mol        Cal/Mol-Kelvin    Cal/Mol-Kelvin
 Total                   42.843             17.341             72.260
 Electronic               0.000              0.000              2.755
 Translational            0.889              2.981             38.389
 Rotational               0.889              2.981             24.473
 Vibrational             41.065             11.379              6.643
 Vibration     1          0.619              1.899              2.626
 Vibration     2          0.719              1.597              1.216
 Vibration     3          0.885              1.183              0.587
 Vibration     4          0.940              1.068              0.480

 Optimization completed.
    -- Stationary point found.
 Normal termination of Gaussian 09 at Mon Jun 20 07:05:31 2016.
