 Gaussian 09, Revision E.01,
 Gaussian 09:  EM64L-G09RevE.01 30-Nov-2015

 ---------------------------------------------
 #p b3lyp/6-311++G(3df,2p) freq symmetry=Loose
 ---------------------------------------------

 ---------
 b3lyp opt
 ---------
 Symbolic Z-matrix:
 Charge =  2 Multiplicity = 3

                         Standard orientation:
 ---------------------------------------------------------------------
 Center     Atomic      Atomic             Coordinates (Angstroms)
 Number     Number       Type             X           Y           Z
 ---------------------------------------------------------------------
      1          6           0       -0.214563    1.047492    0.000002
      2          6           0       -1.352491   -0.142993   -0.000064
      3          6           0        1.177980    0.393841    0.000059
      4          1           0       -0.390555    1.629056   -0.920781
      5          1           0       -0.390640    1.629035    0.920781
      6          1           0       -2.434423   -0.004703   -0.000112
      7          1           0        2.123510    0.942501    0.000109
      8          6           0       -0.387538   -1.009573   -0.000029
      9          6           0        0.958631   -0.988081    0.000033
 ---------------------------------------------------------------------

 SCF Done:  E(UB3LYP) =  -191.885958971     A.U. after   15 cycles

 The electronic state is 3-A.
 Alpha  occ. eigenvalues --  -10.78707 -10.76951 -10.75422 -10.74945 -10.71026
 Alpha  occ. eigenvalues --   -1.43247  -1.27109  -1.20856  -1.08381  -1.01903
 Alpha  occ. eigenvalues --   -0.97656  -0.95006  -0.92447  -0.87591  -0.84634
 Alpha  occ. eigenvalues --   -0.79704  -0.77148
 Alpha virt. eigenvalues --   -0.59909  -0.55951  -0.43337  -0.36348  -0.34043
 Alpha virt. eigenvalues --   -0.31249  -0.29810  -0.29080  -0.28068  -0.25884
 Alpha virt. eigenvalues --   -0.24454  -0.23319  -0.22836  -0.21574  -0.21482

  Beta  occ. eigenvalues --  -10.78701 -10.74826 -10.74716 -10.74217 -10.70872
  Beta  occ. eigenvalues --   -1.40966  -1.24107  -1.19510  -1.06834  -1.00395
  Beta  occ. eigenvalues --   -0.96660  -0.93010  -0.89937  -0.86379  -0.82616
  Beta virt. eigenvalues --   -0.66013  -0.63891  -0.57100  -0.50843  -0.39024
  Beta virt. eigenvalues --   -0.35446  -0.33779  -0.30237  -0.29031  -0.28839
  Beta virt. eigenvalues --   -0.27613  -0.25592  -0.24024  -0.22937  -0.22090

 Mulliken charges and spin densities:
               1          2
     1  C   -0.464829   0.027667
     2  C    0.146853   0.456680
     3  C    0.080504   0.432244
     4  H    0.279940   0.010807
     5  H    0.279940   0.010807
     6  H    0.376010  -0.006950
     7  H    0.322673   0.001330
     8  C    0.706620  -0.158255
     9  C    0.272289   1.225668
 Sum of Mulliken charges =   2.00000   2.00000

 Dipole moment (field-independent basis, Debye):
    X=             -0.7574    Y=              0.9141    Z=             -0.0000  Tot=              1.1871
 Quadrupole moment (field-independent basis, Debye-Ang):
   XX=             -5.2586   YY=            -12.3447   ZZ=            -23.2626
   XY=              1.1161   XZ=              0.0008   YZ=              0.0002

  Exact polarizability:  53.137  -0.426  46.010   0.001   0.000  26.727
 Approx polarizability:  96.763  -4.364  90.792   0.003   0.000  39.933

                      1                      2                      3
                      A                      A                      A
 Frequencies --    287.7695               404.7313               405.6744
 Red. masses --      1.8894                 8.0122                 4.2145
 Frc consts  --      0.0922                 0.7733                 0.4086
 IR Inten    --      1.8180                34.1021                 5.3168

                      4                      5                      6
                      A                      A                      A
 Frequencies --    570.4964               693.8361               714.0791
 Red. masses --      8.5870                 1.1826                 3.0642
 Frc consts  --      1.6466                 0.3354                 0.9206
 IR Inten    --      3.4259                35.4816                 7.7359

                      7                      8                      9
                      A                      A                      A
 Frequencies --    781.7833               865.0612               905.3856
 Red. masses --      1.3335                 3.1279                 1.7443
 Frc consts  --      0.4802                 1.3791                 0.8424
 IR Inten    --      9.6540                 4.8556                 1.8423

                     10                     11                     12
                      A                      A                      A
 Frequencies --    977.3053              1106.4261              1130.2145
 Red. masses --      1.2881                 1.1203                 2.0581
 Frc consts  --      0.7249                 0.8080                 1.5489
 IR Inten    --     35.0423                 0.4896                 7.6126

                     13                     14                     15
                      A                      A                      A
 Frequencies --   1182.4700              1251.1253              1293.9551
 Red. masses --      1.4092                 1.8505                 2.6990
 Frc consts  --      1.1610                 1.7066                 2.6625
 IR Inten    --      9.6978                12.6376                55.0753

                     16                     17                     18
                      A                      A                      A
 Frequencies --   1364.0426              1641.1953              2933.9922
 Red. masses --      1.6630                 7.4411                 1.0521
 Frc consts  --      1.8231                11.8088                 5.3364
 IR Inten    --     56.0734                36.3338               181.5092

                     19                     20                     21
                      A                      A                      A
 Frequencies --   3011.9887              3106.4646              3143.2893
 Red. masses --      1.1110                 1.0962                 1.1144
 Frc consts  --      5.9383                 6.2329                 6.4872
 IR Inten    --    124.0395               234.7075               232.4960

 - Thermochemistry -
 -------------------
 Temperature   298.150 Kelvin.  Pressure   1.00000 Atm.
 Atom     1 has atomic number  6 and mass  12.00000

 Molecular mass:    64.03130 amu.
 Principal axes and moments of inertia in atomic units:
                           1         2         3
     Eigenvalues --   167.40340 230.42397 385.62188
           X            0.99929   0.03765  -0.00005
           Y           -0.03765   0.99929  -0.00001
           Z            0.00005   0.00001   1.00000
 This molecule is an asymmetric top.
 Rotational symmetry number  1.
 Rotational temperatures (Kelvin)      0.51740     0.37589     0.22461
 Rotational constants (GHZ):          10.78079     7.83226     4.68008
 Zero-point vibrational energy     166109.2 (Joules/Mol)
                                   39.70105 (Kcal/Mol)
 Warning -- explicit consideration of   4 degrees of freedom as
           vibrations may cause significant error
 Vibrational temperatures:    414.04   582.32   583.67   820.82   998.27
          (Kelvin)           1027.40  1124.81  1244.63  1302.65  1406.12
                             1591.90  1626.12  1701.31  1800.09  1861.71
                             1962.55  2361.31  4221.36  4333.57  4469.50
                             4522.49

 Zero-point correction=                           0.063268 (Hartree/Particle)
 Thermal correction to Energy=                    0.067883
 Thermal correction to Enthalpy=                  0.068827
 Thermal correction to Gibbs Free Energy=         0.035503
 Sum of electronic and zero-point Energies=           -191.822691
 Sum of electronic and thermal Energies=              -191.818076
 Sum of electronic and thermal Enthalpies=            -191.817132
 Sum of electronic and thermal Free Energies=         -191.850456

                     E (Thermal)             CV                S
                      KCal/Mol        Cal/Mol-Kelvin    Cal/Mol-Kelvin
 Total                   42.597             16.677             70.137
 Electronic               0.000              0.000              2.183
 Translational            0.889              2.981             38.389
 Rotational               0.889              2.981             24.212
 Vibrational             40.820             10.716              5.352
 Vibration     1          0.685              1.696              1.487
 Vibration     2          0.770              1.460              0.945
 Vibration     3          0.771              1.458              0.942
 Vibration     4          0.927              1.095              0.503

 Optimization completed.
    -- Stationary point found.
 Normal termination of Gaussian 09 at Wed Jul 20 06:57:52 2016.
