 Gaussian 09, Revision E.01,
 Gaussian 09:  EM64L-G09RevE.01 30-Nov-2015

 ---------------------------------------------
 #p b3lyp/6-311++G(3df,2p) freq symmetry=Loose
 ---------------------------------------------

 ---------
 b3lyp opt
 ---------
 Symbolic Z-matrix:
 Charge =  1 Multiplicity = 4

                         Standard orientation:
 ---------------------------------------------------------------------
 Center     Atomic      Atomic             Coordinates (Angstroms)
 Number     Number       Type             X           Y           Z
 ---------------------------------------------------------------------
      1          6           0       -0.659989    0.840351   -0.155943
      2          6           0       -1.754029   -0.000313    0.178372
      3          6           0       -0.659629   -0.840215   -0.155931
      4          1           0       -2.827858   -0.000451    0.097265
      5          6           0        0.465916    0.000624    0.056304
      6          6           0        1.927190    0.000211    0.036184
      7          1           0        2.304956    0.906424   -0.435331
      8          1           0        2.302997   -0.027592    1.065033
      9          1           0        2.303150   -0.882322   -0.480880
 ---------------------------------------------------------------------

 SCF Done:  E(UB3LYP) =  -192.389376425     A.U. after   15 cycles

 The electronic state is 4-A.
 Alpha  occ. eigenvalues --  -10.53647 -10.53641 -10.48929 -10.47461 -10.38700
 Alpha  occ. eigenvalues --   -1.23426  -1.00082  -0.90833  -0.85331  -0.75387
 Alpha  occ. eigenvalues --   -0.70764  -0.69151  -0.66456  -0.62446  -0.61153
 Alpha  occ. eigenvalues --   -0.60296  -0.47661  -0.45468
 Alpha virt. eigenvalues --   -0.29457  -0.23963  -0.14621  -0.13253  -0.11832
 Alpha virt. eigenvalues --   -0.10772  -0.09715  -0.09269  -0.08448  -0.06945
 Alpha virt. eigenvalues --   -0.06700  -0.06322  -0.04309  -0.04169  -0.01999

  Beta  occ. eigenvalues --  -10.51841 -10.51837 -10.48037 -10.46386 -10.38712
  Beta  occ. eigenvalues --   -1.20464  -0.98482  -0.88982  -0.79037  -0.73854
  Beta  occ. eigenvalues --   -0.67297  -0.66102  -0.64469  -0.59607  -0.59424
  Beta virt. eigenvalues --   -0.44463  -0.33528  -0.31763  -0.23798  -0.17813
  Beta virt. eigenvalues --   -0.13876  -0.12729  -0.11063  -0.10446  -0.09138
  Beta virt. eigenvalues --   -0.08874  -0.07854  -0.06381  -0.05976  -0.05784

 Mulliken charges and spin densities:
               1          2
     1  C    0.236829   1.017082
     2  C   -0.325450   0.567409
     3  C    0.235156   1.018881
     4  H    0.278195   0.008306
     5  C    0.290930   0.318678
     6  C   -0.321656   0.006895
     7  H    0.196960   0.011866
     8  H    0.211245   0.037233
     9  H    0.197791   0.013652
 Sum of Mulliken charges =   1.00000   3.00000

 Dipole moment (field-independent basis, Debye):
    X=             -0.8554    Y=             -0.0043    Z=              0.1428  Tot=              0.8673
 Quadrupole moment (field-independent basis, Debye-Ang):
   XX=            -10.1136   YY=            -23.9966   ZZ=            -27.2024
   XY=             -0.0084   XZ=              0.0622   YZ=             -0.0005

  Exact polarizability:  69.918  -0.044  41.013  -0.440   0.004  32.872
 Approx polarizability: 105.826  -0.094  77.702  -1.662   0.011  48.655

                      1                      2                      3
                      A                      A                      A
 Frequencies --     73.6993               237.9482               324.2044
 Red. masses --      1.1697                 3.2849                 3.0686
 Frc consts  --      0.0037                 0.1096                 0.1900
 IR Inten    --      0.3315                 6.3651                 2.5024

                      4                      5                      6
                      A                      A                      A
 Frequencies --    568.4789               629.6347               690.1832
 Red. masses --      1.7123                 2.6231                 5.2647
 Frc consts  --      0.3260                 0.6127                 1.4776
 IR Inten    --     29.5740                50.1379                 0.3126

                      7                      8                      9
                      A                      A                      A
 Frequencies --    850.5939               905.4331               958.4679
 Red. masses --      2.6460                 3.9286                 2.6864
 Frc consts  --      1.1279                 1.8976                 1.4540
 IR Inten    --      0.3612                 3.7398                12.0868

                     10                     11                     12
                      A                      A                      A
 Frequencies --   1031.0422              1039.2845              1149.0479
 Red. masses --      2.0555                 1.3904                 2.2676
 Frc consts  --      1.2874                 0.8848                 1.7640
 IR Inten    --      0.3076                19.7808                 8.5414

                     13                     14                     15
                      A                      A                      A
 Frequencies --   1239.9472              1395.2321              1448.4877
 Red. masses --      7.3965                 1.2190                 1.1321
 Frc consts  --      6.7001                 1.3981                 1.3995
 IR Inten    --      1.5089                20.5257                16.4678

                     16                     17                     18
                      A                      A                      A
 Frequencies --   1449.6253              1487.4922              3011.2612
 Red. masses --      1.0504                 4.9430                 1.0449
 Frc consts  --      1.3006                 6.4439                 5.5822
 IR Inten    --     23.1512                 4.7196                30.5637

                     19                     20                     21
                      A                      A                      A
 Frequencies --   3082.8468              3129.1800              3265.1568
 Red. masses --      1.0854                 1.1046                 1.1011
 Frc consts  --      6.0780                 6.3727                 6.9167
 IR Inten    --      4.5323                 3.7951               137.7924

 - Thermochemistry -
 -------------------
 Temperature   298.150 Kelvin.  Pressure   1.00000 Atm.
 Atom     1 has atomic number  6 and mass  12.00000

 Molecular mass:    64.03130 amu.
 Principal axes and moments of inertia in atomic units:
                           1         2         3
     Eigenvalues --    75.54272 432.04575 489.05527
           X            1.00000  -0.00005   0.00071
           Y            0.00005   1.00000   0.00002
           Z           -0.00071  -0.00002   1.00000
 This molecule is an asymmetric top.
 Rotational symmetry number  1.
 Rotational temperatures (Kelvin)      1.14655     0.20047     0.17710
 Rotational constants (GHZ):          23.89034     4.17720     3.69026
 Zero-point vibrational energy     167281.3 (Joules/Mol)
                                   39.98119 (Kcal/Mol)
 Warning -- explicit consideration of   4 degrees of freedom as
           vibrations may cause significant error
 Vibrational temperatures:    106.04   342.35   466.46   817.91   905.90
          (Kelvin)            993.02  1223.81  1302.71  1379.02  1483.44
                             1495.30  1653.22  1784.01  2007.43  2084.05
                             2085.68  2140.17  4332.53  4435.52  4502.19
                             4697.83

 Zero-point correction=                           0.063714 (Hartree/Particle)
 Thermal correction to Energy=                    0.068952
 Thermal correction to Enthalpy=                  0.069896
 Thermal correction to Gibbs Free Energy=         0.034481
 Sum of electronic and zero-point Energies=           -192.325662
 Sum of electronic and thermal Energies=              -192.320425
 Sum of electronic and thermal Enthalpies=            -192.319481
 Sum of electronic and thermal Free Energies=         -192.354896

                     E (Thermal)             CV                S
                      KCal/Mol        Cal/Mol-Kelvin    Cal/Mol-Kelvin
 Total                   43.268             17.210             74.538
 Electronic               0.000              0.000              2.755
 Translational            0.889              2.981             38.389
 Rotational               0.889              2.981             24.283
 Vibrational             41.490             11.248              9.111
 Vibration     1          0.599              1.966              4.052
 Vibration     2          0.656              1.783              1.818
 Vibration     3          0.709              1.627              1.289
 Vibration     4          0.924              1.099              0.507

 Normal termination of Gaussian 09 at Mon Jun 20 06:27:11 2016.
