 Gaussian 09, Revision E.01,
 Gaussian 09:  EM64L-G09RevE.01 30-Nov-2015

 ---------------------------------------------
 #p b3lyp/6-311++G(3df,2p) freq symmetry=Loose
 ---------------------------------------------

 ---------
 b3lyp opt
 ---------
 Symbolic Z-matrix:
 Charge =  2 Multiplicity = 3

                         Standard orientation:
 ---------------------------------------------------------------------
 Center     Atomic      Atomic             Coordinates (Angstroms)
 Number     Number       Type             X           Y           Z
 ---------------------------------------------------------------------
      1          6           0        1.094079    0.124384    0.000061
      2          6           0       -0.090663    0.720070    0.000056
      3          1           0        2.873945   -0.626429   -0.946613
      4          1           0       -0.068124    1.828920    0.000149
      5          6           0       -1.309616    0.065672   -0.000055
      6          6           0       -2.433049   -0.447094   -0.000150
      7          1           0       -3.415214   -0.902170   -0.000234
      8          6           0        2.361838   -0.408655    0.000076
      9          1           0        2.873857   -0.626587    0.946776
 ---------------------------------------------------------------------

 SCF Done:  E(UB3LYP) =  -191.957185122     A.U. after   20 cycles

 The electronic state is 3-A.
 Alpha  occ. eigenvalues --  -10.76117 -10.72194 -10.68926 -10.67564 -10.66763
 Alpha  occ. eigenvalues --   -1.32186  -1.25221  -1.19738  -1.05646  -0.97387
 Alpha  occ. eigenvalues --   -0.94390  -0.93854  -0.92442  -0.81560  -0.79154
 Alpha  occ. eigenvalues --   -0.73457  -0.73188
 Alpha virt. eigenvalues --   -0.51609  -0.51267  -0.40914  -0.34966  -0.33671
 Alpha virt. eigenvalues --   -0.28082  -0.26639  -0.25885  -0.25531  -0.24231
 Alpha virt. eigenvalues --   -0.23841  -0.22077  -0.21514  -0.20810  -0.20147

  Beta  occ. eigenvalues --  -10.74755 -10.71462 -10.69074 -10.66881 -10.66291
  Beta  occ. eigenvalues --   -1.29478  -1.22254  -1.17318  -1.04061  -0.95774
  Beta  occ. eigenvalues --   -0.93456  -0.92568  -0.90593  -0.78272  -0.72563
  Beta virt. eigenvalues --   -0.65854  -0.62664  -0.47358  -0.45195  -0.40004
  Beta virt. eigenvalues --   -0.32781  -0.31897  -0.27641  -0.26268  -0.25374
  Beta virt. eigenvalues --   -0.25157  -0.23561  -0.23110  -0.21713  -0.20370

 Mulliken charges and spin densities:
               1          2
     1  C    0.729322   0.831354
     2  C   -0.373382   0.102163
     3  H    0.307224   0.011198
     4  H    0.265272   0.035839
     5  C    0.010607   0.273324
     6  C    0.542837   0.290291
     7  H    0.424620  -0.010983
     8  C   -0.213725   0.455617
     9  H    0.307224   0.011198
 Sum of Mulliken charges =   2.00000   2.00000

 Dipole moment (field-independent basis, Debye):
    X=              2.1316    Y=             -0.7816    Z=              0.0000  Tot=              2.2704
 Quadrupole moment (field-independent basis, Debye-Ang):
   XX=             26.7547   YY=            -18.2518   ZZ=            -22.9769
   XY=              0.7821   XZ=              0.0024   YZ=              0.0004

  Exact polarizability: 104.256   0.599  36.694   0.004   0.001  27.957
 Approx polarizability: 162.107   4.848  57.387   0.006   0.002  39.333

                      1                      2                      3
                      A                      A                      A
 Frequencies --     86.9122               194.7380               301.0619
 Red. masses --      4.2152                 1.1179                 2.1489
 Frc consts  --      0.0188                 0.0250                 0.1148
 IR Inten    --      9.0201                 2.8819                15.3182

                      4                      5                      6
                      A                      A                      A
 Frequencies --    325.3808               331.8102               492.4752
 Red. masses --      4.7497                 2.8509                 6.1918
 Frc consts  --      0.2963                 0.1849                 0.8848
 IR Inten    --      7.6377                13.8829                 4.0778

                      7                      8                      9
                      A                      A                      A
 Frequencies --    724.2277               747.7494               808.1409
 Red. masses --      1.2450                 1.6204                 1.4760
 Frc consts  --      0.3847                 0.5338                 0.5679
 IR Inten    --     40.5945                 6.0766                20.5926

                     10                     11                     12
                      A                      A                      A
 Frequencies --    836.3640               963.2978              1001.2891
 Red. masses --      4.8365                 1.4559                 1.3654
 Frc consts  --      1.9933                 0.7960                 0.8065
 IR Inten    --      8.6082                 1.3772                22.6913

                     13                     14                     15
                      A                      A                      A
 Frequencies --   1057.8677              1267.6561              1392.7108
 Red. masses --      1.9944                 1.7803                 1.1622
 Frc consts  --      1.3150                 1.6855                 1.3282
 IR Inten    --     60.2401                67.8001                22.7712

                     16                     17                     18
                      A                      A                      A
 Frequencies --   1773.7073              2105.4058              2890.3640
 Red. masses --     10.4465                 6.2095                 1.0749
 Frc consts  --     19.3635                16.2172                 5.2911
 IR Inten    --    254.8392               102.5780               288.2506

                     19                     20                     21
                      A                      A                      A
 Frequencies --   2991.1885              3096.6014              3271.1052
 Red. masses --      1.0496                 1.1206                 1.1640
 Frc consts  --      5.5328                 6.3307                 7.3384
 IR Inten    --    365.0021               139.9980               286.1967

 - Thermochemistry -
 -------------------
 Temperature   298.150 Kelvin.  Pressure   1.00000 Atm.
 Atom     1 has atomic number  6 and mass  12.00000

 Molecular mass:    64.03130 amu.
 Principal axes and moments of inertia in atomic units:
                           1         2         3
     Eigenvalues --    63.01950 725.48826 775.60559
           X            0.99999  -0.00351  -0.00005
           Y            0.00351   0.99999  -0.00008
           Z            0.00005   0.00008   1.00000
 This molecule is an asymmetric top.
 Rotational symmetry number  1.
 Rotational temperatures (Kelvin)      1.37440     0.11939     0.11167
 Rotational constants (GHZ):          28.63782     2.48762     2.32688
 Zero-point vibrational energy     159462.5 (Joules/Mol)
                                   38.11246 (Kcal/Mol)
 Warning -- explicit consideration of   6 degrees of freedom as
           vibrations may cause significant error
 Vibrational temperatures:    125.05   280.18   433.16   468.15   477.40
          (Kelvin)            708.56  1042.00  1075.84  1162.73  1203.34
                             1385.97  1440.63  1522.03  1823.87  2003.80
                             2551.97  3029.21  4158.58  4303.65  4455.31
                             4706.38

 Zero-point correction=                           0.060736 (Hartree/Particle)
 Thermal correction to Energy=                    0.066791
 Thermal correction to Enthalpy=                  0.067735
 Thermal correction to Gibbs Free Energy=         0.030949
 Sum of electronic and zero-point Energies=           -191.896449
 Sum of electronic and thermal Energies=              -191.890394
 Sum of electronic and thermal Enthalpies=            -191.889450
 Sum of electronic and thermal Free Energies=         -191.926237

                     E (Thermal)             CV                S
                      KCal/Mol        Cal/Mol-Kelvin    Cal/Mol-Kelvin
 Total                   41.912             20.119             77.424
 Electronic               0.000              0.000              2.183
 Translational            0.889              2.981             38.389
 Rotational               0.889              2.981             25.076
 Vibrational             40.135             14.158             11.776
 Vibration     1          0.601              1.958              3.728
 Vibration     2          0.635              1.847              2.182
 Vibration     3          0.693              1.672              1.411
 Vibration     4          0.709              1.625              1.283
 Vibration     5          0.714              1.612              1.251
 Vibration     6          0.848              1.267              0.677

 Normal termination of Gaussian 09 at Wed Jul 20 04:34:33 2016.
