 Gaussian 09, Revision E.01,
 Gaussian 09:  EM64L-G09RevE.01 30-Nov-2015

 ------------------------------------------------------
 #p b3lyp/6-311++G(3df,2p) freq IOp(2/17=3) IOp(2/18=3)
 ------------------------------------------------------

 ---------
 b3lyp opt
 ---------
 Symbolic Z-matrix:
 Charge =  2 Multiplicity = 3

                         Standard orientation:
 ---------------------------------------------------------------------
 Center     Atomic      Atomic             Coordinates (Angstroms)
 Number     Number       Type             X           Y           Z
 ---------------------------------------------------------------------
      1          6           0        0.000000    1.069241    0.000000
      2          6           0       -1.353674    0.131318    0.000000
      3          6           0        1.233050    0.149447    0.000000
      4          1           0       -0.055711    1.674292   -0.920781
      5          1           0       -0.055711    1.674292    0.920781
      6          1           0       -2.385849    0.483905    0.000000
      7          1           0        2.269446    0.497208    0.000000
      8          6           0       -0.582245   -0.911271    0.000000
      9          6           0        0.740855   -1.160350    0.000000
 ---------------------------------------------------------------------

 SCF Done:  E(UB3LYP) =  -191.885961921     A.U. after   15 cycles

 The electronic state is 3-A".
 Alpha  occ. eigenvalues --  -10.78707 -10.76951 -10.75422 -10.74945 -10.71026
 Alpha  occ. eigenvalues --   -1.43247  -1.27110  -1.20857  -1.08381  -1.01903
 Alpha  occ. eigenvalues --   -0.97656  -0.95006  -0.92447  -0.87591  -0.84634
 Alpha  occ. eigenvalues --   -0.79704  -0.77149
 Alpha virt. eigenvalues --   -0.59909  -0.55951  -0.43337  -0.36348  -0.34045
 Alpha virt. eigenvalues --   -0.31249  -0.29810  -0.29081  -0.28068  -0.25883
 Alpha virt. eigenvalues --   -0.24453  -0.23316  -0.22837  -0.21575  -0.21482

  Beta  occ. eigenvalues --  -10.78701 -10.74826 -10.74716 -10.74217 -10.70872
  Beta  occ. eigenvalues --   -1.40966  -1.24108  -1.19510  -1.06834  -1.00395
  Beta  occ. eigenvalues --   -0.96660  -0.93010  -0.89937  -0.86379  -0.82616
  Beta virt. eigenvalues --   -0.66014  -0.63891  -0.57100  -0.50844  -0.39024
  Beta virt. eigenvalues --   -0.35446  -0.33781  -0.30237  -0.29031  -0.28840
  Beta virt. eigenvalues --   -0.27614  -0.25591  -0.24024  -0.22938  -0.22092

 Mulliken charges and spin densities:
               1          2
     1  C   -0.464523   0.027644
     2  C    0.146906   0.456708
     3  C    0.079894   0.432408
     4  H    0.279968   0.010805
     5  H    0.279968   0.010805
     6  H    0.376016  -0.006943
     7  H    0.322630   0.001324
     8  C    0.706531  -0.158304
     9  C    0.272611   1.225555
 Sum of Mulliken charges =   2.00000   2.00000

 Dipole moment (field-independent basis, Debye):
    X=             -0.5586    Y=              1.0474    Z=             -0.0000  Tot=              1.1871
 Quadrupole moment (field-independent basis, Debye-Ang):
   XX=             -5.1051   YY=            -12.4982   ZZ=            -23.2627
   XY=             -0.3666   XZ=              0.0000   YZ=              0.0000

  Exact polarizability:  52.682  -1.793  46.465   0.000   0.000  26.727
 Approx polarizability:  94.807  -5.186  92.748   0.000   0.000  39.934

                      1                      2                      3
                     A"                     A'                     A"
 Frequencies --    287.4017               404.3645               405.5302
 Red. masses --      1.8871                 8.0080                 4.2116
 Frc consts  --      0.0918                 0.7715                 0.4081
 IR Inten    --      1.7980                34.0664                 5.3420

                      4                      5                      6
                     A'                     A"                     A'
 Frequencies --    570.7065               693.3653               714.0736
 Red. masses --      8.5847                 1.1835                 3.0676
 Frc consts  --      1.6474                 0.3352                 0.9216
 IR Inten    --      3.4509                35.5710                 7.7115

                      7                      8                      9
                     A"                     A'                     A"
 Frequencies --    781.6310               865.0992               904.9338
 Red. masses --      1.3333                 3.1233                 1.7442
 Frc consts  --      0.4799                 1.3772                 0.8415
 IR Inten    --      9.5494                 4.8599                 1.8742

                     10                     11                     12
                     A'                     A"                     A'
 Frequencies --    977.2794              1106.2581              1130.1364
 Red. masses --      1.2876                 1.1207                 2.0587
 Frc consts  --      0.7246                 0.8081                 1.5492
 IR Inten    --     35.0124                 0.4814                 7.6468

                     13                     14                     15
                     A'                     A'                     A'
 Frequencies --   1182.2233              1250.9596              1293.8897
 Red. masses --      1.4051                 1.8463                 2.6967
 Frc consts  --      1.1570                 1.7023                 2.6600
 IR Inten    --      9.7949                12.3886                54.7206

                     16                     17                     18
                     A'                     A'                     A'
 Frequencies --   1363.8390              1641.0165              2934.1198
 Red. masses --      1.6739                 7.4471                 1.0521
 Frc consts  --      1.8344                11.8157                 5.3367
 IR Inten    --     56.6490                36.3103               181.5280

                     19                     20                     21
                     A"                     A'                     A'
 Frequencies --   3012.1818              3106.3313              3143.0433
 Red. masses --      1.1110                 1.0963                 1.1144
 Frc consts  --      5.9392                 6.2324                 6.4861
 IR Inten    --    124.0636               234.8988               232.2928

 - Thermochemistry -
 -------------------
 Temperature   298.150 Kelvin.  Pressure   1.00000 Atm.
 Atom     1 has atomic number  6 and mass  12.00000

 Molecular mass:    64.03130 amu.
 Principal axes and moments of inertia in atomic units:
                           1         2         3
     Eigenvalues --   167.40369 230.42368 385.62188
           X            0.97141   0.23741   0.00000
           Y           -0.23741   0.97141   0.00000
           Z           -0.00000   0.00000   1.00000
 This molecule is an asymmetric top.
 Rotational symmetry number  1.
 Rotational temperatures (Kelvin)      0.51739     0.37589     0.22461
 Rotational constants (GHZ):          10.78077     7.83227     4.68008
 Zero-point vibrational energy     166091.8 (Joules/Mol)
                                   39.69690 (Kcal/Mol)
 Warning -- explicit consideration of   4 degrees of freedom as
           vibrations may cause significant error
 Vibrational temperatures:    413.51   581.79   583.47   821.12   997.60
          (Kelvin)           1027.39  1124.59  1244.68  1302.00  1406.09
                             1591.66  1626.01  1700.95  1799.85  1861.62
                             1962.26  2361.05  4221.54  4333.85  4469.31
                             4522.13

 Zero-point correction=                           0.063261 (Hartree/Particle)
 Thermal correction to Energy=                    0.067878
 Thermal correction to Enthalpy=                  0.068822
 Thermal correction to Gibbs Free Energy=         0.035495
 Sum of electronic and zero-point Energies=           -191.822701
 Sum of electronic and thermal Energies=              -191.818084
 Sum of electronic and thermal Enthalpies=            -191.817140
 Sum of electronic and thermal Free Energies=         -191.850467

                     E (Thermal)             CV                S
                      KCal/Mol        Cal/Mol-Kelvin    Cal/Mol-Kelvin
 Total                   42.594             16.681             70.142
 Electronic               0.000              0.000              2.183
 Translational            0.889              2.981             38.389
 Rotational               0.889              2.981             24.212
 Vibrational             40.816             10.719              5.357
 Vibration     1          0.685              1.697              1.489
 Vibration     2          0.770              1.461              0.947
 Vibration     3          0.771              1.458              0.943
 Vibration     4          0.927              1.095              0.503

 Optimization completed.
    -- Stationary point found.
 Normal termination of Gaussian 09 at Thu Jan 31 08:06:32 2019.
