 Gaussian 09, Revision E.01,
 Gaussian 09:  EM64L-G09RevE.01 30-Nov-2015

 ---------------------------------------------
 #p b3lyp/6-311++G(3df,2p) freq symmetry=Loose
 ---------------------------------------------

 ---------
 b3lyp opt
 ---------
 Symbolic Z-matrix:
 Charge =  0 Multiplicity = 3

                         Standard orientation:
 ---------------------------------------------------------------------
 Center     Atomic      Atomic             Coordinates (Angstroms)
 Number     Number       Type             X           Y           Z
 ---------------------------------------------------------------------
      1          6           0        1.763445   -0.715928   -0.009889
      2          1           0        1.199060   -1.646663   -0.075034
      3          1           0        2.843373   -0.804676    0.021920
      4          6           0        1.165577    0.440640    0.030923
      5          6           0       -1.261452    0.032401   -0.132496
      6          6           0       -2.034414   -0.926283    0.078225
      7          6           0       -0.196688    1.019841    0.022153
      8          1           0       -0.368842    1.612862    0.926600
      9          1           0       -0.292395    1.734459   -0.806981
 ---------------------------------------------------------------------

 SCF Done:  E(UB3LYP) =  -192.711309461     A.U. after   23 cycles

 The electronic state is 3-A.
 Alpha  occ. eigenvalues --  -10.24142 -10.22445 -10.22281 -10.21867 -10.18404
 Alpha  occ. eigenvalues --   -0.85456  -0.78217  -0.73527  -0.57689  -0.52287
 Alpha  occ. eigenvalues --   -0.48568  -0.47828  -0.43783  -0.35151  -0.31733
 Alpha  occ. eigenvalues --   -0.30762  -0.29084  -0.24621
 Alpha virt. eigenvalues --   -0.02056  -0.01457  -0.00606   0.00641   0.01325
 Alpha virt. eigenvalues --    0.02890   0.03247   0.05700   0.05834   0.06484
 Alpha virt. eigenvalues --    0.07587   0.08344   0.09587   0.10596   0.11197

  Beta  occ. eigenvalues --  -10.24099 -10.21728 -10.21165 -10.20375 -10.18523
  Beta  occ. eigenvalues --   -0.83759  -0.75834  -0.71807  -0.55613  -0.50945
  Beta  occ. eigenvalues --   -0.47514  -0.46459  -0.42613  -0.29830  -0.29380
  Beta  occ. eigenvalues --   -0.28523
  Beta virt. eigenvalues --   -0.19504  -0.09909  -0.01382  -0.00521   0.01017
  Beta virt. eigenvalues --    0.01589   0.02081   0.03553   0.03858   0.05915
  Beta virt. eigenvalues --    0.06319   0.07025   0.07642   0.08629   0.09874

 Mulliken charges and spin densities:
               1          2
     1  C   -0.454597  -0.205941
     2  H    0.155162   0.082189
     3  H    0.168548   0.034084
     4  C    0.172612   1.030086
     5  C    0.569718   0.350836
     6  C   -0.441736   0.684994
     7  C   -0.547160  -0.025537
     8  H    0.187667   0.011680
     9  H    0.189786   0.037610
 Sum of Mulliken charges =  -0.00000   2.00000

 Dipole moment (field-independent basis, Debye):
    X=              1.2931    Y=              1.7671    Z=             -0.5758  Tot=              2.2641
 Quadrupole moment (field-independent basis, Debye-Ang):
   XX=            -33.8303   YY=            -28.9006   ZZ=            -31.1562
   XY=             -4.1808   XZ=              1.5416   YZ=              0.6751

  Exact polarizability:  90.733  13.924  77.794  -5.238  -2.705  43.084
 Approx polarizability: 104.419  17.889 120.295  -7.110  -7.850  63.145

                      1                      2                      3
                      A                      A                      A
 Frequencies --    104.3702               168.5597               275.3555
 Red. masses --      4.9358                 2.2598                 3.1769
 Frc consts  --      0.0317                 0.0378                 0.1419
 IR Inten    --     10.1338                10.6213                 2.1323

                      4                      5                      6
                      A                      A                      A
 Frequencies --    324.4080               467.9848               548.4836
 Red. masses --      3.2195                 1.2424                 4.0736
 Frc consts  --      0.1996                 0.1603                 0.7220
 IR Inten    --     10.8511                 5.3086                 2.0011

                      7                      8                      9
                      A                      A                      A
 Frequencies --    847.2880               890.8102               913.1914
 Red. masses --      4.1564                 2.3110                 1.3355
 Frc consts  --      1.7580                 1.0805                 0.6562
 IR Inten    --     17.7194                 6.4503                42.6113

                     10                     11                     12
                      A                      A                      A
 Frequencies --    917.2178              1007.9233              1204.3515
 Red. masses --      2.8641                 1.7367                 1.0866
 Frc consts  --      1.4196                 1.0395                 0.9286
 IR Inten    --     54.0128                 2.5728                 6.3658

                     13                     14                     15
                      A                      A                      A
 Frequencies --   1286.9766              1381.8487              1410.1255
 Red. masses --      1.3827                 1.1983                 1.1062
 Frc consts  --      1.3493                 1.3482                 1.2960
 IR Inten    --    164.9780               268.2359                23.3068

                     16                     17                     18
                      A                      A                      A
 Frequencies --   1558.6973              1742.8531              2974.3730
 Red. masses --      5.2548                 8.2691                 1.0679
 Frc consts  --      7.5220                14.7989                 5.5665
 IR Inten    --   1242.3136                12.0203                16.1809

                     19                     20                     21
                      A                      A                      A
 Frequencies --   3015.4873              3054.5329              3157.4654
 Red. masses --      1.0855                 1.0639                 1.1028
 Frc consts  --      5.8157                 5.8486                 6.4775
 IR Inten    --      6.1730                 1.5505                 1.4084

 - Thermochemistry -
 -------------------
 Temperature   298.150 Kelvin.  Pressure   1.00000 Atm.
 Atom     1 has atomic number  6 and mass  12.00000

 Molecular mass:    64.03130 amu.
 Principal axes and moments of inertia in atomic units:
                           1         2         3
     Eigenvalues --   149.36304 480.73621 617.03550
           X            0.99838  -0.05694  -0.00120
           Y            0.05695   0.99836   0.00537
           Z            0.00090  -0.00543   0.99998
 This molecule is an asymmetric top.
 Rotational symmetry number  1.
 Rotational temperatures (Kelvin)      0.57989     0.18017     0.14037
 Rotational constants (GHZ):          12.08292     3.75412     2.92486
 Zero-point vibrational energy     163005.0 (Joules/Mol)
                                   38.95912 (Kcal/Mol)
 Warning -- explicit consideration of   6 degrees of freedom as
           vibrations may cause significant error
 Vibrational temperatures:    150.17   242.52   396.17   466.75   673.32
          (Kelvin)            789.14  1219.06  1281.68  1313.88  1319.67
                             1450.18  1732.79  1851.67  1988.17  2028.85
                             2242.61  2507.57  4279.45  4338.61  4394.79
                             4542.88

 Zero-point correction=                           0.062085 (Hartree/Particle)
 Thermal correction to Energy=                    0.067846
 Thermal correction to Enthalpy=                  0.068790
 Thermal correction to Gibbs Free Energy=         0.032385
 Sum of electronic and zero-point Energies=           -192.649224
 Sum of electronic and thermal Energies=              -192.643463
 Sum of electronic and thermal Enthalpies=            -192.642519
 Sum of electronic and thermal Free Energies=         -192.678925

                     E (Thermal)             CV                S
                      KCal/Mol        Cal/Mol-Kelvin    Cal/Mol-Kelvin
 Total                   42.574             18.679             76.622
 Electronic               0.000              0.000              2.183
 Translational            0.889              2.981             38.389
 Rotational               0.889              2.981             25.297
 Vibrational             40.797             12.717             10.753
 Vibration     1          0.605              1.946              3.371
 Vibration     2          0.625              1.881              2.451
 Vibration     3          0.677              1.719              1.562
 Vibration     4          0.709              1.627              1.288
 Vibration     5          0.825              1.321              0.743
 Vibration     6          0.904              1.143              0.547

 Optimization completed.
    -- Stationary point found.
 Normal termination of Gaussian 09 at Wed Jun 22 04:44:46 2016.
