 Gaussian 09, Revision E.01,
 Gaussian 09:  EM64L-G09RevE.01 30-Nov-2015

 ---------------------------------------------
 #p b3lyp/6-311++G(3df,2p) freq symmetry=Loose
 ---------------------------------------------

 ---------
 b3lyp opt
 ---------
 Symbolic Z-matrix:
 Charge =  1 Multiplicity = 2

                         Standard orientation:
 ---------------------------------------------------------------------
 Center     Atomic      Atomic             Coordinates (Angstroms)
 Number     Number       Type             X           Y           Z
 ---------------------------------------------------------------------
      1          6           0       -0.103786    1.857580    0.000000
      2          6           0        1.020996    1.122535   -0.000000
      3          6           0       -0.000000    0.275173    0.000000
      4          6           0       -0.970681   -0.834307    0.000000
      5          1           0       -1.565164   -0.854175    0.912313
      6          1           0       -1.565164   -0.854175   -0.912313
      7          6           0        0.310092   -1.535997   -0.000000
      8          1           0        0.795298   -1.800778   -0.931283
      9          1           0        0.795298   -1.800778    0.931283
 ---------------------------------------------------------------------

 SCF Done:  E(UB3LYP) =  -192.402780155     A.U. after   17 cycles

 The electronic state is 2-A'.
 Alpha  occ. eigenvalues --  -10.53628 -10.49320 -10.48338 -10.48204 -10.46299
 Alpha  occ. eigenvalues --   -1.18819  -1.10070  -0.89078  -0.80839  -0.75495
 Alpha  occ. eigenvalues --   -0.73336  -0.70484  -0.64563  -0.64234  -0.60954
 Alpha  occ. eigenvalues --   -0.51595  -0.50336
 Alpha virt. eigenvalues --   -0.32230  -0.30488  -0.22659  -0.17350  -0.14377
 Alpha virt. eigenvalues --   -0.13755  -0.12671  -0.10628  -0.08927  -0.08058
 Alpha virt. eigenvalues --   -0.07171  -0.06818  -0.06157  -0.05180  -0.03819

  Beta  occ. eigenvalues --  -10.53513 -10.48776 -10.48152 -10.47073 -10.46341
  Beta  occ. eigenvalues --   -1.18111  -1.09311  -0.87934  -0.79963  -0.75274
  Beta  occ. eigenvalues --   -0.71932  -0.69266  -0.64299  -0.61173  -0.60384
  Beta  occ. eigenvalues --   -0.50761
  Beta virt. eigenvalues --   -0.38806  -0.30445  -0.29090  -0.21008  -0.17183
  Beta virt. eigenvalues --   -0.14099  -0.13685  -0.12395  -0.10392  -0.08611
  Beta virt. eigenvalues --   -0.08024  -0.07120  -0.06371  -0.05556  -0.04900

 Mulliken charges and spin densities:
               1          2
     1  C   -0.177305   0.045119
     2  C    0.272754   0.715383
     3  C    0.257052  -0.021351
     4  C   -0.037874  -0.072763
     5  H    0.230858   0.009757
     6  H    0.230858   0.009757
     7  C   -0.257834   0.333049
     8  H    0.240746  -0.009476
     9  H    0.240746  -0.009476
 Sum of Mulliken charges =   1.00000   1.00000

 Dipole moment (field-independent basis, Debye):
    X=              0.1297    Y=             -3.6427    Z=             -0.0000  Tot=              3.6450
 Quadrupole moment (field-independent basis, Debye-Ang):
   XX=            -22.9203   YY=            -20.2153   ZZ=            -24.2583
   XY=              2.1832   XZ=             -0.0000   YZ=             -0.0000

  Exact polarizability:  45.918   4.609  77.617   0.000   0.000  34.259
 Approx polarizability:  77.930  13.212 149.050   0.000   0.000  52.174

                      1                      2                      3
                     A'                     A"                     A'
 Frequencies --    132.4407               133.8153               231.8734
 Red. masses --      6.7606                 4.9102                 5.4063
 Frc consts  --      0.0699                 0.0518                 0.1713
 IR Inten    --     28.9834                 1.3902                 7.9835

                      4                      5                      6
                     A"                     A'                     A"
 Frequencies --    361.7096               440.3892               706.0147
 Red. masses --      2.9466                10.0959                 1.0742
 Frc consts  --      0.2271                 1.1536                 0.3155
 IR Inten    --      0.0004                73.7754                 3.4926

                      7                      8                      9
                     A'                     A"                     A'
 Frequencies --    746.5918               816.2569              1021.1370
 Red. masses --      6.4748                 1.1049                 1.2304
 Frc consts  --      2.1264                 0.4337                 0.7559
 IR Inten    --     35.2385                 2.1353                 4.9103

                     10                     11                     12
                     A"                     A'                     A'
 Frequencies --   1030.1593              1120.6384              1165.6742
 Red. masses --      1.3751                 3.3106                 1.2977
 Frc consts  --      0.8598                 2.4496                 1.0389
 IR Inten    --      0.2156                 0.4881                 1.6463

                     13                     14                     15
                     A"                     A'                     A'
 Frequencies --   1215.0668              1360.3752              1432.8586
 Red. masses --      1.2731                 8.5706                 1.1166
 Frc consts  --      1.1074                 9.3449                 1.3507
 IR Inten    --      1.2647                 8.9417                21.6728

                     16                     17                     18
                     A'                     A'                     A'
 Frequencies --   1481.6269              1648.8962              3067.2063
 Red. masses --      1.1921                10.4203                 1.0548
 Frc consts  --      1.5418                16.6923                 5.8465
 IR Inten    --      4.7560                 9.4125                43.4701

                     19                     20                     21
                     A'                     A"                     A"
 Frequencies --   3133.2624              3144.1017              3253.0897
 Red. masses --      1.0511                 1.1152                 1.1241
 Frc consts  --      6.0796                 6.4951                 7.0090
 IR Inten    --     38.5609                29.5689                22.3800

 - Thermochemistry -
 -------------------
 Temperature   298.150 Kelvin.  Pressure   1.00000 Atm.
 Atom     1 has atomic number  6 and mass  12.00000

 Molecular mass:    64.03130 amu.
 Principal axes and moments of inertia in atomic units:
                           1         2         3
     Eigenvalues --   112.80719 386.43335 474.77302
           X            0.20152   0.97948   0.00000
           Y            0.97948  -0.20152   0.00000
           Z            0.00000   0.00000   1.00000
 This molecule is an asymmetric top.
 Rotational symmetry number  1.
 Rotational temperatures (Kelvin)      0.76780     0.22414     0.18243
 Rotational constants (GHZ):          15.99846     4.67025     3.80127
 Zero-point vibrational energy     165343.0 (Joules/Mol)
                                   39.51792 (Kcal/Mol)
 Warning -- explicit consideration of   5 degrees of freedom as
           vibrations may cause significant error
 Vibrational temperatures:    190.55   192.53   333.61   520.42   633.62
          (Kelvin)           1015.80  1074.18  1174.41  1469.19  1482.17
                             1612.35  1677.14  1748.21  1957.27  2061.56
                             2131.73  2372.39  4413.02  4508.06  4523.66
                             4680.46

 Zero-point correction=                           0.062976 (Hartree/Particle)
 Thermal correction to Energy=                    0.068715
 Thermal correction to Enthalpy=                  0.069659
 Thermal correction to Gibbs Free Energy=         0.034010
 Sum of electronic and zero-point Energies=           -192.339804
 Sum of electronic and thermal Energies=              -192.334065
 Sum of electronic and thermal Enthalpies=            -192.333121
 Sum of electronic and thermal Free Energies=         -192.368770

                     E (Thermal)             CV                S
                      KCal/Mol        Cal/Mol-Kelvin    Cal/Mol-Kelvin
 Total                   43.119             18.439             75.030
 Electronic               0.000              0.000              1.377
 Translational            0.889              2.981             38.389
 Rotational               0.889              2.981             24.541
 Vibrational             41.342             12.477             10.723
 Vibration     1          0.613              1.921              2.910
 Vibration     2          0.613              1.920              2.890
 Vibration     3          0.653              1.792              1.864
 Vibration     4          0.736              1.551              1.115
 Vibration     5          0.800              1.382              0.825

 Normal termination of Gaussian 09 at Wed Jul 20 03:33:29 2016.
