 Gaussian 09, Revision E.01,
 Gaussian 09:  EM64L-G09RevE.01 30-Nov-2015

 ---------------------------------------------
 #p b3lyp/6-311++G(3df,2p) freq symmetry=Loose
 ---------------------------------------------

 ---------
 b3lyp opt
 ---------
 Symbolic Z-matrix:
 Charge =  1 Multiplicity = 2

                         Standard orientation:
 ---------------------------------------------------------------------
 Center     Atomic      Atomic             Coordinates (Angstroms)
 Number     Number       Type             X           Y           Z
 ---------------------------------------------------------------------
      1          6           0        1.030052   -0.002435    0.156407
      2          6           0       -0.249667   -0.008772    0.648013
      3          1           0       -0.406588   -0.020588    1.719714
      4          6           0       -1.426565    0.627493   -0.272396
      5          1           0       -1.696260    1.655301   -0.442029
      6          6           0        2.178207    0.003367   -0.273293
      7          1           0        3.180613    0.007299   -0.646204
      8          6           0       -1.427800   -0.619606   -0.284750
      9          1           0       -1.703136   -1.642293   -0.475367
 ---------------------------------------------------------------------

 SCF Done:  E(UB3LYP) =  -192.503585493     A.U. after   16 cycles

 The electronic state is 2-A.
 Alpha  occ. eigenvalues --  -10.46852 -10.44966 -10.44806 -10.44084 -10.43129
 Alpha  occ. eigenvalues --   -1.12613  -1.01575  -0.90597  -0.81220  -0.76612
 Alpha  occ. eigenvalues --   -0.74549  -0.72060  -0.64844  -0.59621  -0.52789
 Alpha  occ. eigenvalues --   -0.51890  -0.49452
 Alpha virt. eigenvalues --   -0.23309  -0.21023  -0.20980  -0.14828  -0.12745
 Alpha virt. eigenvalues --   -0.12358  -0.11566  -0.09985  -0.08792  -0.08701
 Alpha virt. eigenvalues --   -0.07772  -0.06542  -0.05513  -0.04502  -0.03996

  Beta  occ. eigenvalues --  -10.46394 -10.44835 -10.44673 -10.43306 -10.43089
  Beta  occ. eigenvalues --   -1.11586  -0.99909  -0.89431  -0.80281  -0.75752
  Beta  occ. eigenvalues --   -0.73954  -0.71657  -0.64169  -0.55865  -0.52635
  Beta  occ. eigenvalues --   -0.51237
  Beta virt. eigenvalues --   -0.39682  -0.22504  -0.20558  -0.18819  -0.14581
  Beta virt. eigenvalues --   -0.12553  -0.12229  -0.11383  -0.09759  -0.08618
  Beta virt. eigenvalues --   -0.07530  -0.07371  -0.05888  -0.05337  -0.03995

 Mulliken charges and spin densities:
               1          2
     1  C   -0.124087   0.053194
     2  C   -0.518521   0.294474
     3  H    0.230534  -0.011724
     4  C   -0.024071   0.081110
     5  H    0.335499   0.023465
     6  C    0.411345   0.471398
     7  H    0.376082  -0.014502
     8  C   -0.022120   0.078770
     9  H    0.335339   0.023816
 Sum of Mulliken charges =   1.00000   1.00000

 Dipole moment (field-independent basis, Debye):
    X=              0.1238    Y=              0.0076    Z=             -0.3707  Tot=              0.3909
 Quadrupole moment (field-independent basis, Debye-Ang):
   XX=             -7.5252   YY=            -21.0343   ZZ=            -25.1953
   XY=              0.0230   XZ=             -1.4603   YZ=              0.0325

  Exact polarizability:  85.246   0.042  39.657  -3.357   0.010  36.856
 Approx polarizability: 137.363   0.125  66.293 -10.733   0.066  55.228

                      1                      2                      3
                      A                      A                      A
 Frequencies --     51.9248               197.4960               282.3960
 Red. masses --      2.5789                 4.3270                 6.5403
 Frc consts  --      0.0041                 0.0994                 0.3073
 IR Inten    --      8.3471                 4.3492                13.9535

                      4                      5                      6
                      A                      A                      A
 Frequencies --    416.2442               525.6682               687.3363
 Red. masses --      2.7837                 5.8403                 1.2670
 Frc consts  --      0.2842                 0.9508                 0.3527
 IR Inten    --     10.0253                25.4449                52.5895

                      7                      8                      9
                      A                      A                      A
 Frequencies --    691.3406               695.4601               702.4546
 Red. masses --      1.4854                 1.2221                 1.5454
 Frc consts  --      0.4183                 0.3482                 0.4493
 IR Inten    --      0.1078                41.9316                20.7334

                     10                     11                     12
                      A                      A                      A
 Frequencies --    801.4699               821.3584               895.2102
 Red. masses --      1.1776                 5.2084                 1.0844
 Frc consts  --      0.4457                 2.0703                 0.5120
 IR Inten    --     29.7189               128.5183                56.3863

                     13                     14                     15
                      A                      A                      A
 Frequencies --    971.7793              1109.9695              1333.5148
 Red. masses --      1.4015                 3.6863                 1.2514
 Frc consts  --      0.7798                 2.6759                 1.3112
 IR Inten    --      0.4156                32.5297                 4.2020

                     16                     17                     18
                      A                      A                      A
 Frequencies --   1849.2881              2079.8336              3163.2376
 Red. masses --      4.3393                 6.6292                 1.0888
 Frc consts  --      8.7434                16.8954                 6.4191
 IR Inten    --     28.1115               101.3323                 8.7867

                     19                     20                     21
                      A                      A                      A
 Frequencies --   3252.5577              3327.5113              3387.2416
 Red. masses --      1.0837                 1.1874                 1.1476
 Frc consts  --      6.7550                 7.7460                 7.7576
 IR Inten    --    173.7211               109.1590               136.5960

 - Thermochemistry -
 -------------------
 Temperature   298.150 Kelvin.  Pressure   1.00000 Atm.
 Atom     1 has atomic number  6 and mass  12.00000

 Molecular mass:    64.03130 amu.
 Principal axes and moments of inertia in atomic units:
                           1         2         3
     Eigenvalues --    95.41793 526.36314 536.74319
           X            0.99995   0.00020  -0.00961
           Y           -0.00017   1.00000   0.00296
           Z            0.00961  -0.00296   0.99995
 This molecule is an asymmetric top.
 Rotational symmetry number  1.
 Rotational temperatures (Kelvin)      0.90773     0.16455     0.16137
 Rotational constants (GHZ):          18.91407     3.42870     3.36239
 Zero-point vibrational energy     162951.1 (Joules/Mol)
                                   38.94624 (Kcal/Mol)
 Warning -- explicit consideration of   5 degrees of freedom as
           vibrations may cause significant error
 Vibrational temperatures:     74.71   284.15   406.30   598.88   756.32
          (Kelvin)            988.92   994.68  1000.61  1010.67  1153.13
                             1181.75  1288.01  1398.17  1597.00  1918.63
                             2660.71  2992.41  4551.19  4679.70  4787.54
                             4873.48

 Zero-point correction=                           0.062065 (Hartree/Particle)
 Thermal correction to Energy=                    0.067977
 Thermal correction to Enthalpy=                  0.068921
 Thermal correction to Gibbs Free Energy=         0.032586
 Sum of electronic and zero-point Energies=           -192.441521
 Sum of electronic and thermal Energies=              -192.435608
 Sum of electronic and thermal Enthalpies=            -192.434664
 Sum of electronic and thermal Free Energies=         -192.470999

                     E (Thermal)             CV                S
                      KCal/Mol        Cal/Mol-Kelvin    Cal/Mol-Kelvin
 Total                   42.656             20.093             76.474
 Electronic               0.000              0.000              1.377
 Translational            0.889              2.981             38.389
 Rotational               0.889              2.981             24.803
 Vibrational             40.879             14.131             11.904
 Vibration     1          0.596              1.977              4.743
 Vibration     2          0.637              1.843              2.156
 Vibration     3          0.681              1.706              1.519
 Vibration     4          0.779              1.435              0.905
 Vibration     5          0.881              1.193              0.597

 Normal termination of Gaussian 09 at Mon Jun 20 03:43:28 2016.
