 Gaussian 09, Revision E.01,
 Gaussian 09:  EM64L-G09RevE.01 30-Nov-2015

 ---------------------------------------------
 #p b3lyp/6-311++G(3df,2p) freq symmetry=Loose
 ---------------------------------------------

 ---------
 b3lyp opt
 ---------
 Symbolic Z-matrix:
 Charge =  1 Multiplicity = 2

                         Standard orientation:
 ---------------------------------------------------------------------
 Center     Atomic      Atomic             Coordinates (Angstroms)
 Number     Number       Type             X           Y           Z
 ---------------------------------------------------------------------
      1          6           0       -0.939476   -0.745574    0.000000
      2          1           0       -1.998311   -0.489185    0.000000
      3          6           0       -0.527353   -2.000744    0.000000
      4          1           0       -0.938555   -2.998987    0.000000
      5          6           0        0.000000    0.322500    0.000000
      6          6           0        0.279156    1.669745    0.000000
      7          1           0       -0.058840    2.694180    0.000000
      8          6           0        1.294369    0.787474    0.000000
      9          1           0        2.355529    0.593588    0.000000
 ---------------------------------------------------------------------

 SCF Done:  E(UB3LYP) =  -192.534293107     A.U. after   15 cycles

 The electronic state is 2-A'.
 Alpha  occ. eigenvalues --  -10.47903 -10.46750 -10.46633 -10.43064 -10.40409
 Alpha  occ. eigenvalues --   -1.18512  -1.01424  -0.85458  -0.82584  -0.78754
 Alpha  occ. eigenvalues --   -0.71189  -0.69152  -0.64052  -0.61215  -0.58669
 Alpha  occ. eigenvalues --   -0.50923  -0.45852
 Alpha virt. eigenvalues --   -0.29340  -0.26008  -0.15113  -0.14130  -0.12957
 Alpha virt. eigenvalues --   -0.12808  -0.11216  -0.09671  -0.09394  -0.08347
 Alpha virt. eigenvalues --   -0.07041  -0.05313  -0.04504  -0.03717  -0.03515

  Beta  occ. eigenvalues --  -10.47807 -10.46768 -10.46646 -10.41417 -10.40532
  Beta  occ. eigenvalues --   -1.18516  -1.00104  -0.83719  -0.82454  -0.78405
  Beta  occ. eigenvalues --   -0.69700  -0.68091  -0.64153  -0.60892  -0.58308
  Beta  occ. eigenvalues --   -0.50244
  Beta virt. eigenvalues --   -0.28971  -0.28169  -0.26113  -0.14709  -0.14037
  Beta virt. eigenvalues --   -0.12948  -0.12663  -0.10994  -0.09455  -0.09445
  Beta virt. eigenvalues --   -0.08175  -0.06898  -0.05241  -0.04427  -0.03423

 Mulliken charges and spin densities:
               1          2
     1  C   -0.175553  -0.108151
     2  H    0.203436   0.062153
     3  C   -0.321140   1.108172
     4  H    0.285899   0.018885
     5  C    0.028014  -0.014103
     6  C    0.069585  -0.034618
     7  H    0.315482  -0.000292
     8  C    0.282175  -0.030946
     9  H    0.312101  -0.001100
 Sum of Mulliken charges =   1.00000   1.00000

 Dipole moment (field-independent basis, Debye):
    X=              0.5862    Y=              1.2240    Z=              0.0000  Tot=              1.3571
 Quadrupole moment (field-independent basis, Debye-Ang):
   XX=            -17.5392   YY=             -9.2822   ZZ=            -27.8421
   XY=              5.1557   XZ=              0.0000   YZ=              0.0000

  Exact polarizability:  47.789   8.579  71.002  -0.000  -0.000  29.387
 Approx polarizability:  70.815   7.333 111.916  -0.000  -0.000  43.545

                      1                      2                      3
                     A"                     A'                     A"
 Frequencies --    154.4855               226.6433               414.1143
 Red. masses --      2.9549                 3.2134                 2.1338
 Frc consts  --      0.0416                 0.0973                 0.2156
 IR Inten    --      1.4127                 4.7160                32.7441

                      4                      5                      6
                     A'                     A"                     A'
 Frequencies --    518.9872               710.4123               724.5195
 Red. masses --      3.1519                 1.2962                 1.7567
 Frc consts  --      0.5002                 0.3854                 0.5433
 IR Inten    --      2.1815                12.5730                16.0033

                      7                      8                      9
                     A"                     A'                     A"
 Frequencies --    870.2442               889.1202               908.5437
 Red. masses --      1.4810                 1.5570                 1.4320
 Frc consts  --      0.6608                 0.7252                 0.6965
 IR Inten    --     55.0495                13.6200                 5.0326

                     10                     11                     12
                     A'                     A"                     A'
 Frequencies --    990.0103               999.3433              1037.4618
 Red. masses --      1.3317                 1.4297                 1.5849
 Frc consts  --      0.7690                 0.8413                 1.0051
 IR Inten    --     12.9150                 0.0548                 2.3131

                     13                     14                     15
                     A'                     A'                     A'
 Frequencies --   1232.7167              1302.6245              1419.4066
 Red. masses --      2.1069                 2.0354                 7.0085
 Frc consts  --      1.8863                 2.0348                 8.3194
 IR Inten    --     24.7257                10.8924               212.1175

                     16                     17                     18
                     A'                     A'                     A'
 Frequencies --   1593.9412              1761.6483              3088.5795
 Red. masses --      6.2969                 6.7769                 1.0853
 Frc consts  --      9.4258                12.3913                 6.1000
 IR Inten    --    105.7685               138.4937                 9.1264

                     19                     20                     21
                     A'                     A'                     A'
 Frequencies --   3243.4462              3246.2255              3276.2056
 Red. masses --      1.0968                 1.1053                 1.1426
 Frc consts  --      6.7979                 6.8628                 7.2260
 IR Inten    --     66.5280                31.2139                48.9404

 - Thermochemistry -
 -------------------
 Temperature   298.150 Kelvin.  Pressure   1.00000 Atm.
 Atom     1 has atomic number  6 and mass  12.00000

 Molecular mass:    64.03130 amu.
 Principal axes and moments of inertia in atomic units:
                           1         2         3
     Eigenvalues --    85.57849 483.28326 568.86175
           X            0.43943   0.89828   0.00000
           Y            0.89828  -0.43943   0.00000
           Z            0.00000  -0.00000   1.00000
 This molecule is an asymmetric top.
 Rotational symmetry number  1.
 Rotational temperatures (Kelvin)      1.01210     0.17922     0.15226
 Rotational constants (GHZ):          21.08872     3.73433     3.17255
 Zero-point vibrational energy     171117.9 (Joules/Mol)
                                   40.89816 (Kcal/Mol)
 Warning -- explicit consideration of   4 degrees of freedom as
           vibrations may cause significant error
 Vibrational temperatures:    222.27   326.09   595.82   746.71  1022.12
          (Kelvin)           1042.42  1252.09  1279.24  1307.19  1424.40
                             1437.83  1492.67  1773.60  1874.18  2042.21
                             2293.32  2534.62  4443.77  4666.59  4670.59
                             4713.72

 Zero-point correction=                           0.065175 (Hartree/Particle)
 Thermal correction to Energy=                    0.070195
 Thermal correction to Enthalpy=                  0.071139
 Thermal correction to Gibbs Free Energy=         0.036999
 Sum of electronic and zero-point Energies=           -192.469118
 Sum of electronic and thermal Energies=              -192.464098
 Sum of electronic and thermal Enthalpies=            -192.463154
 Sum of electronic and thermal Free Energies=         -192.497294

                     E (Thermal)             CV                S
                      KCal/Mol        Cal/Mol-Kelvin    Cal/Mol-Kelvin
 Total                   44.048             17.063             71.854
 Electronic               0.000              0.000              1.377
 Translational            0.889              2.981             38.389
 Rotational               0.889              2.981             24.668
 Vibrational             42.271             11.101              7.419
 Vibration     1          0.620              1.898              2.616
 Vibration     2          0.650              1.800              1.905
 Vibration     3          0.778              1.440              0.912
 Vibration     4          0.874              1.208              0.612

 Optimization completed.
    -- Stationary point found.
 Normal termination of Gaussian 09 at Mon Jun 20 03:38:54 2016.
