 Gaussian 09, Revision E.01,
 Gaussian 09:  EM64L-G09RevE.01 30-Nov-2015

 ---------------------------------------------
 #p b3lyp/6-311++G(3df,2p) freq symmetry=Loose
 ---------------------------------------------

 ---------
 b3lyp opt
 ---------
 Symbolic Z-matrix:
 Charge =  2 Multiplicity = 3

                         Standard orientation:
 ---------------------------------------------------------------------
 Center     Atomic      Atomic             Coordinates (Angstroms)
 Number     Number       Type             X           Y           Z
 ---------------------------------------------------------------------
      1          6           0        1.295504   -0.000000    0.326511
      2          1           0        1.943788    0.865474    0.615287
      3          1           0        1.943788   -0.865474    0.615287
      4          6           0        0.721428   -0.000000   -1.025033
      5          6           0       -0.721428    0.000000   -1.025033
      6          6           0        0.000000    0.000000    0.986847
      7          6           0       -1.295504    0.000000    0.326511
      8          1           0       -1.943788   -0.865474    0.615287
      9          1           0       -1.943788    0.865474    0.615287
 ---------------------------------------------------------------------

 SCF Done:  E(UB3LYP) =  -191.801349987     A.U. after   16 cycles

 The electronic state is 3-A2.
 Alpha  occ. eigenvalues --  -10.81177 -10.77255 -10.77217 -10.70003 -10.70001
 Alpha  occ. eigenvalues --   -1.41953  -1.25819  -1.20552  -1.04857  -1.01704
 Alpha  occ. eigenvalues --   -0.96062  -0.95364  -0.92461  -0.89447  -0.81145
 Alpha  occ. eigenvalues --   -0.78164  -0.73975
 Alpha virt. eigenvalues --   -0.60652  -0.59104  -0.53925  -0.35379  -0.31790
 Alpha virt. eigenvalues --   -0.30956  -0.29737  -0.27848  -0.27694  -0.27642
 Alpha virt. eigenvalues --   -0.23878  -0.23753  -0.22197  -0.22177  -0.19222

  Beta  occ. eigenvalues --  -10.82266 -10.74994 -10.74962 -10.69890 -10.69888
  Beta  occ. eigenvalues --   -1.40374  -1.24806  -1.16971  -1.04881  -0.98711
  Beta  occ. eigenvalues --   -0.94460  -0.93917  -0.92248  -0.88475  -0.77670
  Beta virt. eigenvalues --   -0.64752  -0.61591  -0.59040  -0.55213  -0.45587
  Beta virt. eigenvalues --   -0.35234  -0.31473  -0.30319  -0.29555  -0.27366
  Beta virt. eigenvalues --   -0.27084  -0.26892  -0.23329  -0.23070  -0.21261

 Mulliken charges and spin densities:
               1          2
     1  C   -0.234290   0.026842
     2  H    0.292871   0.021964
     3  H    0.292871   0.021964
     4  C    0.345476   1.268887
     5  C    0.345476   1.268887
     6  C    0.606143  -0.679315
     7  C   -0.234290   0.026842
     8  H    0.292871   0.021964
     9  H    0.292871   0.021964
 Sum of Mulliken charges =   2.00000   2.00000

 Dipole moment (field-independent basis, Debye):
    X=              0.0000    Y=             -0.0000    Z=              1.6836  Tot=              1.6836
 Quadrupole moment (field-independent basis, Debye-Ang):
   XX=             -4.1587   YY=            -20.4790   ZZ=            -17.9777
   XY=             -0.0000   XZ=             -0.0000   YZ=              0.0000

  Exact polarizability:  57.340  -0.000  30.269   0.000   0.000  46.430
 Approx polarizability:  99.976  -0.000  48.367   0.000   0.000  96.298

                      1                      2                      3
                     B2                     A2                     A1
 Frequencies --    220.0552               329.6970               494.4868
 Red. masses --      1.5383                 1.6337                 8.3695
 Frc consts  --      0.0439                 0.1046                 1.2058
 IR Inten    --     32.7200                 0.0000                34.8068

                      4                      5                      6
                     B1                     A2                     B2
 Frequencies --    558.5504               635.2834               692.5731
 Red. masses --      9.6333                 1.8712                 1.8408
 Frc consts  --      1.7707                 0.4449                 0.5202
 IR Inten    --     10.7592                 0.0000                28.1428

                      7                      8                      9
                     A1                     B1                     A1
 Frequencies --    761.7609               918.6692               979.3250
 Red. masses --      2.8163                 2.8123                 7.9678
 Frc consts  --      0.9629                 1.3984                 4.5024
 IR Inten    --      5.9962                12.9499                 3.6033

                     10                     11                     12
                     A2                     B2                     B1
 Frequencies --    982.3762              1047.6910              1085.6517
 Red. masses --      1.3174                 1.2587                 1.7358
 Frc consts  --      0.7491                 0.8140                 1.2054
 IR Inten    --      0.0000                 0.0971               465.4640

                     13                     14                     15
                     B1                     A1                     A1
 Frequencies --   1161.1054              1167.5258              1183.0569
 Red. masses --      1.6972                 1.2024                 1.3193
 Frc consts  --      1.3481                 0.9657                 1.0880
 IR Inten    --      9.4780                 1.6757                84.0583

                     16                     17                     18
                     B1                     A1                     A2
 Frequencies --   1259.7274              1362.0819              2798.7743
 Red. masses --      2.1705                 7.9311                 1.0859
 Frc consts  --      2.0294                 8.6694                 5.0117
 IR Inten    --     26.6896                28.3724                 0.0000

                     19                     20                     21
                     B2                     B1                     A1
 Frequencies --   2801.3556              2807.2981              2845.4518
 Red. masses --      1.0906                 1.0609                 1.0672
 Frc consts  --      5.0426                 4.9261                 5.0910
 IR Inten    --    434.4647               891.9003                67.1802

 - Thermochemistry -
 -------------------
 Temperature   298.150 Kelvin.  Pressure   1.00000 Atm.
 Atom     1 has atomic number  6 and mass  12.00000

 Molecular mass:    64.03130 amu.
 Principal axes and moments of inertia in atomic units:
                           1         2         3
     Eigenvalues --   156.82086 253.62454 388.87884
           X            1.00000   0.00000   0.00000
           Y           -0.00000   0.00000   1.00000
           Z           -0.00000   1.00000   0.00000
 This molecule is an asymmetric top.
 Rotational symmetry number  2.
 Rotational temperatures (Kelvin)      0.55231     0.34150     0.22273
 Rotational constants (GHZ):          11.50830     7.11580     4.64088
 Zero-point vibrational energy     156067.8 (Joules/Mol)
                                   37.30110 (Kcal/Mol)
 Warning -- explicit consideration of   4 degrees of freedom as
           vibrations may cause significant error
 Vibrational temperatures:    316.61   474.36   711.46   803.63   914.03
          (Kelvin)            996.46  1096.00  1321.76  1409.03  1413.42
                             1507.39  1562.01  1670.57  1679.81  1702.15
                             1812.46  1959.73  4026.81  4030.52  4039.07
                             4093.97

 Zero-point correction=                           0.059443 (Hartree/Particle)
 Thermal correction to Energy=                    0.064215
 Thermal correction to Enthalpy=                  0.065159
 Thermal correction to Gibbs Free Energy=         0.032146
 Sum of electronic and zero-point Energies=           -191.741907
 Sum of electronic and thermal Energies=              -191.737135
 Sum of electronic and thermal Enthalpies=            -191.736191
 Sum of electronic and thermal Free Energies=         -191.769204

                     E (Thermal)             CV                S
                      KCal/Mol        Cal/Mol-Kelvin    Cal/Mol-Kelvin
 Total                   40.296             17.148             69.482
 Electronic               0.000              0.000              2.183
 Translational            0.889              2.981             38.389
 Rotational               0.889              2.981             22.874
 Vibrational             38.518             11.186              6.036
 Vibration     1          0.647              1.811              1.959
 Vibration     2          0.712              1.616              1.262
 Vibration     3          0.850              1.262              0.672
 Vibration     4          0.914              1.121              0.527

 Optimization completed.
    -- Stationary point found.
 Normal termination of Gaussian 09 at Wed Jul 20 08:14:45 2016.
