 Gaussian 09, Revision E.01,
 Gaussian 09:  EM64L-G09RevE.01 30-Nov-2015

 ---------------------------------------------
 #p b3lyp/6-311++G(3df,2p) freq symmetry=Loose
 ---------------------------------------------

 ---------
 b3lyp opt
 ---------
 Symbolic Z-matrix:
 Charge =  0 Multiplicity = 3

                         Standard orientation:
 ---------------------------------------------------------------------
 Center     Atomic      Atomic             Coordinates (Angstroms)
 Number     Number       Type             X           Y           Z
 ---------------------------------------------------------------------
      1          6           0        0.720311    1.687922   -0.000000
      2          6           0       -0.963188   -1.748706    0.000000
      3          1           0       -0.008536   -2.255203    0.000000
      4          1           0       -1.854116   -2.357159    0.000000
      5          6           0       -1.051341   -0.371166    0.000000
      6          1           0       -2.032581    0.095654    0.000000
      7          6           0        0.000000    0.498891   -0.000000
      8          6           0        1.533164    0.664368   -0.000000
      9          1           0        2.461558    0.128853   -0.000000
 ---------------------------------------------------------------------

 SCF Done:  E(UB3LYP) =  -192.760573290     A.U. after   17 cycles

 The electronic state is 3-A".
 Alpha  occ. eigenvalues --  -10.24199 -10.23991 -10.23800 -10.18588 -10.17203
 Alpha  occ. eigenvalues --   -0.93415  -0.79077  -0.66081  -0.60603  -0.52832
 Alpha  occ. eigenvalues --   -0.46494  -0.45394  -0.41560  -0.40369  -0.38394
 Alpha  occ. eigenvalues --   -0.30030  -0.26434  -0.16964
 Alpha virt. eigenvalues --   -0.03652  -0.00590   0.00794   0.01877   0.03597
 Alpha virt. eigenvalues --    0.03655   0.04496   0.05415   0.06968   0.07467
 Alpha virt. eigenvalues --    0.08587   0.08700   0.10381   0.10659   0.11494

  Beta  occ. eigenvalues --  -10.23253 -10.23102 -10.22909 -10.18844 -10.16352
  Beta  occ. eigenvalues --   -0.91481  -0.78118  -0.63746  -0.58994  -0.51515
  Beta  occ. eigenvalues --   -0.45388  -0.42301  -0.38666  -0.38509  -0.36865
  Beta  occ. eigenvalues --   -0.27545
  Beta virt. eigenvalues --   -0.14059  -0.07087  -0.01262  -0.00441   0.00861
  Beta virt. eigenvalues --    0.02024   0.03836   0.04804   0.05041   0.05789
  Beta virt. eigenvalues --    0.07181   0.07781   0.09082   0.09116   0.10839

 Mulliken charges and spin densities:
               1          2
     1  C   -0.212721   0.494629
     2  C   -0.691238   0.679179
     3  H    0.127467  -0.018194
     4  H    0.165372  -0.018540
     5  C   -0.089058  -0.167323
     6  H    0.149174   0.025617
     7  C    0.252318   0.593213
     8  C    0.033620   0.420900
     9  H    0.265066  -0.009481
 Sum of Mulliken charges =  -0.00000   2.00000

 Dipole moment (field-independent basis, Debye):
    X=              1.0268    Y=             -0.6606    Z=              0.0000  Tot=              1.2210
 Quadrupole moment (field-independent basis, Debye-Ang):
   XX=            -24.7301   YY=            -32.4025   ZZ=            -32.9157
   XY=             -1.3775   XZ=              0.0000   YZ=              0.0000

  Exact polarizability:  74.483  21.678  84.150  -0.000  -0.000  41.269
 Approx polarizability: 113.636  26.092 127.111  -0.000  -0.000  58.405

                      1                      2                      3
                     A'                     A"                     A"
 Frequencies --    186.8127               203.2345               276.0690
 Red. masses --      3.2276                 5.6142                 1.9829
 Frc consts  --      0.0664                 0.1366                 0.0890
 IR Inten    --      4.1603                 1.1519                 6.6633

                      4                      5                      6
                     A"                     A'                     A"
 Frequencies --    497.7066               511.5944               546.6782
 Red. masses --      1.3233                 3.1525                 1.5582
 Frc consts  --      0.1931                 0.4861                 0.2744
 IR Inten    --     45.5353                 5.6761                 4.0833

                      7                      8                      9
                     A'                     A"                     A'
 Frequencies --    666.4263               735.6138               821.2761
 Red. masses --      5.2132                 1.3521                 3.3079
 Frc consts  --      1.3641                 0.4311                 1.3145
 IR Inten    --    100.9418                56.0920                44.2393

                     10                     11                     12
                     A'                     A"                     A'
 Frequencies --    870.6762               884.5517              1065.6847
 Red. masses --      1.2988                 1.1733                 1.6375
 Frc consts  --      0.5801                 0.5409                 1.0957
 IR Inten    --     82.2150                22.5294                 3.5956

                     13                     14                     15
                     A'                     A'                     A'
 Frequencies --   1223.8720              1345.5696              1433.7983
 Red. masses --      1.9474                 2.0077                 3.8916
 Frc consts  --      1.7186                 2.1417                 4.7136
 IR Inten    --      9.1419                29.5079                24.0643

                     16                     17                     18
                     A'                     A'                     A'
 Frequencies --   1509.4947              1716.8908              3118.1399
 Red. masses --      1.4107                 8.1880                 1.0848
 Frc consts  --      1.8939                14.2204                 6.2141
 IR Inten    --     16.3999                31.3641                 4.5671

                     19                     20                     21
                     A'                     A'                     A'
 Frequencies --   3150.3721              3245.3011              3312.5327
 Red. masses --      1.0547                 1.1171                 1.1103
 Frc consts  --      6.1676                 6.9318                 7.1784
 IR Inten    --      5.2633                 5.4369                47.4725

 - Thermochemistry -
 -------------------
 Temperature   298.150 Kelvin.  Pressure   1.00000 Atm.
 Atom     1 has atomic number  6 and mass  12.00000

 Molecular mass:    64.03130 amu.
 Principal axes and moments of inertia in atomic units:
                           1         2         3
     Eigenvalues --    89.16840 495.80733 584.97573
           X            0.64630   0.76309   0.00000
           Y            0.76309  -0.64630   0.00000
           Z            0.00000   0.00000   1.00000
 This molecule is an asymmetric top.
 Rotational symmetry number  1.
 Rotational temperatures (Kelvin)      0.97135     0.17469     0.14806
 Rotational constants (GHZ):          20.23969     3.64001     3.08516
 Zero-point vibrational energy     163423.6 (Joules/Mol)
                                   39.05918 (Kcal/Mol)
 Warning -- explicit consideration of   6 degrees of freedom as
           vibrations may cause significant error
 Vibrational temperatures:    268.78   292.41   397.20   716.09   736.07
          (Kelvin)            786.55   958.84  1058.38  1181.63  1252.71
                             1272.67  1533.28  1760.88  1935.97  2062.91
                             2171.82  2470.22  4486.30  4532.68  4669.26
                             4765.99

 Zero-point correction=                           0.062245 (Hartree/Particle)
 Thermal correction to Energy=                    0.067781
 Thermal correction to Enthalpy=                  0.068725
 Thermal correction to Gibbs Free Energy=         0.033388
 Sum of electronic and zero-point Energies=           -192.698329
 Sum of electronic and thermal Energies=              -192.692792
 Sum of electronic and thermal Enthalpies=            -192.691848
 Sum of electronic and thermal Free Energies=         -192.727186

                     E (Thermal)             CV                S
                      KCal/Mol        Cal/Mol-Kelvin    Cal/Mol-Kelvin
 Total                   42.533             19.165             74.374
 Electronic               0.000              0.000              2.183
 Translational            0.889              2.981             38.389
 Rotational               0.889              2.981             24.762
 Vibrational             40.756             13.203              9.040
 Vibration     1          0.632              1.858              2.259
 Vibration     2          0.639              1.835              2.104
 Vibration     3          0.678              1.718              1.558
 Vibration     4          0.853              1.255              0.664
 Vibration     5          0.867              1.224              0.630
 Vibration     6          0.902              1.147              0.551

 Optimization completed.
    -- Stationary point found.
 Normal termination of Gaussian 09 at Mon Jun 20 02:43:56 2016.
