 Gaussian 09, Revision E.01,
 Gaussian 09:  EM64L-G09RevE.01 30-Nov-2015

 ---------------------------------------------
 #p b3lyp/6-311++G(3df,2p) freq symmetry=Loose
 ---------------------------------------------

 ---------
 b3lyp opt
 ---------
 Symbolic Z-matrix:
 Charge =  0 Multiplicity = 1

                         Standard orientation:
 ---------------------------------------------------------------------
 Center     Atomic      Atomic             Coordinates (Angstroms)
 Number     Number       Type             X           Y           Z
 ---------------------------------------------------------------------
      1          6           0       -0.967041   -0.310558   -0.000000
      2          6           0       -0.000000    0.529414   -0.000000
      3          6           0        0.580553   -0.975040    0.000000
      4          6           0        0.602075    1.862110   -0.000000
      5          1           0        1.223922    2.021539    0.883175
      6          1           0        1.223922    2.021539   -0.883175
      7          1           0       -0.191671    2.608730   -0.000000
      8          6           0       -0.445625   -1.758783    0.000000
      9          1           0       -0.875936   -2.734668    0.000000
 ---------------------------------------------------------------------

 SCF Done:  E(RB3LYP) =  -192.778138509     A.U. after   13 cycles

 The electronic state is 1-A'.
 Alpha  occ. eigenvalues --  -10.23294 -10.22976 -10.21775 -10.20778 -10.19773
 Alpha  occ. eigenvalues --   -0.94135  -0.77647  -0.68488  -0.55573  -0.51592
 Alpha  occ. eigenvalues --   -0.45686  -0.44954  -0.43906  -0.38491  -0.38447
 Alpha  occ. eigenvalues --   -0.28680  -0.21750
 Alpha virt. eigenvalues --   -0.04645  -0.03748  -0.00601   0.00838   0.02875
 Alpha virt. eigenvalues --    0.03636   0.04580   0.05128   0.05380   0.07260
 Alpha virt. eigenvalues --    0.07847   0.08539   0.08633   0.10349   0.10746

 Mulliken charges:
               1
     1  C   -0.060712
     2  C    0.324714
     3  C   -0.248810
     4  C   -0.594283
     5  H    0.148063
     6  H    0.148063
     7  H    0.149740
     8  C   -0.143046
     9  H    0.276270
 Sum of Mulliken charges =  -0.00000

 Dipole moment (field-independent basis, Debye):
    X=              0.0471    Y=              0.8681    Z=             -0.0000  Tot=              0.8693
 Quadrupole moment (field-independent basis, Debye-Ang):
   XX=            -31.8608   YY=            -23.7672   ZZ=            -31.3730
   XY=              3.3059   XZ=              0.0000   YZ=              0.0000

  Exact polarizability:  56.518   4.800  73.147   0.000  -0.000  40.149
 Approx polarizability: 114.837   4.512 105.351   0.000   0.000  58.815

                      1                      2                      3
                     A"                     A"                     A'
 Frequencies --    170.4308               185.9856               279.5949
 Red. masses --      1.2357                 3.1019                 4.4104
 Frc consts  --      0.0211                 0.0632                 0.2031
 IR Inten    --      0.1263                 6.7444                40.4178

                      4                      5                      6
                     A'                     A"                     A"
 Frequencies --    345.8000               446.0072               487.5073
 Red. masses --      4.1540                 3.5118                 1.4261
 Frc consts  --      0.2927                 0.4116                 0.1997
 IR Inten    --     27.9884                18.4554                40.4819

                      7                      8                      9
                     A'                     A'                     A'
 Frequencies --    632.7773               731.9536               985.4894
 Red. masses --      7.2300                 6.9484                 1.4845
 Frc consts  --      1.7056                 2.1933                 0.8494
 IR Inten    --      0.2799                12.9840                 5.1717

                     10                     11                     12
                     A'                     A"                     A'
 Frequencies --   1049.9418              1060.9829              1072.8275
 Red. masses --      1.4508                 1.3431                 2.7450
 Frc consts  --      0.9423                 0.8908                 1.8614
 IR Inten    --      3.2634                 0.1600                 3.1539

                     13                     14                     15
                     A'                     A"                     A'
 Frequencies --   1416.1745              1465.1559              1492.0857
 Red. masses --      1.2361                 1.0397                 1.0451
 Frc consts  --      1.4606                 1.3150                 1.3709
 IR Inten    --      0.1834                10.2522                 7.7072

                     16                     17                     18
                     A'                     A'                     A'
 Frequencies --   1663.4191              1875.4046              3019.2104
 Red. masses --      7.3473                11.0648                 1.0355
 Frc consts  --     11.9779                22.9288                 5.5613
 IR Inten    --     10.4958                 9.5270                29.4551

                     19                     20                     21
                     A"                     A'                     A'
 Frequencies --   3065.6728              3103.5951              3375.6949
 Red. masses --      1.1019                 1.0987                 1.1142
 Frc consts  --      6.1014                 6.2355                 7.4805
 IR Inten    --     11.3649                 5.5206                32.0508

 - Thermochemistry -
 -------------------
 Temperature   298.150 Kelvin.  Pressure   1.00000 Atm.
 Atom     1 has atomic number  6 and mass  12.00000

 Molecular mass:    64.03130 amu.
 Principal axes and moments of inertia in atomic units:
                           1         2         3
     Eigenvalues --    72.28861 449.08540 510.14513
           X            0.25994   0.96563   0.00000
           Y            0.96563  -0.25994   0.00000
           Z           -0.00000  -0.00000   1.00000
 This molecule is an asymmetric top.
 Rotational symmetry number  1.
 Rotational temperatures (Kelvin)      1.19817     0.19287     0.16978
 Rotational constants (GHZ):          24.96577     4.01870     3.53770
 Zero-point vibrational energy     167032.8 (Joules/Mol)
                                   39.92181 (Kcal/Mol)
 Warning -- explicit consideration of   6 degrees of freedom as
           vibrations may cause significant error
 Vibrational temperatures:    245.21   267.59   402.27   497.53   641.70
          (Kelvin)            701.41   910.42  1053.12  1417.90  1510.63
                             1526.52  1543.56  2037.56  2108.03  2146.78
                             2393.29  2698.29  4343.96  4410.81  4465.38
                             4856.87

 Zero-point correction=                           0.063619 (Hartree/Particle)
 Thermal correction to Energy=                    0.069347
 Thermal correction to Enthalpy=                  0.070291
 Thermal correction to Gibbs Free Energy=         0.035767
 Sum of electronic and zero-point Energies=           -192.714519
 Sum of electronic and thermal Energies=              -192.708791
 Sum of electronic and thermal Enthalpies=            -192.707847
 Sum of electronic and thermal Free Energies=         -192.742371

                     E (Thermal)             CV                S
                      KCal/Mol        Cal/Mol-Kelvin    Cal/Mol-Kelvin
 Total                   43.516             19.036             72.662
 Electronic               0.000              0.000              0.000
 Translational            0.889              2.981             38.389
 Rotational               0.889              2.981             24.319
 Vibrational             41.739             13.074              9.954
 Vibration     1          0.626              1.879              2.431
 Vibration     2          0.632              1.859              2.267
 Vibration     3          0.680              1.711              1.536
 Vibration     4          0.724              1.584              1.185
 Vibration     5          0.805              1.370              0.808
 Vibration     6          0.843              1.278              0.690

 Optimization completed.
    -- Stationary point found.
 Normal termination of Gaussian 09 at Tue Jul 19 23:22:21 2016.
