 Gaussian 09, Revision E.01,
 Gaussian 09:  EM64L-G09RevE.01 30-Nov-2015

 ---------------------------------------------
 #p b3lyp/6-311++G(3df,2p) freq symmetry=Loose
 ---------------------------------------------

 ---------
 b3lyp opt
 ---------
 Symbolic Z-matrix:
 Charge =  3 Multiplicity = 4

                         Standard orientation:
 ---------------------------------------------------------------------
 Center     Atomic      Atomic             Coordinates (Angstroms)
 Number     Number       Type             X           Y           Z
 ---------------------------------------------------------------------
      1          6           0       -1.115494    0.335696    0.000132
      2          6           0       -2.412514   -0.265908    0.000328
      3          1           0       -1.298537    1.460578    0.000109
      4          1           0       -2.967950   -0.441817   -0.956521
      5          1           0       -2.967698   -0.441736    0.957337
      6          6           0        0.172145   -0.156935   -0.000016
      7          6           0        1.514303    0.138285   -0.000205
      8          1           0        1.915836    1.244983   -0.000304
      9          6           0        2.727952   -0.354807   -0.000343
 ---------------------------------------------------------------------

 SCF Done:  E(UB3LYP) =  -191.036710158     A.U. after   18 cycles

 The electronic state is 4-A.
 Alpha  occ. eigenvalues --  -11.04568 -10.96729 -10.95726 -10.95515 -10.92786
 Alpha  occ. eigenvalues --   -1.54421  -1.50589  -1.40652  -1.29459  -1.19554
 Alpha  occ. eigenvalues --   -1.15808  -1.12845  -1.12229  -1.08145  -1.04609
 Alpha  occ. eigenvalues --   -0.96380  -0.92647
 Alpha virt. eigenvalues --   -0.79739  -0.78986  -0.76333  -0.60207  -0.50413
 Alpha virt. eigenvalues --   -0.49199  -0.48198  -0.46855  -0.42569  -0.42259
 Alpha virt. eigenvalues --   -0.39231  -0.38482  -0.37347  -0.37203  -0.36389

  Beta  occ. eigenvalues --  -11.01115 -10.96620 -10.94954 -10.93862 -10.92752
  Beta  occ. eigenvalues --   -1.51412  -1.47998  -1.37319  -1.27309  -1.17785
  Beta  occ. eigenvalues --   -1.13735  -1.11199  -1.10757  -1.00474
  Beta virt. eigenvalues --   -0.84969  -0.84223  -0.79425  -0.76048  -0.71901
  Beta virt. eigenvalues --   -0.69707  -0.55358  -0.49534  -0.47864  -0.47297
  Beta virt. eigenvalues --   -0.45812  -0.42236  -0.41290  -0.37971  -0.37890

 Mulliken charges and spin densities:
               1          2
     1  C    0.219270   0.236517
     2  C   -0.068566   0.077758
     3  H    0.298104   0.024389
     4  H    0.356910   0.024120
     5  H    0.356910   0.024120
     6  C    0.751262   1.079748
     7  C    0.431276  -0.026351
     8  H    0.315988  -0.016370
     9  C    0.338847   1.576067
 Sum of Mulliken charges =   3.00000   3.00000

 Dipole moment (field-independent basis, Debye):
    X=             -1.4108    Y=              0.8793    Z=              0.0001  Tot=              1.6623
 Quadrupole moment (field-independent basis, Debye-Ang):
   XX=             54.6557   YY=            -14.6083   ZZ=            -20.9721
   XY=              1.5524   XZ=             -0.0100   YZ=             -0.0005

  Exact polarizability: 106.578  -1.091  32.031  -0.011  -0.000  25.631
 Approx polarizability: 200.362 -11.410  53.265  -0.021   0.001  35.591

                      1                      2                      3
                      A                      A                      A
 Frequencies --    135.9694               176.0444               223.0241
 Red. masses --      2.2992                 4.4788                 1.9684
 Frc consts  --      0.0250                 0.0818                 0.0577
 IR Inten    --      5.1415                18.6785                40.7071

                      4                      5                      6
                      A                      A                      A
 Frequencies --    326.0354               355.5600               377.1735
 Red. masses --      6.4284                 3.7962                 1.3443
 Frc consts  --      0.4026                 0.2828                 0.1127
 IR Inten    --     10.1485                 5.3309                 2.5707

                      7                      8                      9
                      A                      A                      A
 Frequencies --    563.0849               689.0202               697.8069
 Red. masses --      2.2197                 5.1382                 1.2708
 Frc consts  --      0.4147                 1.4372                 0.3646
 IR Inten    --     11.8634                27.6032                41.8634

                     10                     11                     12
                      A                      A                      A
 Frequencies --    730.4752               945.4117               951.8789
 Red. masses --      1.2035                 1.6763                 1.5773
 Frc consts  --      0.3784                 0.8828                 0.8420
 IR Inten    --      2.6674                 5.0371                 4.8359

                     13                     14                     15
                      A                      A                      A
 Frequencies --   1129.1518              1233.8651              1312.3107
 Red. masses --      2.0251                 1.8999                 1.1308
 Frc consts  --      1.5212                 1.7041                 1.1474
 IR Inten    --     37.1944                47.9607               104.0726

                     16                     17                     18
                      A                      A                      A
 Frequencies --   1451.3396              1695.5156              2384.0359
 Red. masses --      5.5280                10.5344                 1.0694
 Frc consts  --      6.8606                17.8429                 3.5811
 IR Inten    --    143.7644                 7.4126               471.0463

                     19                     20                     21
                      A                      A                      A
 Frequencies --   2639.6350              2783.1777              2880.9783
 Red. masses --      1.0754                 1.0448                 1.1191
 Frc consts  --      4.4146                 4.7685                 5.4724
 IR Inten    --    360.6868               788.6451               285.0488

 - Thermochemistry -
 -------------------
 Temperature   298.150 Kelvin.  Pressure   1.00000 Atm.
 Atom     1 has atomic number  6 and mass  12.00000

 Molecular mass:    64.03130 amu.
 Principal axes and moments of inertia in atomic units:
                           1         2         3
     Eigenvalues --    36.05628 809.02962 831.90326
           X            0.99991   0.01357   0.00013
           Y           -0.01357   0.99991   0.00004
           Z           -0.00013  -0.00004   1.00000
 This molecule is an asymmetric top.
 Rotational symmetry number  1.
 Rotational temperatures (Kelvin)      2.40218     0.10706     0.10412
 Rotational constants (GHZ):          50.05345     2.23075     2.16941
 Zero-point vibrational energy     141646.8 (Joules/Mol)
                                   33.85440 (Kcal/Mol)
 Warning -- explicit consideration of   7 degrees of freedom as
           vibrations may cause significant error
 Vibrational temperatures:    195.63   253.29   320.88   469.09   511.57
          (Kelvin)            542.67   810.15   991.35  1003.99  1050.99
                             1360.23  1369.54  1624.60  1775.25  1888.12
                             2088.15  2439.47  3430.09  3797.84  4004.37
                             4145.08

 Zero-point correction=                           0.053950 (Hartree/Particle)
 Thermal correction to Energy=                    0.060311
 Thermal correction to Enthalpy=                  0.061255
 Thermal correction to Gibbs Free Energy=         0.024069
 Sum of electronic and zero-point Energies=           -190.982760
 Sum of electronic and thermal Energies=              -190.976400
 Sum of electronic and thermal Enthalpies=            -190.975455
 Sum of electronic and thermal Free Energies=         -191.012641

                     E (Thermal)             CV                S
                      KCal/Mol        Cal/Mol-Kelvin    Cal/Mol-Kelvin
 Total                   37.845             21.416             78.264
 Electronic               0.000              0.000              2.755
 Translational            0.889              2.981             38.389
 Rotational               0.889              2.981             24.699
 Vibrational             36.068             15.455             12.421
 Vibration     1          0.614              1.917              2.860
 Vibration     2          0.628              1.872              2.370
 Vibration     3          0.649              1.806              1.934
 Vibration     4          0.710              1.623              1.280
 Vibration     5          0.731              1.564              1.141
 Vibration     6          0.748              1.519              1.050
 Vibration     7          0.919              1.111              0.518

 Optimization completed.
    -- Stationary point found.
 Normal termination of Gaussian 09 at Wed Jul 20 11:44:41 2016.
