 Gaussian 09, Revision E.01,
 Gaussian 09:  EM64L-G09RevE.01 30-Nov-2015

 ---------------------------------------------
 #p b3lyp/6-311++G(3df,2p) freq symmetry=Loose
 ---------------------------------------------

 ---------
 b3lyp opt
 ---------
 Symbolic Z-matrix:
 Charge =  3 Multiplicity = 2

                         Standard orientation:
 ---------------------------------------------------------------------
 Center     Atomic      Atomic             Coordinates (Angstroms)
 Number     Number       Type             X           Y           Z
 ---------------------------------------------------------------------
      1          6           0        2.403150    0.169927    0.000012
      2          6           0        1.108785   -0.057191    0.000099
      3          6           0       -0.175078   -0.455578   -0.000213
      4          1           0        3.156217   -0.675711    0.000046
      5          1           0        2.865254    1.199161   -0.000018
      6          1           0       -0.236103   -1.577306    0.000266
      7          6           0       -2.652115   -0.035015    0.000086
      8          6           0       -1.400678    0.311331   -0.000031
      9          1           0       -1.489748    1.453011   -0.000009
 ---------------------------------------------------------------------

 SCF Done:  E(UB3LYP) =  -191.107177857     A.U. after   18 cycles

 The electronic state is 2-A.
 Alpha  occ. eigenvalues --  -11.06860 -10.97787 -10.97228 -10.92849 -10.92740
 Alpha  occ. eigenvalues --   -1.55361  -1.50455  -1.42689  -1.27543  -1.20718
 Alpha  occ. eigenvalues --   -1.16555  -1.13242  -1.09392  -1.08132  -1.05921
 Alpha  occ. eigenvalues --   -0.99828
 Alpha virt. eigenvalues --   -0.83149  -0.81969  -0.78666  -0.67971  -0.58097
 Alpha virt. eigenvalues --   -0.51369  -0.50759  -0.45594  -0.43642  -0.43189
 Alpha virt. eigenvalues --   -0.41507  -0.40960  -0.40214  -0.38735  -0.37406

  Beta  occ. eigenvalues --  -11.04339 -10.97809 -10.97205 -10.92943 -10.92607
  Beta  occ. eigenvalues --   -1.54807  -1.49386  -1.42206  -1.26609  -1.20362
  Beta  occ. eigenvalues --   -1.16611  -1.11995  -1.08882  -1.05836  -0.98457
  Beta virt. eigenvalues --   -0.86662  -0.82201  -0.79678  -0.76896  -0.66396
  Beta virt. eigenvalues --   -0.57840  -0.51396  -0.50637  -0.45291  -0.43705
  Beta virt. eigenvalues --   -0.43065  -0.41315  -0.40835  -0.40252  -0.38606

 Mulliken charges and spin densities:
               1          2
     1  C   -0.156075  -0.053652
     2  C    0.829289  -0.033444
     3  C    0.238888  -0.003751
     4  H    0.385896   0.001552
     5  H    0.377696   0.001626
     6  H    0.297131  -0.001301
     7  C    0.326434   1.101310
     8  C    0.404719  -0.009961
     9  H    0.296022  -0.002380
 Sum of Mulliken charges =   3.00000   1.00000

 Dipole moment (field-independent basis, Debye):
    X=              0.5315    Y=              0.3803    Z=              0.0003  Tot=              0.6535
 Quadrupole moment (field-independent basis, Debye-Ang):
   XX=             50.1849   YY=            -11.2331   ZZ=            -24.0834
   XY=              0.2213   XZ=             -0.0007   YZ=             -0.0006

  Exact polarizability: 100.759   3.797  33.308   0.001  -0.000  24.467
 Approx polarizability: 206.132  18.577  53.249   0.002   0.001  33.201

                      1                      2                      3
                      A                      A                      A
 Frequencies --    141.1369               178.0323               307.2430
 Red. masses --      4.0374                 3.5494                 3.2242
 Frc consts  --      0.0474                 0.0663                 0.1793
 IR Inten    --      8.0093                11.8486                19.6077

                      4                      5                      6
                      A                      A                      A
 Frequencies --    323.8444               437.7862               498.2255
 Red. masses --      4.7496                 1.9841                 1.2120
 Frc consts  --      0.2935                 0.2240                 0.1773
 IR Inten    --      3.6584                13.8710                 8.7422

                      7                      8                      9
                      A                      A                      A
 Frequencies --    642.9411               730.5862               871.5004
 Red. masses --      1.7040                 2.7326                 2.0935
 Frc consts  --      0.4150                 0.8594                 0.9368
 IR Inten    --     35.6395                 8.9559                 8.0436

                     10                     11                     12
                      A                      A                      A
 Frequencies --    893.3616               977.0733              1002.3967
 Red. masses --      1.3726                 1.3747                 1.6101
 Frc consts  --      0.6454                 0.7732                 0.9532
 IR Inten    --     12.2185                37.7035                19.5851

                     13                     14                     15
                      A                      A                      A
 Frequencies --   1122.5104              1190.3285              1294.8757
 Red. masses --      1.5009                 1.1640                 2.7623
 Frc consts  --      1.1143                 0.9717                 2.7289
 IR Inten    --      8.5468               168.6093                39.4761

                     16                     17                     18
                      A                      A                      A
 Frequencies --   1629.6771              1663.8073              2609.9541
 Red. masses --      8.5189                 8.1879                 1.0758
 Frc consts  --     13.3302                13.3545                 4.3176
 IR Inten    --    494.2637               232.2256               379.3856

                     19                     20                     21
                      A                      A                      A
 Frequencies --   2696.3080              2751.2662              2799.2626
 Red. masses --      1.0590                 1.1008                 1.0826
 Frc consts  --      4.5363                 4.9094                 4.9980
 IR Inten    --    908.5853               605.0331               230.2761

 - Thermochemistry -
 -------------------
 Temperature   298.150 Kelvin.  Pressure   1.00000 Atm.
 Atom     1 has atomic number  6 and mass  12.00000

 Molecular mass:    64.03130 amu.
 Principal axes and moments of inertia in atomic units:
                           1         2         3
     Eigenvalues --    37.83628 759.54200 797.37827
           X            1.00000  -0.00227   0.00000
           Y            0.00227   1.00000  -0.00005
           Z           -0.00000   0.00005   1.00000
 This molecule is an asymmetric top.
 Rotational symmetry number  1.
 Rotational temperatures (Kelvin)      2.28917     0.11403     0.10862
 Rotational constants (GHZ):          47.69870     2.37609     2.26334
 Zero-point vibrational energy     148110.4 (Joules/Mol)
                                   35.39922 (Kcal/Mol)
 Warning -- explicit consideration of   6 degrees of freedom as
           vibrations may cause significant error
 Vibrational temperatures:    203.06   256.15   442.05   465.94   629.88
          (Kelvin)            716.83   925.05  1051.15  1253.89  1285.35
                             1405.79  1442.22  1615.04  1712.62  1863.04
                             2344.74  2393.84  3755.14  3879.38  3958.45
                             4027.51

 Zero-point correction=                           0.056412 (Hartree/Particle)
 Thermal correction to Energy=                    0.062290
 Thermal correction to Enthalpy=                  0.063234
 Thermal correction to Gibbs Free Energy=         0.027600
 Sum of electronic and zero-point Energies=           -191.050766
 Sum of electronic and thermal Energies=              -191.044888
 Sum of electronic and thermal Enthalpies=            -191.043944
 Sum of electronic and thermal Free Energies=         -191.079578

                     E (Thermal)             CV                S
                      KCal/Mol        Cal/Mol-Kelvin    Cal/Mol-Kelvin
 Total                   39.088             19.929             74.999
 Electronic               0.000              0.000              1.377
 Translational            0.889              2.981             38.389
 Rotational               0.889              2.981             24.642
 Vibrational             37.310             13.967             10.590
 Vibration     1          0.615              1.912              2.788
 Vibration     2          0.628              1.869              2.349
 Vibration     3          0.697              1.660              1.377
 Vibration     4          0.708              1.628              1.291
 Vibration     5          0.798              1.388              0.834
 Vibration     6          0.854              1.254              0.663

 Optimization completed.
    -- Stationary point found.
 Normal termination of Gaussian 09 at Mon Jun 20 11:45:23 2016.
