 Gaussian 09, Revision E.01,
 Gaussian 09:  EM64L-G09RevE.01 30-Nov-2015

 ---------------------------------------------
 #p b3lyp/6-311++G(3df,2p) freq symmetry=Loose
 ---------------------------------------------

 ---------
 b3lyp opt
 ---------
 Symbolic Z-matrix:
 Charge =  1 Multiplicity = 2

                         Standard orientation:
 ---------------------------------------------------------------------
 Center     Atomic      Atomic             Coordinates (Angstroms)
 Number     Number       Type             X           Y           Z
 ---------------------------------------------------------------------
      1          6           0        0.843638    0.801337   -0.000058
      2          6           0        0.843638   -0.801337    0.000151
      3          6           0       -0.616497   -1.076453    0.000107
      4          6           0       -1.345123   -0.000000   -0.000073
      5          6           0       -0.616497    1.076453   -0.000174
      6          1           0        1.336310    1.238163   -0.874788
      7          1           0        1.336214   -1.238163    0.874933
      8          1           0        1.336310   -1.238391   -0.874465
      9          1           0        1.336214    1.238391    0.874611
 ---------------------------------------------------------------------

 SCF Done:  E(UB3LYP) =  -192.422285807     A.U. after   15 cycles

 The electronic state is 2-A.
 Alpha  occ. eigenvalues --  -10.51066 -10.51058 -10.45368 -10.44141 -10.44128
 Alpha  occ. eigenvalues --   -1.15396  -0.97612  -0.96976  -0.83708  -0.73084
 Alpha  occ. eigenvalues --   -0.71367  -0.69372  -0.65269  -0.62011  -0.57762
 Alpha  occ. eigenvalues --   -0.55490  -0.50281
 Alpha virt. eigenvalues --   -0.36468  -0.35996  -0.17990  -0.16503  -0.12848
 Alpha virt. eigenvalues --   -0.12525  -0.11123  -0.08952  -0.08215  -0.08009
 Alpha virt. eigenvalues --   -0.07873  -0.06996  -0.06665  -0.03484  -0.03103

  Beta  occ. eigenvalues --  -10.49658 -10.49654 -10.46325 -10.44031 -10.44018
  Beta  occ. eigenvalues --   -1.14431  -0.97726  -0.94905  -0.82535  -0.73516
  Beta  occ. eigenvalues --   -0.71149  -0.65699  -0.64547  -0.61835  -0.57924
  Beta  occ. eigenvalues --   -0.54189
  Beta virt. eigenvalues --   -0.35932  -0.34538  -0.34063  -0.18258  -0.16442
  Beta virt. eigenvalues --   -0.12742  -0.12055  -0.11188  -0.08853  -0.08310
  Beta virt. eigenvalues --   -0.07962  -0.07315  -0.06943  -0.06013  -0.02854

 Mulliken charges and spin densities:
               1          2
     1  C   -0.251259   0.018371
     2  C   -0.251260   0.018371
     3  C    0.109110   0.997143
     4  C    0.453772  -1.016423
     5  C    0.109111   0.997143
     6  H    0.207632  -0.003651
     7  H    0.207632  -0.003651
     8  H    0.207632  -0.003651
     9  H    0.207632  -0.003651
 Sum of Mulliken charges =   1.00000   1.00000

 Dipole moment (field-independent basis, Debye):
    X=              1.2403    Y=              0.0000    Z=              0.0001  Tot=              1.2403
 Quadrupole moment (field-independent basis, Debye-Ang):
   XX=            -19.9483   YY=            -21.6351   ZZ=            -24.8412
   XY=             -0.0000   XZ=              0.0003   YZ=             -0.0004

  Exact polarizability:  51.577   0.000  55.840   0.001  -0.003  33.625
 Approx polarizability:  87.211  -0.000 112.951   0.002  -0.008  50.369

                      1                      2                      3
                      A                      A                      A
 Frequencies --    173.8581               186.4673               621.3753
 Red. masses --      6.3793                 1.5985                 1.2181
 Frc consts  --      0.1136                 0.0327                 0.2771
 IR Inten    --      7.7908                 0.0000                 5.8132

                      4                      5                      6
                      A                      A                      A
 Frequencies --    644.0806               677.9511               801.7588
 Red. masses --     11.6418                 7.5103                 3.8117
 Frc consts  --      2.8455                 2.0338                 1.4436
 IR Inten    --     10.5853                16.0670                 0.2203

                      7                      8                      9
                      A                      A                      A
 Frequencies --    918.0546               929.1622               980.5217
 Red. masses --      2.3651                 4.0621                 6.7452
 Frc consts  --      1.1745                 2.0663                 3.8208
 IR Inten    --      0.0000                11.5077                 1.9838

                     10                     11                     12
                      A                      A                      A
 Frequencies --   1088.1713              1101.8859              1190.9259
 Red. masses --      1.0647                 1.0599                 1.3271
 Frc consts  --      0.7428                 0.7582                 1.1090
 IR Inten    --      0.0901                 0.0000                23.1726

                     13                     14                     15
                      A                      A                      A
 Frequencies --   1243.6428              1302.9868              1392.0057
 Red. masses --      1.5351                 2.2414                 1.1730
 Frc consts  --      1.3988                 2.2421                 1.3391
 IR Inten    --     41.5886                51.4708                67.3613

                     16                     17                     18
                      A                      A                      A
 Frequencies --   1426.9682              1444.1502              3031.1318
 Red. masses --      1.6001                 4.8463                 1.0594
 Frc consts  --      1.9196                 5.9551                 5.7348
 IR Inten    --      0.0098                 0.4211                51.9864

                     19                     20                     21
                      A                      A                      A
 Frequencies --   3031.1429              3060.4133              3065.6574
 Red. masses --      1.0608                 1.1017                 1.0994
 Frc consts  --      5.7422                 6.0795                 6.0877
 IR Inten    --     19.4510                 0.0000                39.5814

 - Thermochemistry -
 -------------------
 Temperature   298.150 Kelvin.  Pressure   1.00000 Atm.
 Atom     1 has atomic number  6 and mass  12.00000

 Molecular mass:    64.03130 amu.
 Principal axes and moments of inertia in atomic units:
                           1         2         3
     Eigenvalues --   187.43464 206.26010 371.66598
           X            1.00000   0.00000  -0.00005
           Y            0.00000   1.00000   0.00013
           Z            0.00005  -0.00013   1.00000
 This molecule is an asymmetric top.
 Rotational symmetry number  1.
 Rotational temperatures (Kelvin)      0.46210     0.41993     0.23304
 Rotational constants (GHZ):           9.62864     8.74983     4.85581
 Zero-point vibrational energy     169345.2 (Joules/Mol)
                                   40.47448 (Kcal/Mol)
 Warning -- explicit consideration of   2 degrees of freedom as
           vibrations may cause significant error
 Vibrational temperatures:    250.14   268.28   894.02   926.69   975.42
          (Kelvin)           1153.55  1320.87  1336.86  1410.75  1565.63
                             1585.37  1713.47  1789.32  1874.70  2002.78
                             2053.09  2077.81  4361.12  4361.13  4403.25
                             4410.79

 Zero-point correction=                           0.064500 (Hartree/Particle)
 Thermal correction to Energy=                    0.069256
 Thermal correction to Enthalpy=                  0.070200
 Thermal correction to Gibbs Free Energy=         0.036670
 Sum of electronic and zero-point Energies=           -192.357786
 Sum of electronic and thermal Energies=              -192.353030
 Sum of electronic and thermal Enthalpies=            -192.352086
 Sum of electronic and thermal Free Energies=         -192.385616

                     E (Thermal)             CV                S
                      KCal/Mol        Cal/Mol-Kelvin    Cal/Mol-Kelvin
 Total                   43.459             15.879             70.571
 Electronic               0.000              0.000              1.377
 Translational            0.889              2.981             38.389
 Rotational               0.889              2.981             24.178
 Vibrational             41.681              9.917              6.626
 Vibration     1          0.627              1.875              2.393
 Vibration     2          0.632              1.858              2.263

 Optimization completed.
    -- Stationary point found.
 Normal termination of Gaussian 09 at Wed Jul 20 09:10:12 2016.
