 Gaussian 09, Revision E.01,
 Gaussian 09:  EM64L-G09RevE.01 30-Nov-2015

 ---------------------------------------------
 #p b3lyp/6-311++G(3df,2p) freq symmetry=Loose
 ---------------------------------------------

 ---------
 b3lyp opt
 ---------
 Symbolic Z-matrix:
 Charge =  0 Multiplicity = 3

                         Standard orientation:
 ---------------------------------------------------------------------
 Center     Atomic      Atomic             Coordinates (Angstroms)
 Number     Number       Type             X           Y           Z
 ---------------------------------------------------------------------
      1          6           0        0.000000    1.206298    0.161571
      2          6           0        0.000000   -0.000000    1.088835
      3          1           0        0.000000    2.229965    0.500468
      4          1           0       -0.883741   -0.000000    1.734735
      5          1           0        0.883741   -0.000000    1.734735
      6          6           0       -0.000000    0.731103   -1.078522
      7          6           0       -0.000000   -1.206298    0.161571
      8          6           0       -0.000000   -0.731103   -1.078522
      9          1           0       -0.000000   -2.229965    0.500468
 ---------------------------------------------------------------------

 SCF Done:  E(UB3LYP) =  -192.778853251     A.U. after   13 cycles

 The electronic state is 3-B2.
 Alpha  occ. eigenvalues --  -10.21541 -10.21508 -10.20531 -10.18676 -10.18672
 Alpha  occ. eigenvalues --   -0.88967  -0.72892  -0.71794  -0.57143  -0.51748
 Alpha  occ. eigenvalues --   -0.49279  -0.45996  -0.40399  -0.40204  -0.33039
 Alpha  occ. eigenvalues --   -0.28664  -0.26063  -0.24647
 Alpha virt. eigenvalues --   -0.03759  -0.00755   0.01216   0.02201   0.02617
 Alpha virt. eigenvalues --    0.04586   0.05339   0.05793   0.06608   0.08328
 Alpha virt. eigenvalues --    0.09306   0.10685   0.10695   0.11823   0.12311

  Beta  occ. eigenvalues --  -10.20231 -10.19823 -10.19795 -10.18646 -10.18642
  Beta  occ. eigenvalues --   -0.86957  -0.71617  -0.69633  -0.56069  -0.49707
  Beta  occ. eigenvalues --   -0.46134  -0.45811  -0.39188  -0.38976  -0.31449
  Beta  occ. eigenvalues --   -0.24233
  Beta virt. eigenvalues --   -0.13006  -0.08488  -0.03073  -0.00707   0.01366
  Beta virt. eigenvalues --    0.02209   0.02814   0.06125   0.06212   0.06572
  Beta virt. eigenvalues --    0.07034   0.08411   0.09417   0.10747   0.11461

 Mulliken charges and spin densities:
               1          2
     1  C   -0.189426  -0.144509
     2  C   -0.140148   0.148965
     3  H    0.178754   0.019465
     4  H    0.127571   0.001745
     5  H    0.127571   0.001745
     6  C   -0.046825   1.048816
     7  C   -0.189426  -0.144509
     8  C   -0.046825   1.048816
     9  H    0.178754   0.019465
 Sum of Mulliken charges =  -0.00000   2.00000

 Dipole moment (field-independent basis, Debye):
    X=             -0.0000    Y=              0.0000    Z=              2.1671  Tot=              2.1671
 Quadrupole moment (field-independent basis, Debye-Ang):
   XX=            -31.5238   YY=            -28.1462   ZZ=            -29.6982
   XY=              0.0000   XZ=             -0.0000   YZ=             -0.0000

  Exact polarizability:  41.104   0.000  62.062  -0.000   0.000  61.813
 Approx polarizability:  59.974  -0.000  92.984  -0.000  -0.000 104.827

                      1                      2                      3
                     B1                     A2                     A2
 Frequencies --    353.2402               439.8773               632.2732
 Red. masses --      1.7463                 3.0322                 1.4920
 Frc consts  --      0.1284                 0.3457                 0.3514
 IR Inten    --      0.5653                 0.0000                 0.0000

                      4                      5                      6
                     B1                     A1                     B2
 Frequencies --    700.1856               750.4998               758.6222
 Red. masses --      1.1888                 5.8697                 8.1032
 Frc consts  --      0.3434                 1.9479                 2.7476
 IR Inten    --     54.5059                 3.0806                 9.4877

                      7                      8                      9
                     A1                     B1                     B2
 Frequencies --    881.4348               903.3148               970.7580
 Red. masses --      2.5780                 1.9102                 1.8446
 Frc consts  --      1.1801                 0.9183                 1.0242
 IR Inten    --      4.2578                19.9543                 9.3502

                     10                     11                     12
                     A1                     A2                     B2
 Frequencies --   1063.4577              1109.8198              1156.1629
 Red. masses --      3.5694                 1.1234                 1.5538
 Frc consts  --      2.3784                 0.8153                 1.2238
 IR Inten    --      4.8685                 0.0000                 1.6035

                     13                     14                     15
                     B2                     A1                     A1
 Frequencies --   1219.8194              1270.2075              1402.3507
 Red. masses --      1.5129                 1.9553                 1.1254
 Frc consts  --      1.3264                 1.8587                 1.3040
 IR Inten    --      4.9722                 7.0159                 4.6073

                     16                     17                     18
                     A1                     B2                     A1
 Frequencies --   1559.6215              1576.0961              3014.6730
 Red. masses --      6.7319                 7.2489                 1.0575
 Frc consts  --      9.6478                10.6093                 5.6623
 IR Inten    --      1.2760                 0.5603                 6.5143

                     19                     20                     21
                     B1                     B2                     A1
 Frequencies --   3052.4755              3219.8501              3221.1925
 Red. masses --      1.1017                 1.0931                 1.0960
 Frc consts  --      6.0483                 6.6773                 6.7003
 IR Inten    --      2.1672                 0.0245                 0.0274

 - Thermochemistry -
 -------------------
 Temperature   298.150 Kelvin.  Pressure   1.00000 Atm.
 Atom     1 has atomic number  6 and mass  12.00000

 Molecular mass:    64.03130 amu.
 Principal axes and moments of inertia in atomic units:
                           1         2         3
     Eigenvalues --   180.72395 211.94087 381.42155
           X            0.00000   0.00000   1.00000
           Y            1.00000   0.00000  -0.00000
           Z           -0.00000   1.00000  -0.00000
 This molecule is an asymmetric top.
 Rotational symmetry number  2.
 Rotational temperatures (Kelvin)      0.47926     0.40867     0.22708
 Rotational constants (GHZ):           9.98618     8.51531     4.73162
 Zero-point vibrational energy     174989.3 (Joules/Mol)
                                   41.82346 (Kcal/Mol)
 Warning -- explicit consideration of   2 degrees of freedom as
           vibrations may cause significant error
 Vibrational temperatures:    508.23   632.88   909.70  1007.41  1079.80
          (Kelvin)           1091.49  1268.19  1299.67  1396.70  1530.08
                             1596.78  1663.46  1755.05  1827.54  2017.67
                             2243.94  2267.65  4337.44  4391.83  4632.64
                             4634.57

 Zero-point correction=                           0.066650 (Hartree/Particle)
 Thermal correction to Energy=                    0.070822
 Thermal correction to Enthalpy=                  0.071766
 Thermal correction to Gibbs Free Energy=         0.039815
 Sum of electronic and zero-point Energies=           -192.712203
 Sum of electronic and thermal Energies=              -192.708032
 Sum of electronic and thermal Enthalpies=            -192.707087
 Sum of electronic and thermal Free Energies=         -192.739038

                     E (Thermal)             CV                S
                      KCal/Mol        Cal/Mol-Kelvin    Cal/Mol-Kelvin
 Total                   44.441             14.994             67.246
 Electronic               0.000              0.000              2.183
 Translational            0.889              2.981             38.389
 Rotational               0.889              2.981             22.817
 Vibrational             42.664              9.033              3.857
 Vibration     1          0.729              1.569              1.152
 Vibration     2          0.800              1.383              0.827

 Optimization completed.
    -- Stationary point found.
 Normal termination of Gaussian 09 at Wed Jul 20 11:49:57 2016.
