 Gaussian 09, Revision E.01,
 Gaussian 09:  EM64L-G09RevE.01 30-Nov-2015

 ---------------------------------------------
 #p b3lyp/6-311++G(3df,2p) freq symmetry=Loose
 ---------------------------------------------

 ---------
 b3lyp opt
 ---------
 Symbolic Z-matrix:
 Charge =  3 Multiplicity = 4

                         Standard orientation:
 ---------------------------------------------------------------------
 Center     Atomic      Atomic             Coordinates (Angstroms)
 Number     Number       Type             X           Y           Z
 ---------------------------------------------------------------------
      1          1           0        1.416389   -0.888957    0.000000
      2          6           0        0.678501    0.000056    0.000000
      3          1           0        1.416243    0.889191    0.000000
      4          6           0        0.009808    0.000012    1.269177
      5          6           0       -0.444694   -0.000014    2.469916
      6          1           0       -0.842507   -0.000038    3.508362
      7          6           0        0.009808    0.000012   -1.269177
      8          6           0       -0.444694   -0.000014   -2.469916
      9          1           0       -0.842507   -0.000038   -3.508362
 ---------------------------------------------------------------------

 SCF Done:  E(UB3LYP) =  -191.104717416     A.U. after   14 cycles

 The electronic state is 4-A".
 Alpha  occ. eigenvalues --  -10.98068 -10.98067 -10.97839 -10.97839 -10.92903
 Alpha  occ. eigenvalues --   -1.55189  -1.51128  -1.44653  -1.27721  -1.19888
 Alpha  occ. eigenvalues --   -1.17771  -1.16580  -1.14037  -1.03142  -1.02094
 Alpha  occ. eigenvalues --   -1.01688  -0.97861
 Alpha virt. eigenvalues --   -0.71050  -0.70250  -0.68497  -0.67751  -0.55739
 Alpha virt. eigenvalues --   -0.49728  -0.49110  -0.46221  -0.45546  -0.43903
 Alpha virt. eigenvalues --   -0.42284  -0.39909  -0.38735  -0.37966  -0.36198

  Beta  occ. eigenvalues --  -10.96989 -10.96988 -10.96556 -10.96555 -10.92831
  Beta  occ. eigenvalues --   -1.52038  -1.45453  -1.40731  -1.25714  -1.17846
  Beta  occ. eigenvalues --   -1.16509  -1.14050  -1.11319  -0.95846
  Beta virt. eigenvalues --   -0.88450  -0.87932  -0.87674  -0.64638  -0.64240
  Beta virt. eigenvalues --   -0.63854  -0.63211  -0.53559  -0.48149  -0.46697
  Beta virt. eigenvalues --   -0.44967  -0.44492  -0.43247  -0.41638  -0.39378

 Mulliken charges and spin densities:
               1          2
     1  H    0.369598   0.115868
     2  C   -0.416070   0.140969
     3  H    0.369600   0.115871
     4  C    0.256923   0.675848
     5  C    0.589388   0.658802
     6  H    0.492125  -0.021004
     7  C    0.256923   0.675848
     8  C    0.589388   0.658802
     9  H    0.492125  -0.021004
 Sum of Mulliken charges =   3.00000   3.00000

 Dipole moment (field-independent basis, Debye):
    X=             -0.6077    Y=              0.0002    Z=              0.0000  Tot=              0.6077
 Quadrupole moment (field-independent basis, Debye-Ang):
   XX=            -12.5692   YY=            -21.4985   ZZ=             53.6121
   XY=              0.0006   XZ=             -0.0000   YZ=             -0.0000

  Exact polarizability:  33.446   0.000  26.417  -0.000  -0.000 145.957
 Approx polarizability:  53.125   0.001  37.572   0.000   0.000 337.639

                      1                      2                      3
                     A'                     A'                     A"
 Frequencies --    156.7692               266.5533               324.0186
 Red. masses --      3.5910                 2.0967                 4.3301
 Frc consts  --      0.0520                 0.0878                 0.2678
 IR Inten    --     10.8290                60.2987                 0.0000

                      4                      5                      6
                     A"                     A'                     A'
 Frequencies --    338.1306               524.9350               691.4217
 Red. masses --      3.6800                 5.3605                 1.5508
 Frc consts  --      0.2479                 0.8703                 0.4368
 IR Inten    --     11.2095                17.3254                 3.0070

                      7                      8                      9
                     A"                     A'                     A'
 Frequencies --    702.3445               712.5587               740.6282
 Red. masses --      1.2565                 1.7275                 1.4687
 Frc consts  --      0.3652                 0.5168                 0.4747
 IR Inten    --      0.0000                71.6080                15.1889

                     10                     11                     12
                     A"                     A'                     A"
 Frequencies --    744.3407               806.0140               950.2918
 Red. masses --      1.3418                 5.0862                 1.6891
 Frc consts  --      0.4380                 1.9468                 0.8987
 IR Inten    --      0.2195                17.0197                76.9717

                     13                     14                     15
                     A"                     A'                     A"
 Frequencies --   1026.4822              1100.6522              1210.3019
 Red. masses --      1.0781                 1.0756                 2.4661
 Frc consts  --      0.6693                 0.7677                 2.1284
 IR Inten    --      0.0000               138.9830               654.3420

                     16                     17                     18
                     A"                     A'                     A'
 Frequencies --   1671.9972              1893.8636              2413.0702
 Red. masses --      5.7591                 5.9400                 1.0763
 Frc consts  --      9.4859                12.5527                 3.6927
 IR Inten    --   2919.9343                 9.5567               394.7856

                     19                     20                     21
                     A'                     A"                     A'
 Frequencies --   2477.7267              2977.2667              2985.5520
 Red. masses --      1.0557                 1.1640                 1.1665
 Frc consts  --      3.8184                 6.0789                 6.1263
 IR Inten    --    574.1412               982.0016               114.9488

 - Thermochemistry -
 -------------------
 Temperature   298.150 Kelvin.  Pressure   1.00000 Atm.
 Atom     1 has atomic number  1 and mass   1.00783

 Molecular mass:    64.03130 amu.
 Principal axes and moments of inertia in atomic units:
                           1         2         3
     Eigenvalues --    61.85018 755.18837 805.65917
           X           -0.00000   1.00000  -0.00006
           Y           -0.00000   0.00006   1.00000
           Z            1.00000   0.00000  -0.00000
 This molecule is an asymmetric top.
 Rotational symmetry number  1.
 Rotational temperatures (Kelvin)      1.40038     0.11469     0.10751
 Rotational constants (GHZ):          29.17924     2.38979     2.24008
 Zero-point vibrational energy     147828.0 (Joules/Mol)
                                   35.33175 (Kcal/Mol)
 Warning -- explicit consideration of   5 degrees of freedom as
           vibrations may cause significant error
 Vibrational temperatures:    225.56   383.51   466.19   486.49   755.26
          (Kelvin)            994.80  1010.52  1025.21  1065.60  1070.94
                             1159.67  1367.26  1476.88  1583.59  1741.35
                             2405.63  2724.84  3471.87  3564.89  4283.62
                             4295.54

 Zero-point correction=                           0.056305 (Hartree/Particle)
 Thermal correction to Energy=                    0.061932
 Thermal correction to Enthalpy=                  0.062877
 Thermal correction to Gibbs Free Energy=         0.026987
 Sum of electronic and zero-point Energies=           -191.048413
 Sum of electronic and thermal Energies=              -191.042785
 Sum of electronic and thermal Enthalpies=            -191.041841
 Sum of electronic and thermal Free Energies=         -191.077730

                     E (Thermal)             CV                S
                      KCal/Mol        Cal/Mol-Kelvin    Cal/Mol-Kelvin
 Total                   38.863             19.954             75.536
 Electronic               0.000              0.000              2.755
 Translational            0.889              2.981             38.389
 Rotational               0.889              2.981             25.135
 Vibrational             37.086             13.993              9.257
 Vibration     1          0.620              1.895              2.588
 Vibration     2          0.672              1.734              1.618
 Vibration     3          0.709              1.627              1.290
 Vibration     4          0.718              1.599              1.221
 Vibration     5          0.880              1.195              0.599

 Optimization completed.
    -- Stationary point found.
 Normal termination of Gaussian 09 at Wed Jul 20 13:15:41 2016.
