 Gaussian 09, Revision E.01,
 Gaussian 09:  EM64L-G09RevE.01 30-Nov-2015

 ---------------------------------------------
 #p b3lyp/6-311++G(3df,2p) freq symmetry=Loose
 ---------------------------------------------

 ---------
 b3lyp opt
 ---------
 Symbolic Z-matrix:
 Charge =  0 Multiplicity = 1

                         Standard orientation:
 ---------------------------------------------------------------------
 Center     Atomic      Atomic             Coordinates (Angstroms)
 Number     Number       Type             X           Y           Z
 ---------------------------------------------------------------------
      1          6           0        0.366643   -1.193054   -0.000039
      2          6           0        0.280236    1.000708    0.000120
      3          1           0        0.177214    1.605857   -0.894266
      4          1           0        0.176949    1.605717    0.894570
      5          1           0        2.027947   -0.088574   -0.877045
      6          6           0        1.377269   -0.055510    0.000200
      7          1           0        2.027686   -0.088711    0.877633
      8          6           0       -0.743876   -0.252542   -0.000130
      9          6           0       -2.015238   -0.005317   -0.000300
 ---------------------------------------------------------------------

 SCF Done:  E(RB3LYP) =  -192.700591233     A.U. after   15 cycles

 The electronic state is 1-A.
 Alpha  occ. eigenvalues --  -10.24845 -10.23965 -10.23848 -10.20590 -10.19882
 Alpha  occ. eigenvalues --   -0.89906  -0.76372  -0.68504  -0.62838  -0.50834
 Alpha  occ. eigenvalues --   -0.46261  -0.42623  -0.40888  -0.39504  -0.32410
 Alpha  occ. eigenvalues --   -0.30791  -0.23691
 Alpha virt. eigenvalues --   -0.13099  -0.11883  -0.01542   0.00647   0.01051
 Alpha virt. eigenvalues --    0.03308   0.03833   0.05262   0.05492   0.06478
 Alpha virt. eigenvalues --    0.06771   0.08393   0.09462   0.10484   0.11273

 Mulliken charges:
               1
     1  C   -0.454915
     2  C   -0.526082
     3  H    0.188677
     4  H    0.188677
     5  H    0.151536
     6  C   -0.059744
     7  H    0.151536
     8  C    0.837925
     9  C   -0.477611
 Sum of Mulliken charges =  -0.00000

 Dipole moment (field-independent basis, Debye):
    X=              2.9298    Y=              2.5376    Z=              0.0006  Tot=              3.8760
 Quadrupole moment (field-independent basis, Debye-Ang):
   XX=            -34.7130   YY=            -34.1234   ZZ=            -29.0219
   XY=              1.9130   XZ=             -0.0007   YZ=             -0.0001

  Exact polarizability:  82.833  -7.019  57.898   0.005  -0.000  44.759
 Approx polarizability: 176.332 -31.352  93.900   0.014  -0.003  68.492

                      1                      2                      3
                      A                      A                      A
 Frequencies --     54.5931               106.2640               275.2614
 Red. masses --      2.3193                 7.7693                 3.7602
 Frc consts  --      0.0041                 0.0517                 0.1679
 IR Inten    --      0.7269                 3.4413                13.9289

                      4                      5                      6
                      A                      A                      A
 Frequencies --    561.8609               666.1787               712.8286
 Red. masses --      7.7363                 1.3081                 7.0479
 Frc consts  --      1.4389                 0.3420                 2.1100
 IR Inten    --     57.7587                 0.0023                25.0489

                      7                      8                      9
                      A                      A                      A
 Frequencies --    858.5272               909.6455               924.4027
 Red. masses --      1.3084                 4.9273                 3.5732
 Frc consts  --      0.5682                 2.4022                 1.7990
 IR Inten    --     12.1047                 0.6508                30.7988

                     10                     11                     12
                      A                      A                      A
 Frequencies --   1003.3688              1036.1109              1196.6051
 Red. masses --      2.9851                 1.1396                 1.2099
 Frc consts  --      1.7707                 0.7208                 1.0207
 IR Inten    --      3.9989                 0.1501                 1.6603

                     13                     14                     15
                      A                      A                      A
 Frequencies --   1225.8130              1239.3599              1404.3897
 Red. masses --      1.5074                 1.5255                 1.1026
 Frc consts  --      1.3345                 1.3806                 1.2813
 IR Inten    --     35.2408                 7.6984                26.6601

                     16                     17                     18
                      A                      A                      A
 Frequencies --   1479.5995              1753.3563              3033.7184
 Red. masses --      1.1173                11.5965                 1.0596
 Frc consts  --      1.4411                21.0047                 5.7456
 IR Inten    --      4.5955               415.0228                 3.3131

                     19                     20                     21
                      A                      A                      A
 Frequencies --   3066.6408              3094.5758              3164.5070
 Red. masses --      1.1011                 1.0557                 1.1138
 Frc consts  --      6.1008                 5.9563                 6.5718
 IR Inten    --      0.0925                13.5044                 3.3729

 - Thermochemistry -
 -------------------
 Temperature   298.150 Kelvin.  Pressure   1.00000 Atm.
 Atom     1 has atomic number  6 and mass  12.00000

 Molecular mass:    64.03130 amu.
 Principal axes and moments of inertia in atomic units:
                           1         2         3
     Eigenvalues --   136.17446 328.22446 441.80135
           X            0.99997   0.00769  -0.00015
           Y           -0.00769   0.99997  -0.00008
           Z            0.00015   0.00008   1.00000
 This molecule is an asymmetric top.
 Rotational symmetry number  1.
 Rotational temperatures (Kelvin)      0.63605     0.26389     0.19605
 Rotational constants (GHZ):          13.25315     5.49850     4.08496
 Zero-point vibrational energy     166087.2 (Joules/Mol)
                                   39.69579 (Kcal/Mol)
 Warning -- explicit consideration of   4 degrees of freedom as
           vibrations may cause significant error
 Vibrational temperatures:     78.55   152.89   396.04   808.39   958.48
          (Kelvin)           1025.60  1235.23  1308.78  1330.01  1443.62
                             1490.73  1721.65  1763.67  1783.16  2020.60
                             2128.81  2522.69  4364.84  4412.21  4452.40
                             4553.01

 Zero-point correction=                           0.063259 (Hartree/Particle)
 Thermal correction to Energy=                    0.068802
 Thermal correction to Enthalpy=                  0.069746
 Thermal correction to Gibbs Free Energy=         0.034428
 Sum of electronic and zero-point Energies=           -192.637332
 Sum of electronic and thermal Energies=              -192.631789
 Sum of electronic and thermal Enthalpies=            -192.630845
 Sum of electronic and thermal Free Energies=         -192.666163

                     E (Thermal)             CV                S
                      KCal/Mol        Cal/Mol-Kelvin    Cal/Mol-Kelvin
 Total                   43.174             17.433             74.334
 Electronic               0.000              0.000              0.000
 Translational            0.889              2.981             38.389
 Rotational               0.889              2.981             24.494
 Vibrational             41.397             11.471             11.450
 Vibration     1          0.596              1.976              4.644
 Vibration     2          0.605              1.944              3.336
 Vibration     3          0.677              1.719              1.563
 Vibration     4          0.918              1.114              0.520

 Optimization completed.
    -- Stationary point found.
 Normal termination of Gaussian 09 at Wed Jul 20 00:42:20 2016.
