 Gaussian 09, Revision E.01,
 Gaussian 09:  EM64L-G09RevE.01 30-Nov-2015

 ---------------------------------------------
 #p b3lyp/6-311++G(3df,2p) freq symmetry=Loose
 ---------------------------------------------

 ---------
 b3lyp opt
 ---------
 Symbolic Z-matrix:
 Charge =  0 Multiplicity = 3

                         Standard orientation:
 ---------------------------------------------------------------------
 Center     Atomic      Atomic             Coordinates (Angstroms)
 Number     Number       Type             X           Y           Z
 ---------------------------------------------------------------------
      1          1           0       -2.520878    0.103898    0.000370
      2          6           0        0.616500   -0.052810   -0.000089
      3          6           0        1.916616   -0.123859   -0.000279
      4          1           0        2.785127    0.509280   -0.000446
      5          6           0       -0.530584   -1.011839    0.000140
      6          1           0       -0.598522   -2.087285    0.000214
      7          6           0       -1.442963    0.053481    0.000212
      8          6           0       -0.437063    1.029585    0.000004
      9          1           0       -0.400758    2.106756   -0.000066
 ---------------------------------------------------------------------

 SCF Done:  E(UB3LYP) =  -192.788350906     A.U. after   16 cycles

 The electronic state is 3-A.
 Alpha  occ. eigenvalues --  -10.20213 -10.19975 -10.19868 -10.19547 -10.19311
 Alpha  occ. eigenvalues --   -0.89661  -0.74600  -0.66446  -0.60013  -0.53254
 Alpha  occ. eigenvalues --   -0.50904  -0.42459  -0.39645  -0.39091  -0.38232
 Alpha  occ. eigenvalues --   -0.25902  -0.24133  -0.20401
 Alpha virt. eigenvalues --   -0.03739  -0.00237   0.00936   0.01558   0.03090
 Alpha virt. eigenvalues --    0.04354   0.05578   0.06263   0.07475   0.07954
 Alpha virt. eigenvalues --    0.09426   0.09901   0.10921   0.11565   0.11598

  Beta  occ. eigenvalues --  -10.20154 -10.19926 -10.19047 -10.18903 -10.17746
  Beta  occ. eigenvalues --   -0.88368  -0.72595  -0.63555  -0.59120  -0.51991
  Beta  occ. eigenvalues --   -0.49774  -0.40971  -0.38333  -0.36954  -0.36905
  Beta  occ. eigenvalues --   -0.24649
  Beta virt. eigenvalues --   -0.08943  -0.08032  -0.02636  -0.00171   0.01010
  Beta virt. eigenvalues --    0.01841   0.03137   0.04550   0.06053   0.06435
  Beta virt. eigenvalues --    0.07953   0.08062   0.10271   0.10479   0.11093

 Mulliken charges and spin densities:
               1          2
     1  H    0.229505   0.007260
     2  C    0.115602  -0.292685
     3  C   -0.611596   0.989471
     4  H    0.210610   0.014482
     5  C   -0.069644   0.810565
     6  H    0.242860  -0.020931
     7  C   -0.269518  -0.349181
     8  C   -0.092179   0.863495
     9  H    0.244361  -0.022475
 Sum of Mulliken charges =  -0.00000   2.00000

 Dipole moment (field-independent basis, Debye):
    X=             -0.8595    Y=              0.6109    Z=              0.0001  Tot=              1.0544
 Quadrupole moment (field-independent basis, Debye-Ang):
   XX=            -26.7492   YY=            -27.1572   ZZ=            -32.9333
   XY=              1.8546   XZ=             -0.0010   YZ=             -0.0006

  Exact polarizability:  83.115  -0.689  59.454  -0.006  -0.001  39.667
 Approx polarizability: 134.260  -2.191  90.130  -0.011  -0.002  57.020

                      1                      2                      3
                      A                      A                      A
 Frequencies --    254.7488               339.7598               533.2068
 Red. masses --      3.2103                 2.3370                 1.2337
 Frc consts  --      0.1228                 0.1589                 0.2067
 IR Inten    --      4.5828                 5.8413                54.5474

                      4                      5                      6
                      A                      A                      A
 Frequencies --    567.8159               644.7723               691.0371
 Red. masses --      1.2742                 1.3377                 3.3793
 Frc consts  --      0.2421                 0.3277                 0.9508
 IR Inten    --      6.0449                50.1175                13.2057

                      7                      8                      9
                      A                      A                      A
 Frequencies --    707.2712               756.3513               885.8058
 Red. masses --      1.8668                 3.8540                 2.8153
 Frc consts  --      0.5502                 1.2990                 1.3015
 IR Inten    --     10.8818                10.9430                 5.4428

                     10                     11                     12
                      A                      A                      A
 Frequencies --    899.3632               924.3068               975.6646
 Red. masses --      1.3478                 2.2920                 2.0782
 Frc consts  --      0.6423                 1.1537                 1.1656
 IR Inten    --      5.5504                 1.9795                10.1499

                     13                     14                     15
                      A                      A                      A
 Frequencies --   1141.1639              1168.4069              1304.5373
 Red. masses --      2.0884                 1.4926                 1.8437
 Frc consts  --      1.6023                 1.2006                 1.8487
 IR Inten    --      2.1028                 2.1567                 3.8745

                     16                     17                     18
                      A                      A                      A
 Frequencies --   1404.6311              1685.8604              3211.2475
 Red. masses --      3.4671                 8.2028                 1.0877
 Frc consts  --      4.0304                13.7359                 6.6088
 IR Inten    --      0.1581                 5.2546                 0.6004

                     19                     20                     21
                      A                      A                      A
 Frequencies --   3231.2340              3245.1888              3273.0051
 Red. masses --      1.0922                 1.1109                 1.1047
 Frc consts  --      6.7191                 6.8931                 6.9723
 IR Inten    --      3.6509                 2.7247                 3.0496

 - Thermochemistry -
 -------------------
 Temperature   298.150 Kelvin.  Pressure   1.00000 Atm.
 Atom     1 has atomic number  1 and mass   1.00783

 Molecular mass:    64.03130 amu.
 Principal axes and moments of inertia in atomic units:
                           1         2         3
     Eigenvalues --   122.66081 335.94689 458.60770
           X            0.99967   0.02583   0.00015
           Y           -0.02583   0.99967   0.00006
           Z           -0.00015  -0.00006   1.00000
 This molecule is an asymmetric top.
 Rotational symmetry number  1.
 Rotational temperatures (Kelvin)      0.70612     0.25782     0.18886
 Rotational constants (GHZ):          14.71327     5.37210     3.93526
 Zero-point vibrational energy     166552.3 (Joules/Mol)
                                   39.80697 (Kcal/Mol)
 Warning -- explicit consideration of   4 degrees of freedom as
           vibrations may cause significant error
 Vibrational temperatures:    366.53   488.84   767.16   816.96   927.68
          (Kelvin)            994.25  1017.60  1088.22  1274.48  1293.98
                             1329.87  1403.76  1641.88  1681.07  1876.94
                             2020.95  2425.57  4620.26  4649.02  4669.10
                             4709.12

 Zero-point correction=                           0.063436 (Hartree/Particle)
 Thermal correction to Energy=                    0.068217
 Thermal correction to Enthalpy=                  0.069162
 Thermal correction to Gibbs Free Energy=         0.035461
 Sum of electronic and zero-point Energies=           -192.724914
 Sum of electronic and thermal Energies=              -192.720134
 Sum of electronic and thermal Enthalpies=            -192.719189
 Sum of electronic and thermal Free Energies=         -192.752890

                     E (Thermal)             CV                S
                      KCal/Mol        Cal/Mol-Kelvin    Cal/Mol-Kelvin
 Total                   42.807             17.570             70.928
 Electronic               0.000              0.000              2.183
 Translational            0.889              2.981             38.389
 Rotational               0.889              2.981             24.450
 Vibrational             41.030             11.609              5.906
 Vibration     1          0.665              1.755              1.697
 Vibration     2          0.720              1.596              1.213
 Vibration     3          0.888              1.177              0.580
 Vibration     4          0.924              1.101              0.508

 Optimization completed.
    -- Stationary point found.
 Normal termination of Gaussian 09 at Wed Jul 20 10:27:17 2016.
