 Gaussian 09, Revision E.01,
 Gaussian 09:  EM64L-G09RevE.01 30-Nov-2015

 ------------------------------------------------------
 #p b3lyp/6-311++G(3df,2p) freq IOp(2/17=3) IOp(2/18=3)
 ------------------------------------------------------

 ---------
 b3lyp opt
 ---------
 Symbolic Z-matrix:
 Charge =  0 Multiplicity = 3

                         Standard orientation:
 ---------------------------------------------------------------------
 Center     Atomic      Atomic             Coordinates (Angstroms)
 Number     Number       Type             X           Y           Z
 ---------------------------------------------------------------------
      1          6           0        2.582888    0.787670    0.000000
      2          6           0        1.377350    0.455232    0.000000
      3          6           0       -2.144318   -0.713802    0.000000
      4          1           0       -2.703888   -1.637521    0.000000
      5          1           0       -2.710027    0.208778    0.000000
      6          6           0       -0.787308   -0.713404    0.000000
      7          1           0       -0.261520   -1.661387    0.000000
      8          6           0        0.000000    0.461554    0.000000
      9          1           0       -0.496232    1.426635    0.000000
 ---------------------------------------------------------------------

 SCF Done:  E(UB3LYP) =  -192.766622196     A.U. after   24 cycles

 The electronic state is 3-A".
 Alpha  occ. eigenvalues --  -10.23753 -10.22010 -10.21889 -10.20229 -10.19310
 Alpha  occ. eigenvalues --   -0.84787  -0.79152  -0.71825  -0.59780  -0.54200
 Alpha  occ. eigenvalues --   -0.47686  -0.43996  -0.39210  -0.38411  -0.37709
 Alpha  occ. eigenvalues --   -0.31420  -0.31163  -0.21663
 Alpha virt. eigenvalues --   -0.02161  -0.01812  -0.00090   0.00849   0.02411
 Alpha virt. eigenvalues --    0.04463   0.04533   0.05023   0.05699   0.07172
 Alpha virt. eigenvalues --    0.08023   0.08372   0.08906   0.10948   0.10995

  Beta  occ. eigenvalues --  -10.21801 -10.21630 -10.21194 -10.20467 -10.18668
  Beta  occ. eigenvalues --   -0.83382  -0.76970  -0.68852  -0.58978  -0.53394
  Beta  occ. eigenvalues --   -0.46999  -0.43252  -0.38811  -0.35738  -0.29472
  Beta  occ. eigenvalues --   -0.28632
  Beta virt. eigenvalues --   -0.19689  -0.11200  -0.00872  -0.00024   0.00447
  Beta virt. eigenvalues --    0.01266   0.03172   0.04569   0.05007   0.05731
  Beta virt. eigenvalues --    0.06553   0.07253   0.08209   0.09271   0.09730

 Mulliken charges and spin densities:
               1          2
     1  C   -0.429308   1.209106
     2  C    0.683738   0.041797
     3  C   -0.644315   0.498672
     4  H    0.167456  -0.016326
     5  H    0.135448  -0.012157
     6  C    0.184523  -0.228789
     7  H    0.162195   0.004806
     8  C   -0.403089   0.515369
     9  H    0.143353  -0.012479
 Sum of Mulliken charges =  -0.00000   2.00000

 Dipole moment (field-independent basis, Debye):
    X=             -1.9785    Y=             -0.8250    Z=              0.0000  Tot=              2.1436
 Quadrupole moment (field-independent basis, Debye-Ang):
   XX=            -31.3821   YY=            -28.7847   ZZ=            -33.0076
   XY=             -2.7422   XZ=              0.0000   YZ=              0.0000

  Exact polarizability: 149.244  36.453  59.929  -0.000  -0.000  42.070
 Approx polarizability: 201.743  44.873  82.280  -0.000  -0.000  56.817

                      1                      2                      3
                     A"                     A'                     A"
 Frequencies --    152.4547               160.5699               384.9476
 Red. masses --      4.1080                 5.2750                 5.8595
 Frc consts  --      0.0563                 0.0801                 0.5116
 IR Inten    --      0.0470                33.1810                 0.2002

                      4                      5                      6
                     A'                     A'                     A"
 Frequencies --    388.4905               527.8985               595.2796
 Red. masses --      2.9930                 6.3214                 1.1757
 Frc consts  --      0.2661                 1.0379                 0.2455
 IR Inten    --     61.3502                11.4324                 5.6535

                      7                      8                      9
                     A"                     A'                     A"
 Frequencies --    755.1611               870.8466               882.2604
 Red. masses --      1.6173                 3.1483                 1.3897
 Frc consts  --      0.5434                 1.4067                 0.6373
 IR Inten    --      3.1930               783.4482                44.1506

                     10                     11                     12
                     A"                     A'                     A'
 Frequencies --   1004.6058              1014.8242              1182.5702
 Red. masses --      1.1498                 1.6931                 1.8866
 Frc consts  --      0.6837                 1.0273                 1.5545
 IR Inten    --     20.0038               682.1474                98.9188

                     13                     14                     15
                     A'                     A'                     A'
 Frequencies --   1263.3279              1298.0070              1385.7809
 Red. masses --      2.6544                 1.5115                 3.3528
 Frc consts  --      2.4960                 1.5005                 3.7936
 IR Inten    --    674.6443                16.9115               800.8402

                     16                     17                     18
                     A'                     A'                     A'
 Frequencies --   1456.3129              1555.8748              3134.2899
 Red. masses --      1.5100                 1.9894                 1.0816
 Frc consts  --      1.8869                 2.8375                 6.2604
 IR Inten    --     23.5557                43.2376                 2.1866

                     19                     20                     21
                     A'                     A'                     A'
 Frequencies --   3141.2759              3153.5301              3234.2756
 Red. masses --      1.0593                 1.0894                 1.1161
 Frc consts  --      6.1588                 6.3833                 6.8790
 IR Inten    --      4.5767                 4.5925                 5.6758

 - Thermochemistry -
 -------------------
 Temperature   298.150 Kelvin.  Pressure   1.00000 Atm.
 Atom     1 has atomic number  6 and mass  12.00000

 Molecular mass:    64.03130 amu.
 Principal axes and moments of inertia in atomic units:
                           1         2         3
     Eigenvalues --    37.94462 719.77976 757.72438
           X            0.94168  -0.33651   0.00000
           Y            0.33651   0.94168   0.00000
           Z            0.00000   0.00000   1.00000
 This molecule is an asymmetric top.
 Rotational symmetry number  1.
 Rotational temperatures (Kelvin)      2.28264     0.12033     0.11431
 Rotational constants (GHZ):          47.56250     2.50735     2.38179
 Zero-point vibrational energy     164741.2 (Joules/Mol)
                                   39.37410 (Kcal/Mol)
 Warning -- explicit consideration of   6 degrees of freedom as
           vibrations may cause significant error
 Vibrational temperatures:    219.35   231.02   553.85   558.95   759.53
          (Kelvin)            856.47  1086.51  1252.95  1269.37  1445.40
                             1460.10  1701.45  1817.64  1867.54  1993.83
                             2095.31  2238.55  4509.54  4519.59  4537.22
                             4653.40

 Zero-point correction=                           0.062747 (Hartree/Particle)
 Thermal correction to Energy=                    0.068197
 Thermal correction to Enthalpy=                  0.069141
 Thermal correction to Gibbs Free Energy=         0.033861
 Sum of electronic and zero-point Energies=           -192.703876
 Sum of electronic and thermal Energies=              -192.698426
 Sum of electronic and thermal Enthalpies=            -192.697481
 Sum of electronic and thermal Free Energies=         -192.732761

                     E (Thermal)             CV                S
                      KCal/Mol        Cal/Mol-Kelvin    Cal/Mol-Kelvin
 Total                   42.794             18.299             74.253
 Electronic               0.000              0.000              2.183
 Translational            0.889              2.981             38.389
 Rotational               0.889              2.981             24.541
 Vibrational             41.017             12.337              9.140
 Vibration     1          0.619              1.900              2.641
 Vibration     2          0.622              1.891              2.543
 Vibration     3          0.754              1.502              1.020
 Vibration     4          0.757              1.495              1.006
 Vibration     5          0.883              1.188              0.592
 Vibration     6          0.953              1.042              0.458

 Normal termination of Gaussian 09 at Thu Jan 31 06:58:16 2019.
