 Gaussian 09, Revision E.01,
 Gaussian 09:  EM64L-G09RevE.01 30-Nov-2015

 ---------------------------------------------
 #p b3lyp/6-311++G(3df,2p) freq symmetry=Loose
 ---------------------------------------------

 ---------
 b3lyp opt
 ---------
 Symbolic Z-matrix:
 Charge =  2 Multiplicity = 3

                         Standard orientation:
 ---------------------------------------------------------------------
 Center     Atomic      Atomic             Coordinates (Angstroms)
 Number     Number       Type             X           Y           Z
 ---------------------------------------------------------------------
      1          6           0       -0.673552    0.885240    0.243854
      2          6           0        0.461008    0.000202    0.055606
      3          6           0       -0.673459   -0.885209    0.243876
      4          6           0        1.857175    0.000126   -0.151827
      5          1           0        2.243871   -0.003077    0.915483
      6          1           0        2.242821   -0.925852   -0.591699
      7          1           0        2.243705    0.927411   -0.587790
      8          6           0       -1.649267   -0.000073   -0.238573
      9          1           0       -2.661824   -0.000197   -0.653609
 ---------------------------------------------------------------------

 SCF Done:  E(UB3LYP) =  -191.859517336     A.U. after   16 cycles

 The electronic state is 3-A.
 Alpha  occ. eigenvalues --  -10.80412 -10.80409 -10.79120 -10.77140 -10.62165
 Alpha  occ. eigenvalues --   -1.49507  -1.25302  -1.14408  -1.12727  -0.99584
 Alpha  occ. eigenvalues --   -0.95311  -0.94734  -0.90710  -0.86805  -0.83647
 Alpha  occ. eigenvalues --   -0.83196  -0.75019
 Alpha virt. eigenvalues --   -0.59900  -0.55978  -0.48397  -0.33354  -0.32326
 Alpha virt. eigenvalues --   -0.30399  -0.29189  -0.27191  -0.27036  -0.25683
 Alpha virt. eigenvalues --   -0.24684  -0.23408  -0.22783  -0.21177  -0.20713

  Beta  occ. eigenvalues --  -10.79039 -10.78307 -10.78305 -10.77179 -10.62157
  Beta  occ. eigenvalues --   -1.47648  -1.25032  -1.13948  -1.07095  -0.99091
  Beta  occ. eigenvalues --   -0.93897  -0.91791  -0.90128  -0.82906  -0.82816
  Beta virt. eigenvalues --   -0.68217  -0.60315  -0.58067  -0.49141  -0.45626
  Beta virt. eigenvalues --   -0.32853  -0.31319  -0.30137  -0.28265  -0.26846
  Beta virt. eigenvalues --   -0.25869  -0.25229  -0.23951  -0.23124  -0.21673

 Mulliken charges and spin densities:
               1          2
     1  C    0.261647   1.161465
     2  C    0.284288  -0.166913
     3  C    0.261493   1.161612
     4  C   -0.153866   0.016405
     5  H    0.286092   0.002037
     6  H    0.250876   0.001268
     7  H    0.250712   0.001292
     8  C    0.176238  -0.187291
     9  H    0.382520   0.010124
 Sum of Mulliken charges =   2.00000   2.00000

 Dipole moment (field-independent basis, Debye):
    X=             -1.1810    Y=             -0.0024    Z=             -0.4511  Tot=              1.2642
 Quadrupole moment (field-independent basis, Debye-Ang):
   XX=              4.7623   YY=            -19.1447   ZZ=            -22.2808
   XY=             -0.0050   XZ=              2.5424   YZ=             -0.0002

  Exact polarizability:  64.821  -0.010  36.607   2.350  -0.000  28.751
 Approx polarizability: 105.054  -0.029  70.826   7.916  -0.002  44.858

                      1                      2                      3
                      A                      A                      A
 Frequencies --     90.8851               246.8240               354.7804
 Red. masses --      1.1355                 2.5008                 3.1251
 Frc consts  --      0.0055                 0.0898                 0.2318
 IR Inten    --     18.0353                10.1437                 2.1724

                      4                      5                      6
                      A                      A                      A
 Frequencies --    531.1117               674.3661               675.1995
 Red. masses --      1.9220                 6.4448                 6.3354
 Frc consts  --      0.3194                 1.7268                 1.7017
 IR Inten    --      1.6034                 0.0847                 3.2307

                      7                      8                      9
                      A                      A                      A
 Frequencies --    857.0710               894.1397               944.4970
 Red. masses --      2.2673                 2.4696                 1.9082
 Frc consts  --      0.9813                 1.1633                 1.0029
 IR Inten    --    128.5598                 4.3422                 0.0827

                     10                     11                     12
                      A                      A                      A
 Frequencies --    984.5548              1028.2367              1179.5983
 Red. masses --      2.5783                 1.3258                 2.2609
 Frc consts  --      1.4725                 0.8259                 1.8535
 IR Inten    --     14.7899                38.7492                 5.4480

                     13                     14                     15
                      A                      A                      A
 Frequencies --   1233.8656              1257.3275              1378.1013
 Red. masses --      1.1334                 1.1507                 6.5202
 Frc consts  --      1.0166                 1.0718                 7.2958
 IR Inten    --    154.6990                59.0958               117.1490

                     16                     17                     18
                      A                      A                      A
 Frequencies --   1429.5916              1496.6149              2693.0348
 Red. masses --      1.2252                 5.4931                 1.0667
 Frc consts  --      1.4752                 7.2492                 4.5581
 IR Inten    --      6.9884               171.8249               442.0520

                     19                     20                     21
                      A                      A                      A
 Frequencies --   3007.8713              3092.3406              3112.9946
 Red. masses --      1.0520                 1.1116                 1.1126
 Frc consts  --      5.6077                 6.2628                 6.3526
 IR Inten    --    149.4796                73.4446               277.5817

 - Thermochemistry -
 -------------------
 Temperature   298.150 Kelvin.  Pressure   1.00000 Atm.
 Atom     1 has atomic number  6 and mass  12.00000

 Molecular mass:    64.03130 amu.
 Principal axes and moments of inertia in atomic units:
                           1         2         3
     Eigenvalues --    88.96909 406.95247 464.66615
           X            0.99995  -0.00002   0.01028
           Y            0.00002   1.00000   0.00000
           Z           -0.01028  -0.00000   0.99995
 This molecule is an asymmetric top.
 Rotational symmetry number  1.
 Rotational temperatures (Kelvin)      0.97353     0.21284     0.18640
 Rotational constants (GHZ):          20.28504     4.43477     3.88395
 Zero-point vibrational energy     162470.9 (Joules/Mol)
                                   38.83147 (Kcal/Mol)
 Warning -- explicit consideration of   4 degrees of freedom as
           vibrations may cause significant error
 Vibrational temperatures:    130.76   355.12   510.45   764.15   970.26
          (Kelvin)            971.46  1233.13  1286.47  1358.92  1416.55
                             1479.40  1697.18  1775.26  1809.01  1982.78
                             2056.86  2153.29  3874.67  4327.65  4449.18
                             4478.90

 Zero-point correction=                           0.061882 (Hartree/Particle)
 Thermal correction to Energy=                    0.067064
 Thermal correction to Enthalpy=                  0.068009
 Thermal correction to Gibbs Free Energy=         0.033098
 Sum of electronic and zero-point Energies=           -191.797635
 Sum of electronic and thermal Energies=              -191.792453
 Sum of electronic and thermal Enthalpies=            -191.791509
 Sum of electronic and thermal Free Energies=         -191.826419

                     E (Thermal)             CV                S
                      KCal/Mol        Cal/Mol-Kelvin    Cal/Mol-Kelvin
 Total                   42.084             17.301             73.475
 Electronic               0.000              0.000              2.183
 Translational            0.889              2.981             38.389
 Rotational               0.889              2.981             24.335
 Vibrational             40.306             11.339              8.568
 Vibration     1          0.602              1.956              3.641
 Vibration     2          0.661              1.768              1.753
 Vibration     3          0.731              1.565              1.145
 Vibration     4          0.886              1.181              0.585

 Normal termination of Gaussian 09 at Mon Jun 20 09:35:57 2016.
