 Gaussian 09, Revision E.01,
 Gaussian 09:  EM64L-G09RevE.01 30-Nov-2015

 ---------------------------------------------
 #p b3lyp/6-311++G(3df,2p) freq symmetry=Loose
 ---------------------------------------------

 ---------
 b3lyp opt
 ---------
 Symbolic Z-matrix:
 Charge =  1 Multiplicity = 4

                         Standard orientation:
 ---------------------------------------------------------------------
 Center     Atomic      Atomic             Coordinates (Angstroms)
 Number     Number       Type             X           Y           Z
 ---------------------------------------------------------------------
      1          6           0       -0.838103   -1.010347    0.000000
      2          6           0        0.553726   -1.155055    0.000000
      3          6           0        1.210527    0.168669    0.000000
      4          1           0        1.848796    0.323444    0.878586
      5          1           0        1.848796    0.323444   -0.878586
      6          6           0        0.000000    1.067177    0.000000
      7          1           0        0.068024    2.148239    0.000000
      8          6           0       -1.188795    0.339324    0.000000
      9          1           0       -2.189750    0.746269    0.000000
 ---------------------------------------------------------------------

 SCF Done:  E(UB3LYP) =  -192.460286945     A.U. after   15 cycles

 The electronic state is 4-A".
 Alpha  occ. eigenvalues --  -10.50608 -10.48624 -10.47278 -10.44527 -10.43069
 Alpha  occ. eigenvalues --   -1.15330  -0.97990  -0.97287  -0.81616  -0.76192
 Alpha  occ. eigenvalues --   -0.74580  -0.69833  -0.64934  -0.63631  -0.57822
 Alpha  occ. eigenvalues --   -0.55847  -0.50733  -0.50504
 Alpha virt. eigenvalues --   -0.31579  -0.19837  -0.15799  -0.12649  -0.11980
 Alpha virt. eigenvalues --   -0.11889  -0.10498  -0.08816  -0.08282  -0.07056
 Alpha virt. eigenvalues --   -0.05630  -0.05218  -0.04047  -0.03170  -0.02007

  Beta  occ. eigenvalues --  -10.48119 -10.46674 -10.46411 -10.44372 -10.42960
  Beta  occ. eigenvalues --   -1.12180  -0.96506  -0.92759  -0.79877  -0.72824
  Beta  occ. eigenvalues --   -0.71869  -0.67967  -0.63657  -0.62216  -0.55285
  Beta virt. eigenvalues --   -0.38976  -0.37528  -0.31180  -0.26463  -0.15646
  Beta virt. eigenvalues --   -0.15439  -0.12336  -0.11809  -0.11376  -0.10166
  Beta virt. eigenvalues --   -0.08305  -0.07259  -0.06932  -0.04973  -0.04515

 Mulliken charges and spin densities:
               1          2
     1  C    0.252829   1.059344
     2  C    0.123742   1.457894
     3  C   -0.262300  -0.043911
     4  H    0.197573   0.002474
     5  H    0.197573   0.002474
     6  C    0.142543   0.531504
     7  H    0.241960   0.005935
     8  C   -0.125882  -0.027302
     9  H    0.231961   0.011588
 Sum of Mulliken charges =   1.00000   3.00000

 Dipole moment (field-independent basis, Debye):
    X=              0.4933    Y=              1.4548    Z=              0.0000  Tot=              1.5362
 Quadrupole moment (field-independent basis, Debye-Ang):
   XX=            -17.4290   YY=            -20.7634   ZZ=            -26.4689
   XY=             -0.4213   XZ=              0.0000   YZ=              0.0000

  Exact polarizability:  54.376  -0.558  53.453  -0.000  -0.000  31.427
 Approx polarizability:  88.014  -0.316  93.561   0.000  -0.000  47.952

                      1                      2                      3
                     A"                     A"                     A"
 Frequencies --    317.8047               489.3121               698.7022
 Red. masses --      1.6480                 3.5028                 1.2455
 Frc consts  --      0.0981                 0.4941                 0.3583
 IR Inten    --      3.5601                 0.2890                38.7452

                      4                      5                      6
                     A'                     A'                     A'
 Frequencies --    739.2995               769.1627               898.5718
 Red. masses --      8.2623                 6.6175                 2.0431
 Frc consts  --      2.6607                 2.3066                 0.9720
 IR Inten    --      0.3544                 2.0296                 5.4418

                      7                      8                      9
                     A"                     A"                     A'
 Frequencies --    905.5001               965.3583               986.0400
 Red. masses --      1.8074                 1.3832                 3.9863
 Frc consts  --      0.8732                 0.7595                 2.2835
 IR Inten    --      7.8766                 4.1178                10.1531

                     10                     11                     12
                     A'                     A"                     A'
 Frequencies --   1098.1810              1114.3875              1151.1413
 Red. masses --      1.2633                 1.1720                 2.5970
 Frc consts  --      0.8977                 0.8576                 2.0276
 IR Inten    --      7.1446                 1.2107                 2.6508

                     13                     14                     15
                     A'                     A'                     A'
 Frequencies --   1255.8421              1349.9813              1372.3159
 Red. masses --      1.8556                 1.5231                 2.5960
 Frc consts  --      1.7242                 1.6354                 2.8805
 IR Inten    --     23.5680                56.0618                92.1800

                     16                     17                     18
                     A'                     A'                     A'
 Frequencies --   1403.6720              1433.4204              3012.8002
 Red. masses --      2.5060                 3.0550                 1.0603
 Frc consts  --      2.9092                 3.6983                 5.6704
 IR Inten    --     29.4489                 5.6293                54.3833

                     19                     20                     21
                     A"                     A'                     A'
 Frequencies --   3039.9594              3191.2370              3221.0720
 Red. masses --      1.0987                 1.0916                 1.0992
 Frc consts  --      5.9820                 6.5500                 6.7195
 IR Inten    --     26.1950                20.7393                32.8692

 - Thermochemistry -
 -------------------
 Temperature   298.150 Kelvin.  Pressure   1.00000 Atm.
 Atom     1 has atomic number  6 and mass  12.00000

 Molecular mass:    64.03130 amu.
 Principal axes and moments of inertia in atomic units:
                           1         2         3
     Eigenvalues --   180.07689 213.92357 382.88797
           X            0.99955   0.03001   0.00000
           Y           -0.03001   0.99955   0.00000
           Z            0.00000  -0.00000   1.00000
 This molecule is an asymmetric top.
 Rotational symmetry number  1.
 Rotational temperatures (Kelvin)      0.48098     0.40488     0.22621
 Rotational constants (GHZ):          10.02206     8.43638     4.71350
 Zero-point vibrational energy     175933.4 (Joules/Mol)
                                   42.04908 (Kcal/Mol)
 Warning -- explicit consideration of   2 degrees of freedom as
           vibrations may cause significant error
 Vibrational temperatures:    457.25   704.01  1005.28  1063.69  1106.65
          (Kelvin)           1292.84  1302.81  1388.93  1418.69  1580.04
                             1603.35  1656.23  1806.87  1942.32  1974.45
                             2019.57  2062.37  4334.74  4373.82  4591.47
                             4634.40

 Zero-point correction=                           0.067009 (Hartree/Particle)
 Thermal correction to Energy=                    0.071073
 Thermal correction to Enthalpy=                  0.072017
 Thermal correction to Gibbs Free Energy=         0.039270
 Sum of electronic and zero-point Energies=           -192.393277
 Sum of electronic and thermal Energies=              -192.389214
 Sum of electronic and thermal Enthalpies=            -192.388270
 Sum of electronic and thermal Free Energies=         -192.421017

                     E (Thermal)             CV                S
                      KCal/Mol        Cal/Mol-Kelvin    Cal/Mol-Kelvin
 Total                   44.599             14.370             68.923
 Electronic               0.000              0.000              2.755
 Translational            0.889              2.981             38.389
 Rotational               0.889              2.981             24.204
 Vibrational             42.822              8.409              3.575
 Vibration     1          0.704              1.640              1.321
 Vibration     2          0.845              1.274              0.685

 Optimization completed.
    -- Stationary point found.
 Normal termination of Gaussian 09 at Mon Jun 20 07:21:00 2016.
