 Gaussian 09, Revision E.01,
 Gaussian 09:  EM64L-G09RevE.01 30-Nov-2015

 ---------------------------------------------
 #p b3lyp/6-311++G(3df,2p) freq symmetry=Loose
 ---------------------------------------------

 ---------
 b3lyp opt
 ---------
 Symbolic Z-matrix:
 Charge =  1 Multiplicity = 4

                         Standard orientation:
 ---------------------------------------------------------------------
 Center     Atomic      Atomic             Coordinates (Angstroms)
 Number     Number       Type             X           Y           Z
 ---------------------------------------------------------------------
      1          6           0        0.503833    0.830353   -0.228134
      2          1           0        1.900603   -0.000141    1.254033
      3          6           0       -0.610088   -0.000001    0.005798
      4          6           0       -1.983780   -0.000010    0.087348
      5          1           0       -2.526297    0.933396    0.131166
      6          1           0       -2.526297   -0.933425    0.130956
      7          6           0        0.503833   -0.830301   -0.228320
      8          6           0        1.684864   -0.000021    0.186542
      9          1           0        2.560025    0.000051   -0.455562
 ---------------------------------------------------------------------

 SCF Done:  E(UB3LYP) =  -192.404205745     A.U. after   15 cycles

 The electronic state is 4-A.
 Alpha  occ. eigenvalues --  -10.52223 -10.52215 -10.47339 -10.45363 -10.43060
 Alpha  occ. eigenvalues --   -1.21225  -1.00821  -0.91340  -0.83786  -0.75106
 Alpha  occ. eigenvalues --   -0.72165  -0.68563  -0.67773  -0.61361  -0.61359
 Alpha  occ. eigenvalues --   -0.59028  -0.47588  -0.47114
 Alpha virt. eigenvalues --   -0.27902  -0.21491  -0.14294  -0.13293  -0.12579
 Alpha virt. eigenvalues --   -0.11447  -0.09374  -0.09171  -0.07588  -0.06425
 Alpha virt. eigenvalues --   -0.05335  -0.05292  -0.04653  -0.04082  -0.03119

  Beta  occ. eigenvalues --  -10.49994 -10.49988 -10.47522 -10.45307 -10.42026
  Beta  occ. eigenvalues --   -1.18694  -0.98993  -0.89681  -0.77268  -0.73725
  Beta  occ. eigenvalues --   -0.69591  -0.66747  -0.66611  -0.60061  -0.56700
  Beta virt. eigenvalues --   -0.42874  -0.34795  -0.30094  -0.21683  -0.18167
  Beta virt. eigenvalues --   -0.13605  -0.12956  -0.11691  -0.11111  -0.08931
  Beta virt. eigenvalues --   -0.08853  -0.07250  -0.05552  -0.04637  -0.04579

 Mulliken charges and spin densities:
               1          2
     1  C    0.071868   1.330836
     2  H    0.261307   0.045897
     3  C    0.736237  -0.330104
     4  C   -0.296564   0.711949
     5  H    0.231206  -0.018791
     6  H    0.231206  -0.018791
     7  C    0.071868   1.330836
     8  C   -0.514192  -0.074780
     9  H    0.207063   0.022947
 Sum of Mulliken charges =   1.00000   3.00000

 Dipole moment (field-independent basis, Debye):
    X=              0.1562    Y=             -0.0001    Z=              0.5699  Tot=              0.5909
 Quadrupole moment (field-independent basis, Debye-Ang):
   XX=            -10.0695   YY=            -23.9617   ZZ=            -26.8809
   XY=             -0.0000   XZ=              0.2398   YZ=              0.0003

  Exact polarizability:  72.417   0.000  40.521  -0.786   0.001  32.927
 Approx polarizability: 103.593   0.000  75.259  -2.370   0.003  47.548

                      1                      2                      3
                      A                      A                      A
 Frequencies --    250.5167               327.3933               447.3297
 Red. masses --      2.9217                 2.8649                 1.0882
 Frc consts  --      0.1080                 0.1809                 0.1283
 IR Inten    --      9.3586                 2.9124                 0.6009

                      4                      5                      6
                      A                      A                      A
 Frequencies --    557.7098               698.7107               743.3456
 Red. masses --      4.7288                 5.3277                 5.7717
 Frc consts  --      0.8666                 1.5325                 1.8790
 IR Inten    --     13.1578                 0.1239                14.6760

                      7                      8                      9
                      A                      A                      A
 Frequencies --    845.7903               874.0088               997.3336
 Red. masses --      2.9901                 1.3615                 1.8669
 Frc consts  --      1.2603                 0.6128                 1.0941
 IR Inten    --      1.1910                25.3277                17.2977

                     10                     11                     12
                      A                      A                      A
 Frequencies --   1019.2440              1078.5220              1088.0625
 Red. masses --      1.1824                 1.4952                 3.1138
 Frc consts  --      0.7237                 1.0247                 2.1720
 IR Inten    --      1.5514                 3.9570                 2.6670

                     13                     14                     15
                      A                      A                      A
 Frequencies --   1158.4276              1183.5905              1459.1369
 Red. masses --      6.0594                 1.5685                 1.1913
 Frc consts  --      4.7909                 1.2946                 1.4944
 IR Inten    --      1.7274                32.0762                12.9981

                     16                     17                     18
                      A                      A                      A
 Frequencies --   1475.0785              1556.3931              3070.4777
 Red. masses --      1.1338                 7.1972                 1.0558
 Frc consts  --      1.4535                10.2720                 5.8647
 IR Inten    --      2.0998                 1.7144                28.9691

                     19                     20                     21
                      A                      A                      A
 Frequencies --   3157.1820              3167.3842              3267.8284
 Red. masses --      1.0524                 1.1128                 1.1219
 Frc consts  --      6.1805                 6.5779                 7.0586
 IR Inten    --     25.8681                16.3158                15.9385

 - Thermochemistry -
 -------------------
 Temperature   298.150 Kelvin.  Pressure   1.00000 Atm.
 Atom     1 has atomic number  6 and mass  12.00000

 Molecular mass:    64.03130 amu.
 Principal axes and moments of inertia in atomic units:
                           1         2         3
     Eigenvalues --    78.10340 423.25713 475.87453
           X            0.99999   0.00000   0.00486
           Y            0.00000   1.00000  -0.00011
           Z           -0.00486   0.00011   0.99999
 This molecule is an asymmetric top.
 Rotational symmetry number  1.
 Rotational temperatures (Kelvin)      1.10896     0.20464     0.18201
 Rotational constants (GHZ):          23.10708     4.26394     3.79247
 Zero-point vibrational energy     170010.1 (Joules/Mol)
                                   40.63338 (Kcal/Mol)
 Warning -- explicit consideration of   4 degrees of freedom as
           vibrations may cause significant error
 Vibrational temperatures:    360.44   471.05   643.61   802.42  1005.29
          (Kelvin)           1069.51  1216.90  1257.50  1434.94  1466.46
                             1551.75  1565.48  1666.72  1702.92  2099.37
                             2122.31  2239.30  4417.73  4542.48  4557.15
                             4701.67

 Zero-point correction=                           0.064753 (Hartree/Particle)
 Thermal correction to Energy=                    0.069422
 Thermal correction to Enthalpy=                  0.070367
 Thermal correction to Gibbs Free Energy=         0.036593
 Sum of electronic and zero-point Energies=           -192.339452
 Sum of electronic and thermal Energies=              -192.334783
 Sum of electronic and thermal Enthalpies=            -192.333839
 Sum of electronic and thermal Free Energies=         -192.367613

                     E (Thermal)             CV                S
                      KCal/Mol        Cal/Mol-Kelvin    Cal/Mol-Kelvin
 Total                   43.563             16.534             71.083
 Electronic               0.000              0.000              2.755
 Translational            0.889              2.981             38.389
 Rotational               0.889              2.981             24.268
 Vibrational             41.786             10.573              5.671
 Vibration     1          0.663              1.762              1.727
 Vibration     2          0.711              1.621              1.273
 Vibration     3          0.806              1.367              0.804
 Vibration     4          0.913              1.123              0.528

 Optimization completed.
    -- Stationary point found.
 Normal termination of Gaussian 09 at Wed Jul 20 21:21:59 2016.
