 Gaussian 09, Revision E.01,
 Gaussian 09:  EM64L-G09RevE.01 30-Nov-2015

 ---------------------------------------------
 #p b3lyp/6-311++G(3df,2p) freq symmetry=Loose
 ---------------------------------------------

 ---------
 b3lyp opt
 ---------
 Symbolic Z-matrix:
 Charge =  1 Multiplicity = 4

                         Standard orientation:
 ---------------------------------------------------------------------
 Center     Atomic      Atomic             Coordinates (Angstroms)
 Number     Number       Type             X           Y           Z
 ---------------------------------------------------------------------
      1          6           0       -1.779403   -0.545001   -0.000070
      2          6           0       -0.432115   -0.263883   -0.000028
      3          6           0        0.928673   -0.582838   -0.000036
      4          1           0        1.155306   -1.651228   -0.000123
      5          6           0        1.988515    0.391877    0.000060
      6          1           0        2.461052    0.690030   -0.930814
      7          1           0        2.461027    0.689874    0.930995
      8          6           0       -1.444412    0.744136    0.000043
      9          1           0       -1.644932    1.805574    0.000129
 ---------------------------------------------------------------------

 SCF Done:  E(UB3LYP) =  -192.430408016     A.U. after   15 cycles

 The electronic state is 4-A.
 Alpha  occ. eigenvalues --  -10.50098 -10.49927 -10.49299 -10.45907 -10.39146
 Alpha  occ. eigenvalues --   -1.20194  -1.03199  -0.88828  -0.83264  -0.76299
 Alpha  occ. eigenvalues --   -0.69922  -0.67516  -0.67312  -0.63522  -0.62690
 Alpha  occ. eigenvalues --   -0.52495  -0.48162  -0.43102
 Alpha virt. eigenvalues --   -0.27430  -0.22515  -0.14872  -0.13676  -0.12038
 Alpha virt. eigenvalues --   -0.11536  -0.10722  -0.09660  -0.07362  -0.07135
 Alpha virt. eigenvalues --   -0.06461  -0.05896  -0.04905  -0.03746  -0.02912

  Beta  occ. eigenvalues --  -10.49436 -10.48858 -10.48470 -10.45025 -10.37705
  Beta  occ. eigenvalues --   -1.18486  -0.99478  -0.85285  -0.81665  -0.73121
  Beta  occ. eigenvalues --   -0.66934  -0.64464  -0.64184  -0.61297  -0.60335
  Beta virt. eigenvalues --   -0.37896  -0.37306  -0.27161  -0.24536  -0.18284
  Beta virt. eigenvalues --   -0.14362  -0.13224  -0.11366  -0.10893  -0.10447
  Beta virt. eigenvalues --   -0.08933  -0.06929  -0.06896  -0.05169  -0.04799

 Mulliken charges and spin densities:
               1          2
     1  C    0.084363   0.900259
     2  C    0.426740   0.189404
     3  C   -0.273140   0.559584
     4  H    0.228471   0.039923
     5  C   -0.470422   1.029322
     6  H    0.223822   0.018271
     7  H    0.223823   0.018271
     8  C    0.243269   0.244399
     9  H    0.313074   0.000568
 Sum of Mulliken charges =   1.00000   3.00000

 Dipole moment (field-independent basis, Debye):
    X=             -0.4976    Y=              0.9468    Z=              0.0001  Tot=              1.0696
 Quadrupole moment (field-independent basis, Debye-Ang):
   XX=            -13.5012   YY=            -20.8657   ZZ=            -26.0270
   XY=             -2.8464   XZ=             -0.0001   YZ=              0.0004

  Exact polarizability:  73.231   0.444  45.862   0.001   0.001  32.123
 Approx polarizability: 101.369   1.366  73.305   0.001   0.002  47.199

                      1                      2                      3
                      A                      A                      A
 Frequencies --    189.1278               209.5355               279.9592
 Red. masses --      3.4822                 3.2835                 1.2166
 Frc consts  --      0.0734                 0.0849                 0.0562
 IR Inten    --      1.2426                 2.4013                 4.7879

                      4                      5                      6
                      A                      A                      A
 Frequencies --    442.4622               494.4999               560.5252
 Red. masses --      1.3576                 2.8178                 4.7994
 Frc consts  --      0.1566                 0.4060                 0.8884
 IR Inten    --     56.0904                 1.2107                11.9631

                      7                      8                      9
                      A                      A                      A
 Frequencies --    713.1965               800.5483               861.1400
 Red. masses --      1.0925                 3.2997                 1.3598
 Frc consts  --      0.3274                 1.2460                 0.5941
 IR Inten    --     14.8024                 2.8174                20.3252

                     10                     11                     12
                      A                      A                      A
 Frequencies --    948.5795               961.6695              1073.4205
 Red. masses --      1.6000                 1.5508                 3.5366
 Frc consts  --      0.8482                 0.8450                 2.4009
 IR Inten    --      3.9817                20.8128                82.9301

                     13                     14                     15
                      A                      A                      A
 Frequencies --   1147.3300              1323.7817              1371.5362
 Red. masses --      2.9521                 1.6874                 1.1657
 Frc consts  --      2.2896                 1.7422                 1.2920
 IR Inten    --      8.2172                50.1521                33.5954

                     16                     17                     18
                      A                      A                      A
 Frequencies --   1477.3807              1704.7055              3067.7564
 Red. masses --      7.8383                 9.0527                 1.0830
 Frc consts  --     10.0799                15.4998                 6.0053
 IR Inten    --     58.1478                27.9766                24.6702

                     19                     20                     21
                      A                      A                      A
 Frequencies --   3091.9646              3189.0763              3246.7477
 Red. masses --      1.0479                 1.1147                 1.1164
 Frc consts  --      5.9025                 6.6794                 6.9338
 IR Inten    --     66.8450                21.6873                82.6677

 - Thermochemistry -
 -------------------
 Temperature   298.150 Kelvin.  Pressure   1.00000 Atm.
 Atom     1 has atomic number  6 and mass  12.00000

 Molecular mass:    64.03130 amu.
 Principal axes and moments of inertia in atomic units:
                           1         2         3
     Eigenvalues --    91.60265 502.85111 581.97840
           X            0.99993  -0.01186  -0.00001
           Y            0.01186   0.99993  -0.00008
           Z            0.00001   0.00008   1.00000
 This molecule is an asymmetric top.
 Rotational symmetry number  1.
 Rotational temperatures (Kelvin)      0.94554     0.17225     0.14883
 Rotational constants (GHZ):          19.70184     3.58902     3.10104
 Zero-point vibrational energy     162422.6 (Joules/Mol)
                                   38.81994 (Kcal/Mol)
 Warning -- explicit consideration of   6 degrees of freedom as
           vibrations may cause significant error
 Vibrational temperatures:    272.11   301.47   402.80   636.60   711.47
          (Kelvin)            806.47  1026.13  1151.81  1238.99  1364.79
                             1383.63  1544.41  1650.75  1904.62  1973.33
                             2125.62  2452.69  4413.81  4448.64  4588.36
                             4671.34

 Zero-point correction=                           0.061864 (Hartree/Particle)
 Thermal correction to Energy=                    0.067357
 Thermal correction to Enthalpy=                  0.068302
 Thermal correction to Gibbs Free Energy=         0.032742
 Sum of electronic and zero-point Energies=           -192.368545
 Sum of electronic and thermal Energies=              -192.363051
 Sum of electronic and thermal Enthalpies=            -192.362106
 Sum of electronic and thermal Free Energies=         -192.397666

                     E (Thermal)             CV                S
                      KCal/Mol        Cal/Mol-Kelvin    Cal/Mol-Kelvin
 Total                   42.267             18.893             74.842
 Electronic               0.000              0.000              2.755
 Translational            0.889              2.981             38.389
 Rotational               0.889              2.981             24.798
 Vibrational             40.490             12.932              8.900
 Vibration     1          0.633              1.855              2.236
 Vibration     2          0.642              1.826              2.048
 Vibration     3          0.680              1.711              1.534
 Vibration     4          0.802              1.378              0.819
 Vibration     5          0.850              1.262              0.672
 Vibration     6          0.916              1.117              0.523

 Optimization completed.
    -- Stationary point found.
 Normal termination of Gaussian 09 at Wed Jul 20 21:19:07 2016.
