 Gaussian 09, Revision E.01,
 Gaussian 09:  EM64L-G09RevE.01 30-Nov-2015

 ---------------------------------------------
 #p b3lyp/6-311++G(3df,2p) freq symmetry=Loose
 ---------------------------------------------

 ---------
 b3lyp opt
 ---------
 Symbolic Z-matrix:
 Charge =  1 Multiplicity = 2

                         Standard orientation:
 ---------------------------------------------------------------------
 Center     Atomic      Atomic             Coordinates (Angstroms)
 Number     Number       Type             X           Y           Z
 ---------------------------------------------------------------------
      1          6           0        0.946701    0.611776    0.305821
      2          1           0        1.262860    1.083533    1.229958
      3          6           0        1.269783   -0.683654   -0.192753
      4          6           0       -0.060559   -0.803727   -0.004945
      5          1           0       -1.561020    0.077369    1.293075
      6          6           0       -0.320919    0.713538   -0.460106
      7          1           0       -0.346599    0.917636   -1.521457
      8          6           0       -1.359732   -0.109233    0.242365
      9          1           0       -2.206893   -0.450742   -0.343873
 ---------------------------------------------------------------------

 SCF Done:  E(UB3LYP) =  -192.435440684     A.U. after   16 cycles

 The electronic state is 2-A.
 Alpha  occ. eigenvalues --  -10.51491 -10.49838 -10.49779 -10.48784 -10.47081
 Alpha  occ. eigenvalues --   -1.24244  -1.04115  -0.90537  -0.84739  -0.78276
 Alpha  occ. eigenvalues --   -0.72694  -0.69895  -0.67184  -0.64636  -0.59955
 Alpha  occ. eigenvalues --   -0.56370  -0.46865
 Alpha virt. eigenvalues --   -0.30087  -0.28386  -0.21952  -0.15312  -0.14751
 Alpha virt. eigenvalues --   -0.12980  -0.11506  -0.11223  -0.08994  -0.07368
 Alpha virt. eigenvalues --   -0.07289  -0.06579  -0.06013  -0.05160  -0.03243

  Beta  occ. eigenvalues --  -10.51152 -10.49309 -10.48762 -10.48624 -10.47055
  Beta  occ. eigenvalues --   -1.23568  -1.03423  -0.89474  -0.84163  -0.77509
  Beta  occ. eigenvalues --   -0.72311  -0.68795  -0.66018  -0.64050  -0.57840
  Beta  occ. eigenvalues --   -0.53619
  Beta virt. eigenvalues --   -0.35697  -0.28069  -0.27116  -0.20953  -0.15181
  Beta virt. eigenvalues --   -0.14570  -0.12721  -0.11295  -0.10973  -0.08863
  Beta virt. eigenvalues --   -0.07199  -0.07112  -0.06312  -0.05826  -0.05082

 Mulliken charges and spin densities:
               1          2
     1  C    0.146773   0.242610
     2  H    0.239400  -0.001140
     3  C    0.001954   0.597026
     4  C    0.338902   0.052252
     5  H    0.252530  -0.002867
     6  C   -0.073654   0.101549
     7  H    0.245729   0.007385
     8  C   -0.372036  -0.007648
     9  H    0.220401   0.010833
 Sum of Mulliken charges =   1.00000   1.00000

 Dipole moment (field-independent basis, Debye):
    X=             -1.4137    Y=              1.0708    Z=              0.4291  Tot=              1.8246
 Quadrupole moment (field-independent basis, Debye-Ang):
   XX=            -19.8206   YY=            -24.9607   ZZ=            -22.3603
   XY=              2.1915   XZ=              1.4735   YZ=              0.3831

  Exact polarizability:  56.951  -2.866  44.157   0.393   0.986  35.965
 Approx polarizability:  98.225  -7.410  88.014   0.891   2.282  54.881

                      1                      2                      3
                      A                      A                      A
 Frequencies --    269.3317               398.0940               476.3415
 Red. masses --      6.2236                 2.2485                 4.8607
 Frc consts  --      0.2660                 0.2099                 0.6498
 IR Inten    --      2.7174                 2.1109                12.8935

                      4                      5                      6
                      A                      A                      A
 Frequencies --    633.8299               696.7310               826.0270
 Red. masses --      8.3631                 5.5739                 1.5607
 Frc consts  --      1.9795                 1.5942                 0.6274
 IR Inten    --     14.5182                12.4943                25.6385

                      7                      8                      9
                      A                      A                      A
 Frequencies --    941.4943               972.6129              1014.5405
 Red. masses --      1.3767                 1.3070                 1.6557
 Frc consts  --      0.7190                 0.7284                 1.0041
 IR Inten    --     45.4985                 1.1924                16.4302

                     10                     11                     12
                      A                      A                      A
 Frequencies --   1077.1966              1103.0439              1130.4451
 Red. masses --      2.3894                 1.7646                 1.3310
 Frc consts  --      1.6336                 1.2650                 1.0022
 IR Inten    --      1.7674                 1.4074                 8.2068

                     13                     14                     15
                      A                      A                      A
 Frequencies --   1168.4599              1197.3746              1283.5093
 Red. masses --      1.9099                 1.9444                 1.4598
 Frc consts  --      1.5363                 1.6424                 1.4169
 IR Inten    --     21.9853                 3.5726                 7.5424

                     16                     17                     18
                      A                      A                      A
 Frequencies --   1465.7167              1539.8595              3098.2252
 Red. masses --      1.1567                 7.2942                 1.0537
 Frc consts  --      1.4642                10.1904                 5.9591
 IR Inten    --      5.1196                26.6692                18.0141

                     19                     20                     21
                      A                      A                      A
 Frequencies --   3173.5564              3190.4744              3201.6607
 Red. masses --      1.0940                 1.1161                 1.0976
 Frc consts  --      6.4919                 6.6937                 6.6287
 IR Inten    --     33.1986                 5.0550                30.9086

 - Thermochemistry -
 -------------------
 Temperature   298.150 Kelvin.  Pressure   1.00000 Atm.
 Atom     1 has atomic number  6 and mass  12.00000

 Molecular mass:    64.03130 amu.
 Principal axes and moments of inertia in atomic units:
                           1         2         3
     Eigenvalues --   130.95371 261.02774 317.32037
           X            0.99862   0.05019   0.01561
           Y           -0.05043   0.99862   0.01484
           Z           -0.01484  -0.01560   0.99977
 This molecule is an asymmetric top.
 Rotational symmetry number  1.
 Rotational temperatures (Kelvin)      0.66141     0.33182     0.27295
 Rotational constants (GHZ):          13.78152     6.91398     5.68744
 Zero-point vibrational energy     172612.3 (Joules/Mol)
                                   41.25533 (Kcal/Mol)
 Warning -- explicit consideration of   3 degrees of freedom as
           vibrations may cause significant error
 Vibrational temperatures:    387.51   572.77   685.35   911.94  1002.44
          (Kelvin)           1188.47  1354.60  1399.37  1459.70  1549.84
                             1587.03  1626.46  1681.15  1722.75  1846.68
                             2108.84  2215.51  4457.65  4566.03  4590.38
                             4606.47

 Zero-point correction=                           0.065745 (Hartree/Particle)
 Thermal correction to Energy=                    0.070172
 Thermal correction to Enthalpy=                  0.071116
 Thermal correction to Gibbs Free Energy=         0.038576
 Sum of electronic and zero-point Energies=           -192.369696
 Sum of electronic and thermal Energies=              -192.365269
 Sum of electronic and thermal Enthalpies=            -192.364325
 Sum of electronic and thermal Free Energies=         -192.396865

                     E (Thermal)             CV                S
                      KCal/Mol        Cal/Mol-Kelvin    Cal/Mol-Kelvin
 Total                   44.033             15.660             68.485
 Electronic               0.000              0.000              1.377
 Translational            0.889              2.981             38.389
 Rotational               0.889              2.981             23.899
 Vibrational             42.256              9.699              4.820
 Vibration     1          0.674              1.730              1.600
 Vibration     2          0.764              1.474              0.970
 Vibration     3          0.833              1.303              0.720

 Optimization completed.
    -- Stationary point found.
 Normal termination of Gaussian 09 at Mon Jun 20 05:16:48 2016.
