 Gaussian 09, Revision E.01,
 Gaussian 09:  EM64L-G09RevE.01 30-Nov-2015

 ---------------------------------------------
 #p b3lyp/6-311++G(3df,2p) freq symmetry=Loose
 ---------------------------------------------

 ---------
 b3lyp opt
 ---------
 Symbolic Z-matrix:
 Charge =  2 Multiplicity = 3

                         Standard orientation:
 ---------------------------------------------------------------------
 Center     Atomic      Atomic             Coordinates (Angstroms)
 Number     Number       Type             X           Y           Z
 ---------------------------------------------------------------------
      1          6           0        1.717896   -0.749341    0.000256
      2          6           0        0.469741   -0.144065   -0.000242
      3          1           0        2.183408    1.576681    0.000062
      4          6           0       -0.839957   -0.029417   -0.000658
      5          6           0        1.797285    0.555182    0.000090
      6          6           0       -2.206180    0.081415    0.000240
      7          1           0       -2.607431    0.556885   -0.921229
      8          1           0       -2.602934   -0.975033    0.001623
      9          1           0       -2.605754    0.558817    0.921431
 ---------------------------------------------------------------------

 SCF Done:  E(UB3LYP) =  -191.911469385     A.U. after   16 cycles

 The electronic state is 3-A.
 Alpha  occ. eigenvalues --  -10.77643 -10.75942 -10.74988 -10.74787 -10.63338
 Alpha  occ. eigenvalues --   -1.43578  -1.29761  -1.18910  -1.05405  -0.96048
 Alpha  occ. eigenvalues --   -0.93525  -0.91712  -0.90967  -0.86927  -0.86613
 Alpha  occ. eigenvalues --   -0.76721  -0.73288
 Alpha virt. eigenvalues --   -0.57966  -0.49547  -0.44555  -0.33775  -0.32043
 Alpha virt. eigenvalues --   -0.30123  -0.28757  -0.26475  -0.26258  -0.25060
 Alpha virt. eigenvalues --   -0.23138  -0.23007  -0.22508  -0.21157  -0.20065

  Beta  occ. eigenvalues --  -10.76492 -10.74763 -10.74444 -10.74087 -10.63319
  Beta  occ. eigenvalues --   -1.42200  -1.26882  -1.17302  -1.04493  -0.93996
  Beta  occ. eigenvalues --   -0.90851  -0.89392  -0.88168  -0.84717  -0.84266
  Beta virt. eigenvalues --   -0.63112  -0.62689  -0.53621  -0.46106  -0.40109
  Beta virt. eigenvalues --   -0.33243  -0.31196  -0.29667  -0.27457  -0.26056
  Beta virt. eigenvalues --   -0.26001  -0.24071  -0.22408  -0.22238  -0.21922

 Mulliken charges and spin densities:
               1          2
     1  C    0.306295   0.910903
     2  C    0.122870   0.119551
     3  H    0.367553  -0.007663
     4  C    0.311151   0.569849
     5  C    0.111061   0.212216
     6  C   -0.053622   0.040465
     7  H    0.276366   0.063636
     8  H    0.281862   0.027457
     9  H    0.276464   0.063586
 Sum of Mulliken charges =   2.00000   2.00000

 Dipole moment (field-independent basis, Debye):
    X=             -0.8460    Y=              1.2407    Z=              0.0010  Tot=              1.5016
 Quadrupole moment (field-independent basis, Debye-Ang):
   XX=             14.3307   YY=            -17.4203   ZZ=            -23.1363
   XY=              3.4129   XZ=             -0.0014   YZ=              0.0002

  Exact polarizability:  94.289  -1.119  35.840  -0.000   0.000  28.074
 Approx polarizability: 167.102  -5.719  61.239   0.006  -0.002  41.387

                      1                      2                      3
                      A                      A                      A
 Frequencies --     76.3007               173.5458               202.8339
 Red. masses --      1.1740                 3.2361                 3.6316
 Frc consts  --      0.0040                 0.0574                 0.0880
 IR Inten    --     12.4940                 8.4901                 4.3384

                      4                      5                      6
                      A                      A                      A
 Frequencies --    418.3910               436.9216               588.4483
 Red. masses --      2.4598                 6.6559                 6.6615
 Frc consts  --      0.2537                 0.7486                 1.3591
 IR Inten    --     19.4677                 0.1241                63.8579

                      7                      8                      9
                      A                      A                      A
 Frequencies --    768.4292               812.9746               830.9550
 Red. masses --      5.0042                 1.9475                 1.3334
 Frc consts  --      1.7410                 0.7584                 0.5425
 IR Inten    --     23.1262                48.9051                37.8804

                     10                     11                     12
                      A                      A                      A
 Frequencies --    860.3623               961.3137              1173.5537
 Red. masses --      1.4681                 1.2911                 1.0304
 Frc consts  --      0.6403                 0.7030                 0.8361
 IR Inten    --     24.0789                 7.7645                43.9933

                     13                     14                     15
                      A                      A                      A
 Frequencies --   1198.8866              1268.2347              1315.7398
 Red. masses --      1.1664                 2.1870                 1.7305
 Frc consts  --      0.9878                 2.0725                 1.7651
 IR Inten    --     63.2190                24.6807               128.5638

                     16                     17                     18
                      A                      A                      A
 Frequencies --   1597.0796              1845.4344              2738.2877
 Red. masses --      7.0355                10.0329                 1.0648
 Frc consts  --     10.5731                20.1313                 4.7039
 IR Inten    --     48.6752               388.4577               512.3612

                     19                     20                     21
                      A                      A                      A
 Frequencies --   2843.1320              2891.0529              3149.7536
 Red. masses --      1.0518                 1.0977                 1.1293
 Frc consts  --      5.0091                 5.4056                 6.6013
 IR Inten    --    466.7870               156.6887               273.3445

 - Thermochemistry -
 -------------------
 Temperature   298.150 Kelvin.  Pressure   1.00000 Atm.
 Atom     1 has atomic number  6 and mass  12.00000

 Molecular mass:    64.03130 amu.
 Principal axes and moments of inertia in atomic units:
                           1         2         3
     Eigenvalues --    58.84257 608.16487 654.78730
           X            0.99982   0.01885  -0.00002
           Y           -0.01885   0.99982   0.00003
           Z            0.00002  -0.00003   1.00000
 This molecule is an asymmetric top.
 Rotational symmetry number  1.
 Rotational temperatures (Kelvin)      1.47196     0.14242     0.13228
 Rotational constants (GHZ):          30.67067     2.96752     2.75623
 Zero-point vibrational energy     156421.5 (Joules/Mol)
                                   37.38563 (Kcal/Mol)
 Warning -- explicit consideration of   6 degrees of freedom as
           vibrations may cause significant error
 Vibrational temperatures:    109.78   249.69   291.83   601.97   628.63
          (Kelvin)            846.64  1105.60  1169.69  1195.56  1237.87
                             1383.11  1688.48  1724.93  1824.70  1893.05
                             2297.84  2655.17  3939.78  4090.63  4159.58
                             4531.79

 Zero-point correction=                           0.059578 (Hartree/Particle)
 Thermal correction to Energy=                    0.065486
 Thermal correction to Enthalpy=                  0.066430
 Thermal correction to Gibbs Free Energy=         0.029859
 Sum of electronic and zero-point Energies=           -191.851892
 Sum of electronic and thermal Energies=              -191.845984
 Sum of electronic and thermal Enthalpies=            -191.845039
 Sum of electronic and thermal Free Energies=         -191.881611

                     E (Thermal)             CV                S
                      KCal/Mol        Cal/Mol-Kelvin    Cal/Mol-Kelvin
 Total                   41.093             19.236             76.971
 Electronic               0.000              0.000              2.183
 Translational            0.889              2.981             38.389
 Rotational               0.889              2.981             24.664
 Vibrational             39.315             13.274             11.734
 Vibration     1          0.599              1.965              3.984
 Vibration     2          0.627              1.875              2.397
 Vibration     3          0.639              1.836              2.107
 Vibration     4          0.781              1.430              0.897
 Vibration     5          0.797              1.390              0.836
 Vibration     6          0.946              1.056              0.470

 Normal termination of Gaussian 09 at Mon Jun 20 08:57:43 2016.
