 Gaussian 09, Revision E.01,
 Gaussian 09:  EM64L-G09RevE.01 30-Nov-2015

 ---------------------------------------------
 #p b3lyp/6-311++G(3df,2p) freq symmetry=Loose
 ---------------------------------------------

 ---------
 b3lyp opt
 ---------
 Symbolic Z-matrix:
 Charge =  1 Multiplicity = 2

                         Standard orientation:
 ---------------------------------------------------------------------
 Center     Atomic      Atomic             Coordinates (Angstroms)
 Number     Number       Type             X           Y           Z
 ---------------------------------------------------------------------
      1          6           0        0.359736    1.216324    0.000061
      2          6           0        0.925568   -0.066260   -0.000100
      3          6           0        1.947336   -0.961942    0.000105
      4          6           0       -1.792804   -0.447838   -0.000268
      5          1           0       -1.883093   -1.079860    0.887721
      6          1           0       -2.585927    0.296251   -0.014682
      7          1           0       -1.873239   -1.106447   -0.869056
      8          6           0       -0.485783    0.197245   -0.000571
      9          1           0        0.617935    2.264877    0.000653
 ---------------------------------------------------------------------

 SCF Done:  E(UB3LYP) =  -192.464537732     A.U. after   18 cycles

 The electronic state is 2-A.
 Alpha  occ. eigenvalues --  -10.51492 -10.50370 -10.49864 -10.48160 -10.40315
 Alpha  occ. eigenvalues --   -1.20903  -0.99786  -0.97780  -0.83157  -0.74771
 Alpha  occ. eigenvalues --   -0.69389  -0.69181  -0.63651  -0.61918  -0.59840
 Alpha  occ. eigenvalues --   -0.53793  -0.49877
 Alpha virt. eigenvalues --   -0.34716  -0.27525  -0.21564  -0.16666  -0.13479
 Alpha virt. eigenvalues --   -0.11958  -0.10945  -0.10800  -0.08819  -0.08461
 Alpha virt. eigenvalues --   -0.07998  -0.06153  -0.05733  -0.05298  -0.04334

  Beta  occ. eigenvalues --  -10.51332 -10.49607 -10.49393 -10.48020 -10.40324
  Beta  occ. eigenvalues --   -1.20343  -0.98572  -0.95864  -0.82784  -0.74389
  Beta  occ. eigenvalues --   -0.69125  -0.67644  -0.63378  -0.60557  -0.59596
  Beta  occ. eigenvalues --   -0.52189
  Beta virt. eigenvalues --   -0.38434  -0.33617  -0.26045  -0.17373  -0.16564
  Beta virt. eigenvalues --   -0.13374  -0.11898  -0.10722  -0.10651  -0.08767
  Beta virt. eigenvalues --   -0.08367  -0.07630  -0.05821  -0.05541  -0.05203

 Mulliken charges and spin densities:
               1          2
     1  C    0.164369   0.188724
     2  C    0.692271   0.152247
     3  C   -0.455006   0.512912
     4  C   -0.309906  -0.005106
     5  H    0.210760   0.007912
     6  H    0.199288  -0.000954
     7  H    0.209714   0.007633
     8  C   -0.044021   0.142316
     9  H    0.332530  -0.005684
 Sum of Mulliken charges =   1.00000   1.00000

 Dipole moment (field-independent basis, Debye):
    X=             -1.6101    Y=              2.0148    Z=              0.0046  Tot=              2.5792
 Quadrupole moment (field-independent basis, Debye-Ang):
   XX=            -19.2997   YY=            -20.0249   ZZ=            -26.4975
   XY=              4.7147   XZ=             -0.0089   YZ=             -0.0009

  Exact polarizability:  66.321  -4.542  50.961  -0.019  -0.010  34.058
 Approx polarizability: 101.143 -12.635  84.257  -0.033  -0.026  48.872

                      1                      2                      3
                      A                      A                      A
 Frequencies --     83.9811               145.5199               285.9303
 Red. masses --      1.0707                 5.8906                 3.7246
 Frc consts  --      0.0044                 0.0735                 0.1794
 IR Inten    --      2.9199                 3.6076                 0.0433

                      4                      5                      6
                      A                      A                      A
 Frequencies --    382.1331               428.1116               739.9072
 Red. masses --      2.9647                 3.9727                 5.0155
 Frc consts  --      0.2551                 0.4290                 1.6178
 IR Inten    --      1.6067                10.9760                 0.5436

                      7                      8                      9
                      A                      A                      A
 Frequencies --    817.4463               858.0346              1021.9666
 Red. masses --      1.3349                 2.5433                 1.6207
 Frc consts  --      0.5256                 1.1032                 0.9973
 IR Inten    --     26.3806                 5.4625                10.0705

                     10                     11                     12
                      A                      A                      A
 Frequencies --   1024.3983              1029.3339              1093.0713
 Red. masses --      2.7109                 1.7147                 2.1265
 Frc consts  --      1.6761                 1.0704                 1.4969
 IR Inten    --     49.8856                 1.6819                44.0751

                     13                     14                     15
                      A                      A                      A
 Frequencies --   1382.9942              1404.9237              1442.1018
 Red. masses --      1.3778                 3.9378                 1.0404
 Frc consts  --      1.5527                 4.5794                 1.2748
 IR Inten    --     50.9025                66.6315                18.4251

                     16                     17                     18
                      A                      A                      A
 Frequencies --   1454.7948              1802.2135              3024.0749
 Red. masses --      1.1000                 7.6272                 1.0355
 Frc consts  --      1.3716                14.5958                 5.5796
 IR Inten    --      6.3246               123.8069                42.1491

                     19                     20                     21
                      A                      A                      A
 Frequencies --   3079.0979              3138.1245              3248.2822
 Red. masses --      1.0979                 1.1030                 1.1207
 Frc consts  --      6.1328                 6.3997                 6.9671
 IR Inten    --     11.4465                 8.9970               100.1387

 - Thermochemistry -
 -------------------
 Temperature   298.150 Kelvin.  Pressure   1.00000 Atm.
 Atom     1 has atomic number  6 and mass  12.00000

 Molecular mass:    64.03130 amu.
 Principal axes and moments of inertia in atomic units:
                           1         2         3
     Eigenvalues --   145.36705 408.25731 542.51403
           X            0.99798   0.06356  -0.00005
           Y           -0.06356   0.99798  -0.00000
           Z            0.00005   0.00001   1.00000
 This molecule is an asymmetric top.
 Rotational symmetry number  1.
 Rotational temperatures (Kelvin)      0.59583     0.21215     0.15965
 Rotational constants (GHZ):          12.41506     4.42060     3.32663
 Zero-point vibrational energy     166798.0 (Joules/Mol)
                                   39.86567 (Kcal/Mol)
 Warning -- explicit consideration of   5 degrees of freedom as
           vibrations may cause significant error
 Vibrational temperatures:    120.83   209.37   411.39   549.80   615.96
          (Kelvin)           1064.56  1176.12  1234.52  1470.38  1473.88
                             1480.98  1572.68  1989.82  2021.37  2074.86
                             2093.12  2592.98  4350.96  4430.13  4515.06
                             4673.55

 Zero-point correction=                           0.063530 (Hartree/Particle)
 Thermal correction to Energy=                    0.069217
 Thermal correction to Enthalpy=                  0.070161
 Thermal correction to Gibbs Free Energy=         0.034206
 Sum of electronic and zero-point Energies=           -192.401008
 Sum of electronic and thermal Energies=              -192.395321
 Sum of electronic and thermal Enthalpies=            -192.394377
 Sum of electronic and thermal Free Energies=         -192.430332

                     E (Thermal)             CV                S
                      KCal/Mol        Cal/Mol-Kelvin    Cal/Mol-Kelvin
 Total                   43.434             18.142             75.673
 Electronic               0.000              0.000              1.377
 Translational            0.889              2.981             38.389
 Rotational               0.889              2.981             24.980
 Vibrational             41.657             12.180             10.927
 Vibration     1          0.601              1.960              3.796
 Vibration     2          0.617              1.908              2.730
 Vibration     3          0.684              1.700              1.498
 Vibration     4          0.752              1.508              1.031
 Vibration     5          0.790              1.409              0.865

 Normal termination of Gaussian 09 at Mon Jun 20 04:02:25 2016.
