 Gaussian 09, Revision E.01,
 Gaussian 09:  EM64L-G09RevE.01 30-Nov-2015

 ---------------------------------------------
 #p b3lyp/6-311++G(3df,2p) freq symmetry=Loose
 ---------------------------------------------

 ---------
 b3lyp opt
 ---------
 Symbolic Z-matrix:
 Charge =  0 Multiplicity = 3

                         Standard orientation:
 ---------------------------------------------------------------------
 Center     Atomic      Atomic             Coordinates (Angstroms)
 Number     Number       Type             X           Y           Z
 ---------------------------------------------------------------------
      1          6           0       -1.470855    0.950980    0.000008
      2          6           0       -0.477097   -0.136020    0.000052
      3          1           0       -2.578317   -1.144321    0.000040
      4          6           0        0.821715   -0.527071   -0.000026
      5          6           0       -1.806412   -0.390244   -0.000042
      6          6           0        2.123059    0.138846   -0.000071
      7          1           0        2.712795   -0.155780   -0.873241
      8          1           0        2.014636    1.228911   -0.005103
      9          1           0        2.708422   -0.147753    0.878780
 ---------------------------------------------------------------------

 SCF Done:  E(UB3LYP) =  -192.741542817     A.U. after   15 cycles

 The electronic state is 3-A.
 Alpha  occ. eigenvalues --  -10.23642 -10.23201 -10.22497 -10.20207 -10.20018
 Alpha  occ. eigenvalues --   -0.92855  -0.80952  -0.69477  -0.59020  -0.50627
 Alpha  occ. eigenvalues --   -0.47134  -0.45801  -0.43208  -0.40022  -0.36619
 Alpha  occ. eigenvalues --   -0.27526  -0.25367  -0.21950
 Alpha virt. eigenvalues --   -0.02867  -0.00942   0.00390   0.01613   0.02658
 Alpha virt. eigenvalues --    0.02901   0.04401   0.05553   0.07000   0.07207
 Alpha virt. eigenvalues --    0.08481   0.08611   0.09874   0.09957   0.11237

  Beta  occ. eigenvalues --  -10.23216 -10.22139 -10.21375 -10.20007 -10.19808
  Beta  occ. eigenvalues --   -0.91651  -0.78101  -0.67236  -0.58067  -0.48787
  Beta  occ. eigenvalues --   -0.45280  -0.43949  -0.42100  -0.37976  -0.34630
  Beta  occ. eigenvalues --   -0.24303
  Beta virt. eigenvalues --   -0.13749  -0.09764  -0.01379  -0.00730   0.00504
  Beta virt. eigenvalues --    0.02680   0.03042   0.03870   0.04657   0.05662
  Beta virt. eigenvalues --    0.07289   0.08336   0.08586   0.09523   0.10040

 Mulliken charges and spin densities:
               1          2
     1  C   -0.585219   0.240072
     2  C    0.543427  -0.112067
     3  H    0.249966   0.014043
     4  C   -0.472924   1.524630
     5  C    0.195188   0.258461
     6  C   -0.420939  -0.058754
     7  H    0.168726   0.038410
     8  H    0.152775   0.056489
     9  H    0.169000   0.038715
 Sum of Mulliken charges =  -0.00000   2.00000

 Dipole moment (field-independent basis, Debye):
    X=              1.7264    Y=             -2.2593    Z=              0.0006  Tot=              2.8434
 Quadrupole moment (field-independent basis, Debye-Ang):
   XX=            -25.3599   YY=            -34.7517   ZZ=            -29.8622
   XY=              6.5629   XZ=              0.0013   YZ=              0.0003

  Exact polarizability:  94.392  -7.434  57.336   0.004  -0.001  40.080
 Approx polarizability: 137.439 -17.039  87.225   0.007  -0.001  59.544

                      1                      2                      3
                      A                      A                      A
 Frequencies --     44.2828               165.8173               199.0689
 Red. masses --      1.1207                 3.6511                 3.0967
 Frc consts  --      0.0013                 0.0591                 0.0723
 IR Inten    --      0.3496                13.1716                 9.1829

                      4                      5                      6
                      A                      A                      A
 Frequencies --    458.8083               473.2403               700.4310
 Red. masses --      5.1621                 3.7884                 4.6368
 Frc consts  --      0.6402                 0.4999                 1.3403
 IR Inten    --      1.4724                 0.8941                 7.1850

                      7                      8                      9
                      A                      A                      A
 Frequencies --    827.5602               924.2436               953.5728
 Red. masses --      1.4387                 2.9737                 1.4598
 Frc consts  --      0.5805                 1.4967                 0.7821
 IR Inten    --     11.6909                 0.7714                 4.2616

                     10                     11                     12
                      A                      A                      A
 Frequencies --    980.6617              1060.7237              1216.1177
 Red. masses --      1.3729                 1.9066                 6.3183
 Frc consts  --      0.7779                 1.2639                 5.5056
 IR Inten    --      1.3439                12.4501                 3.5129

                     13                     14                     15
                      A                      A                      A
 Frequencies --   1353.5841              1387.1689              1446.1342
 Red. masses --      5.7403                 1.2583                 1.0439
 Frc consts  --      6.1966                 1.4266                 1.2863
 IR Inten    --     20.2303                 3.7297                 6.9149

                     16                     17                     18
                      A                      A                      A
 Frequencies --   1457.9607              1669.2369              2981.0557
 Red. masses --      1.0615                 8.7490                 1.0341
 Frc consts  --      1.3294                14.3629                 5.4146
 IR Inten    --     14.2100                51.4798                 8.8205

                     19                     20                     21
                      A                      A                      A
 Frequencies --   3041.3172              3043.8181              3214.6703
 Red. masses --      1.0970                 1.0985                 1.1085
 Frc consts  --      5.9782                 5.9965                 6.7493
 IR Inten    --      3.9255                 4.1385                 0.7492

 - Thermochemistry -
 -------------------
 Temperature   298.150 Kelvin.  Pressure   1.00000 Atm.
 Atom     1 has atomic number  6 and mass  12.00000

 Molecular mass:    64.03130 amu.
 Principal axes and moments of inertia in atomic units:
                           1         2         3
     Eigenvalues --    74.09579 560.57655 623.62461
           X            0.99944   0.03343   0.00001
           Y           -0.03343   0.99944  -0.00001
           Z           -0.00001   0.00001   1.00000
 This molecule is an asymmetric top.
 Rotational symmetry number  1.
 Rotational temperatures (Kelvin)      1.16894     0.15451     0.13889
 Rotational constants (GHZ):          24.35687     3.21944     2.89395
 Zero-point vibrational energy     165081.5 (Joules/Mol)
                                   39.45543 (Kcal/Mol)
 Warning -- explicit consideration of   5 degrees of freedom as
           vibrations may cause significant error
 Vibrational temperatures:     63.71   238.57   286.42   660.12   680.89
          (Kelvin)           1007.76  1190.67  1329.78  1371.98  1410.95
                             1526.14  1749.72  1947.50  1995.82  2080.66
                             2097.68  2401.66  4289.07  4375.77  4379.37
                             4625.19

 Zero-point correction=                           0.062876 (Hartree/Particle)
 Thermal correction to Energy=                    0.068628
 Thermal correction to Enthalpy=                  0.069572
 Thermal correction to Gibbs Free Energy=         0.032732
 Sum of electronic and zero-point Energies=           -192.678667
 Sum of electronic and thermal Energies=              -192.672915
 Sum of electronic and thermal Enthalpies=            -192.671971
 Sum of electronic and thermal Free Energies=         -192.708811

                     E (Thermal)             CV                S
                      KCal/Mol        Cal/Mol-Kelvin    Cal/Mol-Kelvin
 Total                   43.064             18.013             77.535
 Electronic               0.000              0.000              2.183
 Translational            0.889              2.981             38.389
 Rotational               0.889              2.981             24.764
 Vibrational             41.287             12.051             12.199
 Vibration     1          0.595              1.980              5.058
 Vibration     2          0.624              1.884              2.482
 Vibration     3          0.637              1.841              2.142
 Vibration     4          0.817              1.341              0.770
 Vibration     5          0.830              1.309              0.729

 Normal termination of Gaussian 09 at Wed Jun 22 04:15:23 2016.
