 Gaussian 09, Revision E.01,
 Gaussian 09:  EM64L-G09RevE.01 30-Nov-2015

 ---------------------------------------------
 #p b3lyp/6-311++G(3df,2p) freq symmetry=Loose
 ---------------------------------------------

 ---------
 b3lyp opt
 ---------
 Symbolic Z-matrix:
 Charge =  2 Multiplicity = 3

                         Standard orientation:
 ---------------------------------------------------------------------
 Center     Atomic      Atomic             Coordinates (Angstroms)
 Number     Number       Type             X           Y           Z
 ---------------------------------------------------------------------
      1          6           0       -0.010098   -0.453539    1.117248
      2          6           0       -0.010098   -0.453539   -1.117248
      3          6           0        0.304234   -1.338008    0.000000
      4          1           0       -0.952894   -0.717418    1.652716
      5          1           0        0.752574   -0.286818   -1.901148
      6          1           0       -0.952894   -0.717418   -1.652716
      7          1           0        0.752574   -0.286818    1.901148
      8          6           0       -0.217280    0.611632   -0.000000
      9          6           0       -0.000000    1.968199   -0.000000
 ---------------------------------------------------------------------

 SCF Done:  E(UB3LYP) =  -191.781695885     A.U. after   19 cycles

 The electronic state is 3-A'.
 Alpha  occ. eigenvalues --  -10.80131 -10.80092 -10.75346 -10.70053 -10.70050
 Alpha  occ. eigenvalues --   -1.41243  -1.26350  -1.18874  -1.04120  -1.01754
 Alpha  occ. eigenvalues --   -0.95887  -0.92068  -0.87992  -0.86825  -0.83062
 Alpha  occ. eigenvalues --   -0.80088  -0.75289
 Alpha virt. eigenvalues --   -0.60878  -0.60610  -0.51726  -0.36319  -0.34641
 Alpha virt. eigenvalues --   -0.29835  -0.29117  -0.28601  -0.26781  -0.26456
 Alpha virt. eigenvalues --   -0.25587  -0.25405  -0.22408  -0.21485  -0.18727

  Beta  occ. eigenvalues --  -10.79068 -10.78392 -10.74475 -10.69953 -10.69950
  Beta  occ. eigenvalues --   -1.39335  -1.22639  -1.18334  -1.01673  -0.99362
  Beta  occ. eigenvalues --   -0.94441  -0.90767  -0.87647  -0.86180  -0.77881
  Beta virt. eigenvalues --   -0.66645  -0.59756  -0.59306  -0.58420  -0.45979
  Beta virt. eigenvalues --   -0.34985  -0.34345  -0.29422  -0.28732  -0.28167
  Beta virt. eigenvalues --   -0.26662  -0.26245  -0.24857  -0.24678  -0.21521

 Mulliken charges and spin densities:
               1          2
     1  C   -0.397810   0.009006
     2  C   -0.397810   0.009006
     3  C    0.635983   0.882784
     4  H    0.309815   0.011003
     5  H    0.289645   0.007987
     6  H    0.309815   0.011003
     7  H    0.289645   0.007987
     8  C    0.826504   0.539730
     9  C    0.134213   0.521495
 Sum of Mulliken charges =   2.00000   2.00000

 Dipole moment (field-independent basis, Debye):
    X=             -0.6678    Y=             -0.7364    Z=              0.0000  Tot=              0.9941
 Quadrupole moment (field-independent basis, Debye-Ang):
   XX=            -21.0074   YY=            -12.9385   ZZ=             -9.2552
   XY=             -0.7774   XZ=              0.0000   YZ=              0.0000

  Exact polarizability:  31.258  -0.748  67.016   0.000  -0.000  47.315
 Approx polarizability:  49.649   1.930 111.646   0.000  -0.000  76.203

                      1                      2                      3
                     A"                     A'                     A'
 Frequencies --    111.4974               116.0538               313.6369
 Red. masses --      6.1313                 3.0830                 2.0943
 Frc consts  --      0.0449                 0.0245                 0.1214
 IR Inten    --      2.5634                13.1060                25.6573

                      4                      5                      6
                     A"                     A'                     A"
 Frequencies --    455.4004               626.5233               638.8224
 Red. masses --      1.3267                 5.2956                 8.4910
 Frc consts  --      0.1621                 1.2247                 2.0416
 IR Inten    --      0.3549                 5.6517                 0.0179

                      7                      8                      9
                     A'                     A'                     A"
 Frequencies --    751.8348               832.5717               892.0153
 Red. masses --      3.0651                 2.8568                 1.0303
 Frc consts  --      1.0208                 1.1667                 0.4830
 IR Inten    --      2.0948                 5.5849                 0.5004

                     10                     11                     12
                     A'                     A'                     A"
 Frequencies --    965.9037              1008.1354              1034.3767
 Red. masses --      1.7459                 2.0307                 2.2615
 Frc consts  --      0.9597                 1.2160                 1.4256
 IR Inten    --      8.7117                 3.6512               111.2502

                     13                     14                     15
                     A'                     A"                     A'
 Frequencies --   1134.6640              1180.0830              1231.9256
 Red. masses --      2.4242                 1.7009                 2.0849
 Frc consts  --      1.8389                 1.3956                 1.8642
 IR Inten    --      5.9788               122.5715                25.2714

                     16                     17                     18
                     A"                     A'                     A"
 Frequencies --   1244.8008              1266.6955              2830.1119
 Red. masses --      1.1996                 1.2186                 1.0648
 Frc consts  --      1.0952                 1.1520                 5.0251
 IR Inten    --    131.7717                 6.7003               440.8747

                     19                     20                     21
                     A'                     A"                     A'
 Frequencies --   2859.7502              2931.3772              2947.5848
 Red. masses --      1.0794                 1.0797                 1.0865
 Frc consts  --      5.2009                 5.4661                 5.5616
 IR Inten    --    235.4842               243.8208               109.1851

 - Thermochemistry -
 -------------------
 Temperature   298.150 Kelvin.  Pressure   1.00000 Atm.
 Atom     1 has atomic number  6 and mass  12.00000

 Molecular mass:    64.03130 amu.
 Principal axes and moments of inertia in atomic units:
                           1         2         3
     Eigenvalues --   167.83867 297.05901 434.53808
           X           -0.07302   0.00000   0.99733
           Y            0.99733   0.00000   0.07302
           Z           -0.00000   1.00000  -0.00000
 This molecule is an asymmetric top.
 Rotational symmetry number  1.
 Rotational temperatures (Kelvin)      0.51605     0.29157     0.19932
 Rotational constants (GHZ):          10.75283     6.07536     4.15324
 Zero-point vibrational energy     151768.8 (Joules/Mol)
                                   36.27362 (Kcal/Mol)
 Warning -- explicit consideration of   4 degrees of freedom as
           vibrations may cause significant error
 Vibrational temperatures:    160.42   166.98   451.25   655.22   901.43
          (Kelvin)            919.12  1081.72  1197.88  1283.41  1389.72
                             1450.48  1488.24  1632.53  1697.87  1772.46
                             1790.99  1822.49  4071.89  4114.54  4217.59
                             4240.91

 Zero-point correction=                           0.057806 (Hartree/Particle)
 Thermal correction to Energy=                    0.063414
 Thermal correction to Enthalpy=                  0.064358
 Thermal correction to Gibbs Free Energy=         0.028467
 Sum of electronic and zero-point Energies=           -191.723890
 Sum of electronic and thermal Energies=              -191.718282
 Sum of electronic and thermal Enthalpies=            -191.717338
 Sum of electronic and thermal Free Energies=         -191.753229

                     E (Thermal)             CV                S
                      KCal/Mol        Cal/Mol-Kelvin    Cal/Mol-Kelvin
 Total                   39.793             18.728             75.540
 Electronic               0.000              0.000              2.183
 Translational            0.889              2.981             38.389
 Rotational               0.889              2.981             24.586
 Vibrational             38.015             12.767             10.381
 Vibration     1          0.607              1.940              3.243
 Vibration     2          0.608              1.936              3.165
 Vibration     3          0.701              1.648              1.343
 Vibration     4          0.814              1.349              0.780

 Optimization completed.
    -- Stationary point found.
 Normal termination of Gaussian 09 at Wed Jul 20 06:32:00 2016.
