 Gaussian 09, Revision E.01,
 Gaussian 09:  EM64L-G09RevE.01 30-Nov-2015

 ---------------------------------------------
 #p b3lyp/6-311++G(3df,2p) freq symmetry=Loose
 ---------------------------------------------

 ---------
 b3lyp opt
 ---------
 Symbolic Z-matrix:
 Charge =  2 Multiplicity = 1

                         Standard orientation:
 ---------------------------------------------------------------------
 Center     Atomic      Atomic             Coordinates (Angstroms)
 Number     Number       Type             X           Y           Z
 ---------------------------------------------------------------------
      1          6           0       -2.467062    0.031861   -0.000057
      2          1           0       -2.959823    1.009028    0.000031
      3          1           0       -2.837088   -0.663736    0.817487
      4          1           0       -2.837304   -0.663954   -0.817132
      5          6           0       -1.100157    0.022109    0.000186
      6          6           0        0.175436    0.009537   -0.000242
      7          6           0        1.471240   -0.001367    0.000040
      8          6           0        2.724302   -0.007007    0.000082
      9          1           0        3.811661   -0.012134   -0.000443
 ---------------------------------------------------------------------

 SCF Done:  E(RB3LYP) =  -191.959994262     A.U. after   16 cycles

 The electronic state is 1-A.
 Alpha  occ. eigenvalues --  -10.73960 -10.72937 -10.71424 -10.69117 -10.63049
 Alpha  occ. eigenvalues --   -1.30307  -1.25459  -1.19059  -1.10804  -0.97658
 Alpha  occ. eigenvalues --   -0.93115  -0.88497  -0.86160  -0.81786  -0.80263
 Alpha  occ. eigenvalues --   -0.71580
 Alpha virt. eigenvalues --   -0.66090  -0.50258  -0.49655  -0.32273  -0.32068
 Alpha virt. eigenvalues --   -0.31470  -0.28731  -0.27984  -0.24949  -0.24266
 Alpha virt. eigenvalues --   -0.23719  -0.23363  -0.21558  -0.21327  -0.19958

 Mulliken charges:
               1
     1  C   -0.284664
     2  H    0.270470
     3  H    0.297193
     4  H    0.297288
     5  C    0.716213
     6  C   -0.538084
     7  C    0.273059
     8  C    0.530077
     9  H    0.438447
 Sum of Mulliken charges =   2.00000

 Dipole moment (field-independent basis, Debye):
    X=              0.4497    Y=             -0.5593    Z=              0.0006  Tot=              0.7177
 Quadrupole moment (field-independent basis, Debye-Ang):
   XX=             40.2876   YY=            -24.1884   ZZ=            -22.3348
   XY=              1.5565   XZ=             -0.0034   YZ=             -0.0014

  Exact polarizability: 135.724   2.321  28.968  -0.000  -0.000  28.125
 Approx polarizability: 335.564   7.543  40.606   0.007  -0.001  41.413

                      1                      2                      3
                      A                      A                      A
 Frequencies --    131.5051               146.9986               252.3925
 Red. masses --      2.8988                 3.6605                 1.6717
 Frc consts  --      0.0295                 0.0466                 0.0627
 IR Inten    --     24.6734                21.0187                22.2379

                      4                      5                      6
                      A                      A                      A
 Frequencies --    322.6153               410.4795               525.6839
 Red. masses --      3.6033                 3.2724                 9.6730
 Frc consts  --      0.2210                 0.3249                 1.5749
 IR Inten    --      0.7632                63.2565                 0.7042

                      7                      8                      9
                      A                      A                      A
 Frequencies --    619.5786               684.1252               708.9648
 Red. masses --      1.2263                 5.1671                 4.5376
 Frc consts  --      0.2774                 1.4248                 1.3438
 IR Inten    --     52.2005                30.5429                29.9832

                     10                     11                     12
                      A                      A                      A
 Frequencies --    876.5042               919.8403              1024.6599
 Red. masses --      1.3591                 1.4373                 1.1711
 Frc consts  --      0.6152                 0.7165                 0.7245
 IR Inten    --    330.4376                 4.9160               330.1508

                     13                     14                     15
                      A                      A                      A
 Frequencies --   1058.3157              1294.4086              1400.8969
 Red. masses --      1.0834                 2.2605                 1.7406
 Frc consts  --      0.7149                 2.2315                 2.0127
 IR Inten    --     32.1708                 3.8436                 3.9509

                     16                     17                     18
                      A                      A                      A
 Frequencies --   1881.6082              2203.5927              2596.3431
 Red. masses --      7.9367                 9.2599                 1.0563
 Frc consts  --     16.5556                26.4924                 4.1954
 IR Inten    --    893.1753                29.8448               223.3510

                     19                     20                     21
                      A                      A                      A
 Frequencies --   2707.1792              3065.5825              3220.0728
 Red. masses --      1.0613                 1.0916                 1.1519
 Frc consts  --      4.5826                 6.0445                 7.0372
 IR Inten    --   1167.1656               114.5727               345.9447

 - Thermochemistry -
 -------------------
 Temperature   298.150 Kelvin.  Pressure   1.00000 Atm.
 Atom     1 has atomic number  6 and mass  12.00000

 Molecular mass:    64.03130 amu.
 Principal axes and moments of inertia in atomic units:
                           1         2         3
     Eigenvalues --    11.70125 870.10703 872.19180
           X            1.00000   0.00313   0.00000
           Y           -0.00313   1.00000   0.00005
           Z           -0.00000  -0.00005   1.00000
 This molecule is an asymmetric top.
 Rotational symmetry number  1.
 Rotational temperatures (Kelvin)      7.40210     0.09954     0.09931
 Rotational constants (GHZ):         154.23485     2.07416     2.06920
 Zero-point vibrational energy     155821.7 (Joules/Mol)
                                   37.24227 (Kcal/Mol)
 Warning -- explicit consideration of   7 degrees of freedom as
           vibrations may cause significant error
 Vibrational temperatures:    189.21   211.50   363.14   464.17   590.59
          (Kelvin)            756.34   891.43   984.30  1020.04  1261.09
                             1323.44  1474.26  1522.68  1862.36  2015.58
                             2707.21  3170.47  3735.55  3895.02  4410.68
                             4632.96

 Zero-point correction=                           0.059349 (Hartree/Particle)
 Thermal correction to Energy=                    0.065457
 Thermal correction to Enthalpy=                  0.066401
 Thermal correction to Gibbs Free Energy=         0.031344
 Sum of electronic and zero-point Energies=           -191.900645
 Sum of electronic and thermal Energies=              -191.894537
 Sum of electronic and thermal Enthalpies=            -191.893593
 Sum of electronic and thermal Free Energies=         -191.928650

                     E (Thermal)             CV                S
                      KCal/Mol        Cal/Mol-Kelvin    Cal/Mol-Kelvin
 Total                   41.075             20.439             73.784
 Electronic               0.000              0.000              0.000
 Translational            0.889              2.981             38.389
 Rotational               0.889              2.981             23.700
 Vibrational             39.298             14.477             11.695
 Vibration     1          0.612              1.922              2.924
 Vibration     2          0.617              1.906              2.711
 Vibration     3          0.664              1.759              1.714
 Vibration     4          0.708              1.630              1.297
 Vibration     5          0.775              1.447              0.925
 Vibration     6          0.881              1.193              0.597
 Vibration     7          0.980              0.991              0.417

 Optimization completed.
    -- Stationary point found.
 Normal termination of Gaussian 09 at Mon Jun 20 07:50:44 2016.
