 Gaussian 09, Revision E.01,
 Gaussian 09:  EM64L-G09RevE.01 30-Nov-2015

 ---------------------------------------------
 #p b3lyp/6-311++G(3df,2p) freq symmetry=Loose
 ---------------------------------------------

 ---------
 b3lyp opt
 ---------
 Symbolic Z-matrix:
 Charge =  1 Multiplicity = 2

                         Standard orientation:
 ---------------------------------------------------------------------
 Center     Atomic      Atomic             Coordinates (Angstroms)
 Number     Number       Type             X           Y           Z
 ---------------------------------------------------------------------
      1          6           0        2.130055   -0.000424    0.186414
      2          6           0        0.770315    0.001428    0.087647
      3          6           0       -1.452341   -0.000981    0.316368
      4          1           0       -2.400607   -0.001871   -0.209590
      5          1           0       -1.541684   -0.001425    1.400072
      6          6           0       -0.335825   -0.835978   -0.229960
      7          1           0       -0.350482   -1.609259   -0.989014
      8          6           0       -0.337727    0.836471   -0.229282
      9          1           0       -0.354087    1.609467   -0.988595
 ---------------------------------------------------------------------

 SCF Done:  E(UB3LYP) =  -192.436742666     A.U. after   22 cycles

 The electronic state is 2-A.
 Alpha  occ. eigenvalues --  -10.50821 -10.50612 -10.50603 -10.46908 -10.44230
 Alpha  occ. eigenvalues --   -1.21200  -1.01261  -0.89664  -0.88730  -0.79853
 Alpha  occ. eigenvalues --   -0.71213  -0.67704  -0.65929  -0.61199  -0.59730
 Alpha  occ. eigenvalues --   -0.53915  -0.48593
 Alpha virt. eigenvalues --   -0.35985  -0.26015  -0.23651  -0.15051  -0.14133
 Alpha virt. eigenvalues --   -0.13738  -0.12843  -0.09415  -0.08331  -0.07400
 Alpha virt. eigenvalues --   -0.07367  -0.06684  -0.05861  -0.05252  -0.04258

  Beta  occ. eigenvalues --  -10.50255 -10.50248 -10.49931 -10.46962 -10.44270
  Beta  occ. eigenvalues --   -1.20613  -0.99627  -0.88593  -0.87889  -0.79386
  Beta  occ. eigenvalues --   -0.70433  -0.66985  -0.65758  -0.60559  -0.57260
  Beta  occ. eigenvalues --   -0.52475
  Beta virt. eigenvalues --   -0.38398  -0.34777  -0.24204  -0.20587  -0.14501
  Beta virt. eigenvalues --   -0.13971  -0.13545  -0.12705  -0.09255  -0.08247
  Beta virt. eigenvalues --   -0.07315  -0.07300  -0.06335  -0.05687  -0.04990

 Mulliken charges and spin densities:
               1          2
     1  C   -0.312741   0.481395
     2  C    0.737448   0.005431
     3  C   -0.557819  -0.044163
     4  H    0.190374   0.004065
     5  H    0.262965   0.049648
     6  C    0.069683   0.256946
     7  H    0.269415  -0.005150
     8  C    0.071359   0.256970
     9  H    0.269316  -0.005143
 Sum of Mulliken charges =   1.00000   1.00000

 Dipole moment (field-independent basis, Debye):
    X=             -2.3643    Y=              0.0021    Z=             -1.1177  Tot=              2.6152
 Quadrupole moment (field-independent basis, Debye-Ang):
   XX=            -22.8468   YY=            -21.3633   ZZ=            -24.5966
   XY=              0.0074   XZ=             -0.4168   YZ=              0.0014

  Exact polarizability:  68.178  -0.002  43.352   0.696   0.004  36.062
 Approx polarizability: 109.641   0.004  75.992   2.940   0.015  51.796

                      1                      2                      3
                      A                      A                      A
 Frequencies --    182.7122               230.1402               496.4133
 Red. masses --      6.2716                 4.1736                 3.7101
 Frc consts  --      0.1234                 0.1302                 0.5387
 IR Inten    --      5.5196                 2.8755                 8.9459

                      4                      5                      6
                      A                      A                      A
 Frequencies --    650.8575               716.9835               840.0752
 Red. masses --      3.5677                 3.0020                 1.3256
 Frc consts  --      0.8905                 0.9092                 0.5512
 IR Inten    --      3.1118                 1.0577                20.8100

                      7                      8                      9
                      A                      A                      A
 Frequencies --    893.9897               977.1208              1018.2782
 Red. masses --      1.6683                 2.4713                 1.8027
 Frc consts  --      0.7856                 1.3902                 1.1013
 IR Inten    --     30.4237                 0.4535                 0.7053

                     10                     11                     12
                      A                      A                      A
 Frequencies --   1023.3041              1105.4147              1131.4627
 Red. masses --      1.5518                 1.3851                 1.2166
 Frc consts  --      0.9574                 0.9972                 0.9177
 IR Inten    --      1.3426                 1.2493                 4.3388

                     13                     14                     15
                      A                      A                      A
 Frequencies --   1136.6736              1217.7974              1294.5004
 Red. masses --      2.2930                 1.5411                 2.2698
 Frc consts  --      1.7455                 1.3465                 2.2410
 IR Inten    --     17.9483                18.1696                16.0625

                     16                     17                     18
                      A                      A                      A
 Frequencies --   1482.6225              1527.9664              3081.1378
 Red. masses --      1.3582                 3.8810                 1.0583
 Frc consts  --      1.7591                 5.3386                 5.9196
 IR Inten    --     64.6451               117.8639                24.3364

                     19                     20                     21
                      A                      A                      A
 Frequencies --   3180.1933              3186.6206              3193.1083
 Red. masses --      1.1119                 1.0929                 1.0997
 Frc consts  --      6.6254                 6.5384                 6.6065
 IR Inten    --      1.2630                50.9960                36.0493

 - Thermochemistry -
 -------------------
 Temperature   298.150 Kelvin.  Pressure   1.00000 Atm.
 Atom     1 has atomic number  6 and mass  12.00000

 Molecular mass:    64.03130 amu.
 Principal axes and moments of inertia in atomic units:
                           1         2         3
     Eigenvalues --   103.38617 373.81239 427.57574
           X            0.99995   0.00001  -0.00986
           Y           -0.00001   1.00000  -0.00007
           Z            0.00986   0.00007   0.99995
 This molecule is an asymmetric top.
 Rotational symmetry number  1.
 Rotational temperatures (Kelvin)      0.83777     0.23170     0.20257
 Rotational constants (GHZ):          17.45631     4.82793     4.22087
 Zero-point vibrational energy     170870.8 (Joules/Mol)
                                   40.83911 (Kcal/Mol)
 Warning -- explicit consideration of   3 degrees of freedom as
           vibrations may cause significant error
 Vibrational temperatures:    262.88   331.12   714.23   936.44  1031.58
          (Kelvin)           1208.68  1286.25  1405.86  1465.07  1472.30
                             1590.44  1627.92  1635.42  1752.14  1862.50
                             2133.16  2198.40  4433.06  4575.58  4584.83
                             4594.16

 Zero-point correction=                           0.065081 (Hartree/Particle)
 Thermal correction to Energy=                    0.069820
 Thermal correction to Enthalpy=                  0.070764
 Thermal correction to Gibbs Free Energy=         0.037296
 Sum of electronic and zero-point Energies=           -192.371661
 Sum of electronic and thermal Energies=              -192.366923
 Sum of electronic and thermal Enthalpies=            -192.365979
 Sum of electronic and thermal Free Energies=         -192.399447

                     E (Thermal)             CV                S
                      KCal/Mol        Cal/Mol-Kelvin    Cal/Mol-Kelvin
 Total                   43.813             16.081             70.439
 Electronic               0.000              0.000              1.377
 Translational            0.889              2.981             38.389
 Rotational               0.889              2.981             24.317
 Vibrational             42.035             10.119              6.356
 Vibration     1          0.630              1.863              2.301
 Vibration     2          0.652              1.795              1.878
 Vibration     3          0.852              1.258              0.667

 Normal termination of Gaussian 09 at Mon Jun 20 04:20:35 2016.
