 Gaussian 09, Revision E.01,
 Gaussian 09:  EM64L-G09RevE.01 30-Nov-2015

 ---------------------------------------------
 #p b3lyp/6-311++G(3df,2p) freq symmetry=Loose
 ---------------------------------------------

 ---------
 b3lyp opt
 ---------
 Symbolic Z-matrix:
 Charge =  1 Multiplicity = 2

                         Standard orientation:
 ---------------------------------------------------------------------
 Center     Atomic      Atomic             Coordinates (Angstroms)
 Number     Number       Type             X           Y           Z
 ---------------------------------------------------------------------
      1          6           0       -0.544547   -1.219168    0.159973
      2          6           0       -0.544547    1.219182    0.159863
      3          6           0       -0.905811   -0.000022   -0.492588
      4          1           0       -0.751057   -1.378282    1.216470
      5          1           0       -0.372389    2.094162   -0.455730
      6          1           0       -0.751057    1.378392    1.216346
      7          1           0       -0.372389   -2.094203   -0.455541
      8          6           0        0.530037   -0.000004   -0.095192
      9          6           0        1.839350    0.000001    0.014354
 ---------------------------------------------------------------------

 SCF Done:  E(UB3LYP) =  -192.392496315     A.U. after   16 cycles

 The electronic state is 2-A.
 Alpha  occ. eigenvalues --  -10.52112 -10.50248 -10.48952 -10.48950 -10.47540
 Alpha  occ. eigenvalues --   -1.21496  -0.99442  -0.98721  -0.83690  -0.75815
 Alpha  occ. eigenvalues --   -0.72502  -0.71791  -0.66732  -0.61771  -0.56656
 Alpha  occ. eigenvalues --   -0.53909  -0.50784
 Alpha virt. eigenvalues --   -0.35116  -0.31262  -0.17481  -0.16540  -0.13514
 Alpha virt. eigenvalues --   -0.13292  -0.12525  -0.11554  -0.10728  -0.09735
 Alpha virt. eigenvalues --   -0.07536  -0.06119  -0.05917  -0.05146  -0.03323

  Beta  occ. eigenvalues --  -10.50668 -10.49931 -10.48912 -10.48910 -10.47649
  Beta  occ. eigenvalues --   -1.20496  -0.98387  -0.98376  -0.83101  -0.74155
  Beta  occ. eigenvalues --   -0.71895  -0.69975  -0.66360  -0.61542  -0.54870
  Beta  occ. eigenvalues --   -0.53216
  Beta virt. eigenvalues --   -0.37629  -0.34803  -0.29203  -0.16547  -0.16181
  Beta virt. eigenvalues --   -0.13197  -0.13143  -0.12339  -0.11498  -0.10342
  Beta virt. eigenvalues --   -0.09648  -0.07370  -0.05759  -0.05696  -0.05063

 Mulliken charges and spin densities:
               1          2
     1  C   -0.419987  -0.005621
     2  C   -0.419987  -0.005621
     3  C    0.534067   0.773553
     4  H    0.244886   0.022080
     5  H    0.232785   0.011862
     6  H    0.244886   0.022080
     7  H    0.232785   0.011862
     8  C    0.554721   0.012328
     9  C   -0.204156   0.157478
 Sum of Mulliken charges =   1.00000   1.00000

 Dipole moment (field-independent basis, Debye):
    X=             -2.3459    Y=              0.0000    Z=              0.7045  Tot=              2.4494
 Quadrupole moment (field-independent basis, Debye-Ang):
   XX=            -27.3713   YY=            -16.0282   ZZ=            -25.2312
   XY=             -0.0001   XZ=             -1.3689   YZ=             -0.0004

  Exact polarizability:  59.853   0.000  49.446   0.440  -0.001  36.945
 Approx polarizability: 126.927   0.000  75.343   4.383  -0.001  56.019

                      1                      2                      3
                      A                      A                      A
 Frequencies --     95.0554               121.6409               318.3439
 Red. masses --      6.3275                 6.5849                 2.8144
 Frc consts  --      0.0337                 0.0574                 0.1680
 IR Inten    --      1.3409                 0.4071                 5.6077

                      4                      5                      6
                      A                      A                      A
 Frequencies --    443.2903               469.9126               663.4227
 Red. masses --      3.9350                 9.3620                 3.9121
 Frc consts  --      0.4556                 1.2180                 1.0145
 IR Inten    --     19.4638                75.2418                20.2678

                      7                      8                      9
                      A                      A                      A
 Frequencies --    845.4491               959.7479               981.0555
 Red. masses --      1.0221                 1.3391                 1.2338
 Frc consts  --      0.4304                 0.7268                 0.6997
 IR Inten    --      2.5200                 7.1716                 0.0017

                     10                     11                     12
                      A                      A                      A
 Frequencies --   1047.8255              1111.0026              1121.9393
 Red. masses --      1.9296                 1.2271                 1.4117
 Frc consts  --      1.2482                 0.8924                 1.0470
 IR Inten    --      3.4728                 4.2484                38.4114

                     13                     14                     15
                      A                      A                      A
 Frequencies --   1153.6926              1336.4007              1462.3496
 Red. masses --      2.0869                 4.8663                 1.1842
 Frc consts  --      1.6366                 5.1206                 1.4920
 IR Inten    --      6.7142                 0.7390                10.4126

                     16                     17                     18
                      A                      A                      A
 Frequencies --   1483.7573              1669.0266              3086.3679
 Red. masses --      1.1515                10.6943                 1.0545
 Frc consts  --      1.4936                17.5521                 5.9181
 IR Inten    --      5.0283               469.8485                26.6118

                     19                     20                     21
                      A                      A                      A
 Frequencies --   3088.7198              3207.2278              3208.8865
 Red. masses --      1.0549                 1.1159                 1.1194
 Frc consts  --      5.9295                 6.7629                 6.7914
 IR Inten    --      7.1133                19.1992                31.5046

 - Thermochemistry -
 -------------------
 Temperature   298.150 Kelvin.  Pressure   1.00000 Atm.
 Atom     1 has atomic number  6 and mass  12.00000

 Molecular mass:    64.03130 amu.
 Principal axes and moments of inertia in atomic units:
                           1         2         3
     Eigenvalues --   197.48800 247.37977 395.16026
           X            0.99962   0.00000  -0.02763
           Y            0.00000   1.00000   0.00005
           Z            0.02763  -0.00005   0.99962
 This molecule is an asymmetric top.
 Rotational symmetry number  1.
 Rotational temperatures (Kelvin)      0.43858     0.35012     0.21919
 Rotational constants (GHZ):           9.13849     7.29543     4.56711
 Zero-point vibrational energy     166730.2 (Joules/Mol)
                                   39.84948 (Kcal/Mol)
 Warning -- explicit consideration of   5 degrees of freedom as
           vibrations may cause significant error
 Vibrational temperatures:    136.76   175.01   458.03   637.80   676.10
          (Kelvin)            954.52  1216.41  1380.86  1411.52  1507.59
                             1598.48  1614.22  1659.90  1922.78  2103.99
                             2134.79  2401.35  4440.59  4443.97  4614.48
                             4616.87

 Zero-point correction=                           0.063504 (Hartree/Particle)
 Thermal correction to Energy=                    0.069087
 Thermal correction to Enthalpy=                  0.070031
 Thermal correction to Gibbs Free Energy=         0.034504
 Sum of electronic and zero-point Energies=           -192.328992
 Sum of electronic and thermal Energies=              -192.323409
 Sum of electronic and thermal Enthalpies=            -192.322465
 Sum of electronic and thermal Free Energies=         -192.357993

                     E (Thermal)             CV                S
                      KCal/Mol        Cal/Mol-Kelvin    Cal/Mol-Kelvin
 Total                   43.353             17.913             74.774
 Electronic               0.000              0.000              1.377
 Translational            0.889              2.981             38.389
 Rotational               0.889              2.981             24.471
 Vibrational             41.575             11.951             10.536
 Vibration     1          0.603              1.953              3.553
 Vibration     2          0.609              1.931              3.074
 Vibration     3          0.705              1.639              1.319
 Vibration     4          0.803              1.376              0.816
 Vibration     5          0.827              1.317              0.738

 Optimization completed.
    -- Stationary point found.
 Normal termination of Gaussian 09 at Wed Jul 20 09:05:38 2016.
