 Gaussian 09, Revision E.01,
 Gaussian 09:  EM64L-G09RevE.01 30-Nov-2015

 ---------------------------------------------
 #p b3lyp/6-311++G(3df,2p) freq symmetry=Loose
 ---------------------------------------------

 ---------
 b3lyp opt
 ---------
 Symbolic Z-matrix:
 Charge =  1 Multiplicity = 2

                         Standard orientation:
 ---------------------------------------------------------------------
 Center     Atomic      Atomic             Coordinates (Angstroms)
 Number     Number       Type             X           Y           Z
 ---------------------------------------------------------------------
      1          6           0       -1.368314   -0.088221    0.055382
      2          1           0       -1.801644   -0.326362    1.029145
      3          1           0       -2.136897    0.014914   -0.709802
      4          6           0       -0.213710   -0.948570   -0.244795
      5          6           0       -0.381401    1.023361    0.050576
      6          6           0        1.054750   -0.693843    0.106260
      7          1           0        1.893326   -1.350401    0.283975
      8          6           0        0.958597    0.744564   -0.020279
      9          1           0        1.745680    1.438103   -0.286184
 ---------------------------------------------------------------------

 SCF Done:  E(UB3LYP) =  -192.475670333     A.U. after   20 cycles

 The electronic state is 2-A.
 Alpha  occ. eigenvalues --  -10.50335 -10.48717 -10.45975 -10.45884 -10.45872
 Alpha  occ. eigenvalues --   -1.17379  -1.00103  -0.94898  -0.80924  -0.76265
 Alpha  occ. eigenvalues --   -0.71700  -0.71362  -0.68982  -0.65666  -0.57929
 Alpha  occ. eigenvalues --   -0.50676  -0.48787
 Alpha virt. eigenvalues --   -0.33545  -0.30175  -0.21437  -0.15139  -0.12655
 Alpha virt. eigenvalues --   -0.12044  -0.10913  -0.10791  -0.10294  -0.08351
 Alpha virt. eigenvalues --   -0.07455  -0.05584  -0.04509  -0.03565  -0.03018

  Beta  occ. eigenvalues --  -10.50452 -10.47109 -10.45917 -10.45871 -10.45659
  Beta  occ. eigenvalues --   -1.16440  -0.99620  -0.93330  -0.80528  -0.75023
  Beta  occ. eigenvalues --   -0.70542  -0.70499  -0.68669  -0.64954  -0.56876
  Beta  occ. eigenvalues --   -0.49672
  Beta virt. eigenvalues --   -0.36770  -0.31834  -0.27968  -0.19839  -0.14977
  Beta virt. eigenvalues --   -0.12602  -0.11888  -0.10804  -0.10593  -0.10015
  Beta virt. eigenvalues --   -0.08172  -0.07383  -0.05423  -0.04073  -0.03503

 Mulliken charges and spin densities:
               1          2
     1  C   -0.309940  -0.027524
     2  H    0.262662   0.000742
     3  H    0.221084   0.007117
     4  C    0.145843  -0.093588
     5  C    0.172316   1.000123
     6  C    0.160977   0.149280
     7  H    0.274501   0.005092
     8  C   -0.155395  -0.049750
     9  H    0.227952   0.008508
 Sum of Mulliken charges =   1.00000   1.00000

 Dipole moment (field-independent basis, Debye):
    X=              0.1714    Y=             -0.4668    Z=              0.3694  Tot=              0.6195
 Quadrupole moment (field-independent basis, Debye-Ang):
   XX=            -14.2734   YY=            -22.5058   ZZ=            -26.8160
   XY=              0.3772   XZ=             -0.1958   YZ=             -1.7054

  Exact polarizability:  56.895   0.050  53.194   0.753   1.849  32.413
 Approx polarizability:  97.220   0.921 119.044   3.715  10.257  51.232

                      1                      2                      3
                      A                      A                      A
 Frequencies --    317.3473               361.7930               549.4891
 Red. masses --      2.4349                 2.7693                 6.9805
 Frc consts  --      0.1445                 0.2136                 1.2418
 IR Inten    --     25.5342                30.9150                 9.7954

                      4                      5                      6
                      A                      A                      A
 Frequencies --    602.2393               727.2479               843.5688
 Red. masses --      3.8114                 3.5559                 1.5446
 Frc consts  --      0.8145                 1.1081                 0.6476
 IR Inten    --     11.0659                42.7016                32.1414

                      7                      8                      9
                      A                      A                      A
 Frequencies --    883.6060               937.8506               996.2045
 Red. masses --      1.8229                 1.5015                 2.3193
 Frc consts  --      0.8386                 0.7781                 1.3562
 IR Inten    --      0.6846                13.3824                 1.1369

                     10                     11                     12
                      A                      A                      A
 Frequencies --   1060.7929              1075.9246              1138.8469
 Red. masses --      1.9605                 1.5918                 1.4672
 Frc consts  --      1.2998                 1.0857                 1.1211
 IR Inten    --      5.8706                 3.8950                 4.7975

                     13                     14                     15
                      A                      A                      A
 Frequencies --   1179.8632              1219.8734              1382.2446
 Red. masses --      1.3698                 1.3288                 3.1670
 Frc consts  --      1.1235                 1.1651                 3.5650
 IR Inten    --     14.0533                 6.8086                10.6391

                     16                     17                     18
                      A                      A                      A
 Frequencies --   1415.3279              1558.0236              3062.4777
 Red. masses --      1.3043                 5.9223                 1.0585
 Frc consts  --      1.5394                 8.4700                 5.8489
 IR Inten    --     42.1944                14.3240                64.3027

                     19                     20                     21
                      A                      A                      A
 Frequencies --   3124.2123              3195.5073              3230.3019
 Red. masses --      1.1065                 1.0941                 1.1027
 Frc consts  --      6.3633                 6.5826                 6.7794
 IR Inten    --     31.9797                24.7638                44.4011

 - Thermochemistry -
 -------------------
 Temperature   298.150 Kelvin.  Pressure   1.00000 Atm.
 Atom     1 has atomic number  6 and mass  12.00000

 Molecular mass:    64.03130 amu.
 Principal axes and moments of inertia in atomic units:
                           1         2         3
     Eigenvalues --   152.01663 236.88423 370.12846
           X            0.99977   0.02094  -0.00514
           Y           -0.02109   0.99931  -0.03046
           Z            0.00450   0.03056   0.99952
 This molecule is an asymmetric top.
 Rotational symmetry number  1.
 Rotational temperatures (Kelvin)      0.56977     0.36564     0.23401
 Rotational constants (GHZ):          11.87200     7.61866     4.87599
 Zero-point vibrational energy     172637.5 (Joules/Mol)
                                   41.26136 (Kcal/Mol)
 Warning -- explicit consideration of   4 degrees of freedom as
           vibrations may cause significant error
 Vibrational temperatures:    456.59   520.54   790.59   866.49  1046.35
          (Kelvin)           1213.71  1271.31  1349.36  1433.31  1526.24
                             1548.01  1638.54  1697.56  1755.12  1988.74
                             2036.34  2241.65  4406.22  4495.04  4597.62
                             4647.68

 Zero-point correction=                           0.065754 (Hartree/Particle)
 Thermal correction to Energy=                    0.070124
 Thermal correction to Enthalpy=                  0.071068
 Thermal correction to Gibbs Free Energy=         0.038551
 Sum of electronic and zero-point Energies=           -192.409916
 Sum of electronic and thermal Energies=              -192.405547
 Sum of electronic and thermal Enthalpies=            -192.404602
 Sum of electronic and thermal Free Energies=         -192.437119

                     E (Thermal)             CV                S
                      KCal/Mol        Cal/Mol-Kelvin    Cal/Mol-Kelvin
 Total                   44.003             15.585             68.437
 Electronic               0.000              0.000              1.377
 Translational            0.889              2.981             38.389
 Rotational               0.889              2.981             24.103
 Vibrational             42.226              9.623              4.567
 Vibration     1          0.704              1.640              1.324
 Vibration     2          0.736              1.551              1.114
 Vibration     3          0.905              1.141              0.545
 Vibration     4          0.961              1.027              0.446

 Normal termination of Gaussian 09 at Mon Jun 20 05:17:06 2016.
