 Gaussian 09, Revision E.01,
 Gaussian 09:  EM64L-G09RevE.01 30-Nov-2015

 ---------------------------------------------
 #p b3lyp/6-311++G(3df,2p) freq symmetry=Loose
 ---------------------------------------------

 ---------
 b3lyp opt
 ---------
 Symbolic Z-matrix:
 Charge =  0 Multiplicity = 1

                         Standard orientation:
 ---------------------------------------------------------------------
 Center     Atomic      Atomic             Coordinates (Angstroms)
 Number     Number       Type             X           Y           Z
 ---------------------------------------------------------------------
      1          6           0        1.236908   -1.778064   -0.000000
      2          1           0        0.260074   -2.254982   -0.000000
      3          1           0        1.787934   -2.111340    0.880973
      4          1           0        1.787934   -2.111340   -0.880973
      5          6           0       -0.000000    0.383275    0.000000
      6          6           0       -1.113695    1.030659   -0.000000
      7          6           0       -2.221355    1.667891   -0.000000
      8          6           0        1.119699   -0.275982    0.000000
      9          1           0        2.034714    0.310987    0.000000
 ---------------------------------------------------------------------

 SCF Done:  E(RB3LYP) =  -192.808015046     A.U. after   14 cycles

 The electronic state is 1-A'.
 Alpha  occ. eigenvalues --  -10.26459 -10.22811 -10.21875 -10.20969 -10.18579
 Alpha  occ. eigenvalues --   -0.85731  -0.79066  -0.72063  -0.65167  -0.53573
 Alpha  occ. eigenvalues --   -0.46587  -0.45749  -0.41944  -0.37601  -0.33916
 Alpha  occ. eigenvalues --   -0.29347  -0.25906
 Alpha virt. eigenvalues --   -0.13620  -0.06174  -0.01905   0.00382   0.01908
 Alpha virt. eigenvalues --    0.01980   0.04941   0.05673   0.06399   0.06458
 Alpha virt. eigenvalues --    0.07402   0.07601   0.08674   0.09529   0.09844

 Mulliken charges:
               1
     1  C   -0.492942
     2  H    0.157493
     3  H    0.157908
     4  H    0.157908
     5  C   -0.098387
     6  C    0.942421
     7  C   -0.832271
     8  C   -0.164370
     9  H    0.172240
 Sum of Mulliken charges =  -0.00000

 Dipole moment (field-independent basis, Debye):
    X=              4.5595    Y=             -3.1034    Z=             -0.0000  Tot=              5.5154
 Quadrupole moment (field-independent basis, Debye-Ang):
   XX=            -35.9221   YY=            -31.9302   ZZ=            -31.6041
   XY=              5.6256   XZ=             -0.0000   YZ=              0.0000

  Exact polarizability:  95.080 -35.699  71.517  -0.000   0.000  41.742
 Approx polarizability: 188.801 -76.797 112.600   0.000   0.000  59.202

                      1                      2                      3
                     A'                     A"                     A"
 Frequencies --    119.8226               141.0238               219.9719
 Red. masses --      5.1554                 1.2379                 3.7100
 Frc consts  --      0.0436                 0.0145                 0.1058
 IR Inten    --      5.8630                 0.0836                 0.3827

                      4                      5                      6
                     A'                     A"                     A'
 Frequencies --    258.1375               504.2925               602.8970
 Red. masses --      5.5582                 5.2284                 5.1054
 Frc consts  --      0.2182                 0.7834                 1.0934
 IR Inten    --      2.3997                 1.7840                 2.2773

                      7                      8                      9
                     A"                     A'                     A'
 Frequencies --    677.0496               820.5805              1025.2995
 Red. masses --      1.4017                 3.1361                 1.6472
 Frc consts  --      0.3786                 1.2442                 1.0203
 IR Inten    --     28.3179                 5.7104                 4.1256

                     10                     11                     12
                     A"                     A'                     A'
 Frequencies --   1046.8583              1090.1051              1289.2664
 Red. masses --      1.4066                 2.5902                 1.5428
 Frc consts  --      0.9082                 1.8135                 1.5109
 IR Inten    --      0.2908                 4.1782                 1.6238

                     13                     14                     15
                     A'                     A"                     A'
 Frequencies --   1407.8892              1483.3562              1490.4961
 Red. masses --      1.1898                 1.0438                 1.0541
 Frc consts  --      1.3895                 1.3531                 1.3798
 IR Inten    --     14.2111                 7.5862                11.4619

                     16                     17                     18
                     A'                     A'                     A'
 Frequencies --   1764.3623              2141.6097              3028.4942
 Red. masses --      9.9266                11.6613                 1.0359
 Frc consts  --     18.2064                31.5121                 5.5979
 IR Inten    --     14.4027               758.1547                17.8914

                     19                     20                     21
                     A"                     A'                     A'
 Frequencies --   3079.6572              3116.9527              3131.1531
 Red. masses --      1.1013                 1.0892                 1.0964
 Frc consts  --      6.1538                 6.2349                 6.3334
 IR Inten    --      7.6219                14.1558                 2.5144

 - Thermochemistry -
 -------------------
 Temperature   298.150 Kelvin.  Pressure   1.00000 Atm.
 Atom     1 has atomic number  6 and mass  12.00000

 Molecular mass:    64.03130 amu.
 Principal axes and moments of inertia in atomic units:
                           1         2         3
     Eigenvalues --    53.01281 736.73157 778.57142
           X            0.73834   0.67443   0.00000
           Y           -0.67443   0.73834   0.00000
           Z           -0.00000   0.00000   1.00000
 This molecule is an asymmetric top.
 Rotational symmetry number  1.
 Rotational temperatures (Kelvin)      1.63383     0.11756     0.11125
 Rotational constants (GHZ):          34.04349     2.44966     2.31802
 Zero-point vibrational energy     170104.6 (Joules/Mol)
                                   40.65598 (Kcal/Mol)
 Warning -- explicit consideration of   6 degrees of freedom as
           vibrations may cause significant error
 Vibrational temperatures:    172.40   202.90   316.49   371.40   725.56
          (Kelvin)            867.43   974.12  1180.63  1475.18  1506.19
                             1568.42  1854.96  2025.64  2134.22  2144.49
                             2538.52  3081.29  4357.32  4430.93  4484.59
                             4505.03

 Zero-point correction=                           0.064789 (Hartree/Particle)
 Thermal correction to Energy=                    0.070679
 Thermal correction to Enthalpy=                  0.071623
 Thermal correction to Gibbs Free Energy=         0.036103
 Sum of electronic and zero-point Energies=           -192.743226
 Sum of electronic and thermal Energies=              -192.737336
 Sum of electronic and thermal Enthalpies=            -192.736392
 Sum of electronic and thermal Free Energies=         -192.771912

                     E (Thermal)             CV                S
                      KCal/Mol        Cal/Mol-Kelvin    Cal/Mol-Kelvin
 Total                   44.352             18.541             74.759
 Electronic               0.000              0.000              0.000
 Translational            0.889              2.981             38.389
 Rotational               0.889              2.981             24.923
 Vibrational             42.574             12.579             11.447
 Vibration     1          0.609              1.933              3.103
 Vibration     2          0.615              1.912              2.790
 Vibration     3          0.647              1.811              1.959
 Vibration     4          0.667              1.749              1.674
 Vibration     5          0.860              1.240              0.647
 Vibration     6          0.961              1.026              0.445

 Optimization completed.
    -- Stationary point found.
 Normal termination of Gaussian 09 at Tue Jul 19 22:04:16 2016.
