 Gaussian 09, Revision E.01,
 Gaussian 09:  EM64L-G09RevE.01 30-Nov-2015

 ------------------------------------------------------
 #p b3lyp/6-311++G(3df,2p) freq IOp(2/17=3) IOp(2/18=3)
 ------------------------------------------------------

 ---------
 b3lyp opt
 ---------
 Symbolic Z-matrix:
 Charge =  2 Multiplicity = 3

                         Standard orientation:
 ---------------------------------------------------------------------
 Center     Atomic      Atomic             Coordinates (Angstroms)
 Number     Number       Type             X           Y           Z
 ---------------------------------------------------------------------
      1          6           0        0.472482    0.356568    0.000000
      2          6           0       -0.083260   -0.782998    0.767704
      3          6           0       -0.561908   -1.773806   -0.000000
      4          6           0       -0.083260   -0.782998   -0.767704
      5          1           0        1.599068    0.412612    0.000000
      6          6           0        0.000000    1.774370    0.000000
      7          1           0        0.717295    2.695958    0.000000
      8          1           0       -0.390496    2.072333   -1.005861
      9          1           0       -0.390496    2.072333    1.005861
 ---------------------------------------------------------------------

 SCF Done:  E(UB3LYP) =  -191.776951679     A.U. after   16 cycles

 The electronic state is 3-A'.
 Alpha  occ. eigenvalues --  -10.76892 -10.76867 -10.76486 -10.76032 -10.71376
 Alpha  occ. eigenvalues --   -1.50007  -1.29248  -1.18397  -1.04394  -1.02335
 Alpha  occ. eigenvalues --   -0.98215  -0.95400  -0.88120  -0.86982  -0.84857
 Alpha  occ. eigenvalues --   -0.81631  -0.76001
 Alpha virt. eigenvalues --   -0.54820  -0.51478  -0.48907  -0.37795  -0.34975
 Alpha virt. eigenvalues --   -0.32668  -0.30847  -0.28437  -0.27952  -0.25639
 Alpha virt. eigenvalues --   -0.23245  -0.22605  -0.21767  -0.21068  -0.19463

  Beta  occ. eigenvalues --  -10.76440 -10.76418 -10.76232 -10.74161 -10.70681
  Beta  occ. eigenvalues --   -1.49426  -1.27381  -1.15692  -1.02705  -0.99827
  Beta  occ. eigenvalues --   -0.96418  -0.94083  -0.86935  -0.83171  -0.78666
  Beta virt. eigenvalues --   -0.70938  -0.61453  -0.54053  -0.48939  -0.45513
  Beta virt. eigenvalues --   -0.35418  -0.34252  -0.31644  -0.30435  -0.27930
  Beta virt. eigenvalues --   -0.27440  -0.24844  -0.22785  -0.21665  -0.21205

 Mulliken charges and spin densities:
               1          2
     1  C    0.322300  -0.024235
     2  C    0.499500   0.151607
     3  C   -0.060116   0.865007
     4  C    0.499500   0.151607
     5  H    0.303057   0.094304
     6  C   -0.523720   0.462035
     7  H    0.323041   0.176981
     8  H    0.318219   0.061347
     9  H    0.318219   0.061347
 Sum of Mulliken charges =   2.00000   2.00000

 Dipole moment (field-independent basis, Debye):
    X=              1.1223    Y=              4.5254    Z=             -0.0000  Tot=              4.6625
 Quadrupole moment (field-independent basis, Debye-Ang):
   XX=            -19.5857   YY=              4.0883   ZZ=            -21.4484
   XY=              3.5565   XZ=             -0.0000   YZ=              0.0000

  Exact polarizability:  32.633   4.756  91.409  -0.000  -0.000  38.354
 Approx polarizability:  53.126  10.272 157.104  -0.000  -0.000  83.718

                      1                      2                      3
                     A"                     A'                     A"
 Frequencies --    104.6972               236.9425               348.7230
 Red. masses --      1.1011                 4.6487                 1.1862
 Frc consts  --      0.0071                 0.1538                 0.0850
 IR Inten    --     32.6427                 7.3385               148.3328

                      4                      5                      6
                     A"                     A'                     A"
 Frequencies --    382.9479               514.5856               645.0956
 Red. masses --      5.6394                 5.2915                 5.3358
 Frc consts  --      0.4873                 0.8255                 1.3083
 IR Inten    --      5.5398                57.1589                87.8202

                      7                      8                      9
                     A'                     A'                     A'
 Frequencies --    674.0057               710.5263               857.2415
 Red. masses --      2.6755                 1.6065                 1.9081
 Frc consts  --      0.7161                 0.4779                 0.8261
 IR Inten    --    291.0472               101.6648               681.9791

                     10                     11                     12
                     A"                     A'                     A'
 Frequencies --    904.9397              1002.0956              1075.7616
 Red. masses --      1.1776                 1.6543                 1.3651
 Frc consts  --      0.5682                 0.9788                 0.9308
 IR Inten    --      1.2982               525.8724                10.7023

                     13                     14                     15
                     A"                     A'                     A"
 Frequencies --   1145.7027              1224.3532              1233.7207
 Red. masses --      1.1995                 1.9559                10.7533
 Frc consts  --      0.9277                 1.7274                 9.6433
 IR Inten    --     42.9565                35.6885                 2.8802

                     16                     17                     18
                     A'                     A'                     A'
 Frequencies --   1311.2439              1671.7292              2307.5356
 Red. masses --      2.1592                10.5387                 1.0578
 Frc consts  --      2.1873                17.3528                 3.3186
 IR Inten    --     10.1554               214.3848               676.2743

                     19                     20                     21
                     A'                     A'                     A"
 Frequencies --   2688.9062              2778.2648              2821.8936
 Red. masses --      1.0714                 1.0457                 1.1027
 Frc consts  --      4.5640                 4.7558                 5.1735
 IR Inten    --    492.1519               292.4154               248.2746

 - Thermochemistry -
 -------------------
 Temperature   298.150 Kelvin.  Pressure   1.00000 Atm.
 Atom     1 has atomic number  6 and mass  12.00000

 Molecular mass:    64.03130 amu.
 Principal axes and moments of inertia in atomic units:
                           1         2         3
     Eigenvalues --    83.93328 418.25042 449.90679
           X            0.16175   0.00000   0.98683
           Y            0.98683   0.00000  -0.16175
           Z           -0.00000   1.00000  -0.00000
 This molecule is an asymmetric top.
 Rotational symmetry number  1.
 Rotational temperatures (Kelvin)      1.03194     0.20709     0.19252
 Rotational constants (GHZ):          21.50209     4.31498     4.01137
 Zero-point vibrational energy     147385.4 (Joules/Mol)
                                   35.22595 (Kcal/Mol)
 Warning -- explicit consideration of   5 degrees of freedom as
           vibrations may cause significant error
 Vibrational temperatures:    150.64   340.91   501.73   550.98   740.37
          (Kelvin)            928.15   969.74  1022.29  1233.38  1302.00
                             1441.79  1547.78  1648.41  1761.57  1775.05
                             1886.59  2405.24  3320.02  3868.73  3997.30
                             4060.07

 Zero-point correction=                           0.056136 (Hartree/Particle)
 Thermal correction to Energy=                    0.061715
 Thermal correction to Enthalpy=                  0.062659
 Thermal correction to Gibbs Free Energy=         0.027267
 Sum of electronic and zero-point Energies=           -191.720816
 Sum of electronic and thermal Energies=              -191.715237
 Sum of electronic and thermal Enthalpies=            -191.714292
 Sum of electronic and thermal Free Energies=         -191.749684

                     E (Thermal)             CV                S
                      KCal/Mol        Cal/Mol-Kelvin    Cal/Mol-Kelvin
 Total                   38.727             19.156             74.489
 Electronic               0.000              0.000              2.183
 Translational            0.889              2.981             38.389
 Rotational               0.889              2.981             24.272
 Vibrational             36.949             13.194              9.645
 Vibration     1          0.605              1.945              3.365
 Vibration     2          0.656              1.784              1.826
 Vibration     3          0.726              1.578              1.172
 Vibration     4          0.752              1.507              1.028
 Vibration     5          0.870              1.218              0.623

 Optimization completed.
    -- Stationary point found.
 Normal termination of Gaussian 09 at Thu Jan 31 08:03:32 2019.
