 Gaussian 09, Revision E.01,
 Gaussian 09:  EM64L-G09RevE.01 30-Nov-2015

 ---------------------------------------------
 #p b3lyp/6-311++G(3df,2p) freq symmetry=Loose
 ---------------------------------------------

 ---------
 b3lyp opt
 ---------
 Symbolic Z-matrix:
 Charge =  1 Multiplicity = 2

                         Standard orientation:
 ---------------------------------------------------------------------
 Center     Atomic      Atomic             Coordinates (Angstroms)
 Number     Number       Type             X           Y           Z
 ---------------------------------------------------------------------
      1          6           0       -1.355442    0.092765   -0.000966
      2          1           0       -2.437431    0.135779   -0.002259
      3          6           0        0.680804    0.110062    0.000543
      4          6           0        2.020837   -0.008717   -0.000954
      5          6           0       -0.363076    1.063041    0.000770
      6          1           0       -0.349381    2.142954    0.001144
      7          6           0       -0.392945   -1.074486    0.000498
      8          1           0       -0.376575   -1.687918   -0.898393
      9          1           0       -0.377683   -1.686804    0.900163
 ---------------------------------------------------------------------

 SCF Done:  E(UB3LYP) =  -192.455270411     A.U. after   18 cycles

 The electronic state is 2-A.
 Alpha  occ. eigenvalues --  -10.51417 -10.48257 -10.46646 -10.46071 -10.44607
 Alpha  occ. eigenvalues --   -1.15570  -1.00738  -0.92397  -0.84406  -0.76917
 Alpha  occ. eigenvalues --   -0.70054  -0.68879  -0.63776  -0.61402  -0.57782
 Alpha  occ. eigenvalues --   -0.53794  -0.51577
 Alpha virt. eigenvalues --   -0.35588  -0.30927  -0.19711  -0.15641  -0.14590
 Alpha virt. eigenvalues --   -0.12547  -0.11327  -0.10777  -0.09853  -0.08563
 Alpha virt. eigenvalues --   -0.07044  -0.06762  -0.05689  -0.04206  -0.03354

  Beta  occ. eigenvalues --  -10.50760 -10.47640 -10.46543 -10.45903 -10.44654
  Beta  occ. eigenvalues --   -1.14731  -0.98427  -0.92218  -0.83184  -0.76779
  Beta  occ. eigenvalues --   -0.68891  -0.68406  -0.63258  -0.61182  -0.55428
  Beta  occ. eigenvalues --   -0.52781
  Beta virt. eigenvalues --   -0.41700  -0.34842  -0.26667  -0.17587  -0.15560
  Beta virt. eigenvalues --   -0.14265  -0.12497  -0.10924  -0.10656  -0.09772
  Beta virt. eigenvalues --   -0.08523  -0.06892  -0.06525  -0.05132  -0.04009

 Mulliken charges and spin densities:
               1          2
     1  C    0.215387   0.438886
     2  H    0.326189  -0.011371
     3  C    0.638492   0.170886
     4  C   -0.341694   0.340280
     5  C    0.025625   0.098031
     6  H    0.293948  -0.002861
     7  C   -0.602688  -0.047006
     8  H    0.222348   0.006588
     9  H    0.222393   0.006568
 Sum of Mulliken charges =   1.00000   1.00000

 Dipole moment (field-independent basis, Debye):
    X=             -2.4846    Y=              0.3222    Z=              0.0011  Tot=              2.5054
 Quadrupole moment (field-independent basis, Debye-Ang):
   XX=            -21.4128   YY=            -18.9321   ZZ=            -26.6631
   XY=              0.4474   XZ=              0.0071   YZ=              0.0003

  Exact polarizability:  72.838  -0.723  48.216   0.004   0.004  33.975
 Approx polarizability: 135.132  -0.745  73.710   0.001   0.011  49.535

                      1                      2                      3
                      A                      A                      A
 Frequencies --    110.9781               133.9886               357.8630
 Red. masses --      2.8855                 6.1734                 2.8090
 Frc consts  --      0.0209                 0.0653                 0.2120
 IR Inten    --      0.3941                 5.5494                 2.9853

                      4                      5                      6
                      A                      A                      A
 Frequencies --    661.6169               721.7899               801.2010
 Red. masses --      6.7515                 1.1259                 5.5764
 Frc consts  --      1.7413                 0.3456                 2.1090
 IR Inten    --     10.2617                56.9882                 5.1179

                      7                      8                      9
                      A                      A                      A
 Frequencies --    933.9374               938.0645               996.5964
 Red. masses --      2.0179                 1.2805                 1.6567
 Frc consts  --      1.0370                 0.6639                 0.9695
 IR Inten    --      7.3681                 6.6972                 0.0356

                     10                     11                     12
                      A                      A                      A
 Frequencies --   1022.0432              1104.1421              1117.1560
 Red. masses --      2.8252                 1.2019                 1.6594
 Frc consts  --      1.7387                 0.8633                 1.2202
 IR Inten    --     41.7633                 1.2870                 5.9905

                     13                     14                     15
                      A                      A                      A
 Frequencies --   1232.5367              1313.2150              1400.5087
 Red. masses --      1.3257                 1.7710                 2.4959
 Frc consts  --      1.1866                 1.7994                 2.8843
 IR Inten    --      8.9997                73.5060                40.4637

                     16                     17                     18
                      A                      A                      A
 Frequencies --   1472.3307              1593.4777              3077.7559
 Red. masses --      1.3005                10.6378                 1.0552
 Frc consts  --      1.6610                15.9145                 5.8892
 IR Inten    --     40.9869               217.1873                 7.2154

                     19                     20                     21
                      A                      A                      A
 Frequencies --   3144.0861              3203.1498              3235.7263
 Red. masses --      1.1114                 1.0938                 1.1080
 Frc consts  --      6.4730                 6.6123                 6.8347
 IR Inten    --      9.3183                21.9792                18.9697

 - Thermochemistry -
 -------------------
 Temperature   298.150 Kelvin.  Pressure   1.00000 Atm.
 Atom     1 has atomic number  6 and mass  12.00000

 Molecular mass:    64.03130 amu.
 Principal axes and moments of inertia in atomic units:
                           1         2         3
     Eigenvalues --   141.63013 313.84178 443.82952
           X            0.99999   0.00521   0.00006
           Y           -0.00521   0.99999  -0.00009
           Z           -0.00006   0.00009   1.00000
 This molecule is an asymmetric top.
 Rotational symmetry number  1.
 Rotational temperatures (Kelvin)      0.61155     0.27598     0.19515
 Rotational constants (GHZ):          12.74264     5.75048     4.06629
 Zero-point vibrational energy     170899.5 (Joules/Mol)
                                   40.84596 (Kcal/Mol)
 Warning -- explicit consideration of   3 degrees of freedom as
           vibrations may cause significant error
 Vibrational temperatures:    159.67   192.78   514.88   951.92  1038.49
          (Kelvin)           1152.75  1343.73  1349.66  1433.88  1470.49
                             1588.61  1607.34  1773.34  1889.42  2015.02
                             2118.35  2292.66  4428.20  4523.63  4608.61
                             4655.48

 Zero-point correction=                           0.065092 (Hartree/Particle)
 Thermal correction to Energy=                    0.070229
 Thermal correction to Enthalpy=                  0.071173
 Thermal correction to Gibbs Free Energy=         0.036481
 Sum of electronic and zero-point Energies=           -192.390178
 Sum of electronic and thermal Energies=              -192.385041
 Sum of electronic and thermal Enthalpies=            -192.384097
 Sum of electronic and thermal Free Energies=         -192.418790

                     E (Thermal)             CV                S
                      KCal/Mol        Cal/Mol-Kelvin    Cal/Mol-Kelvin
 Total                   44.069             16.473             73.016
 Electronic               0.000              0.000              1.377
 Translational            0.889              2.981             38.389
 Rotational               0.889              2.981             24.493
 Vibrational             42.292             10.511              8.757
 Vibration     1          0.607              1.940              3.252
 Vibration     2          0.613              1.919              2.888
 Vibration     3          0.733              1.559              1.131

 Normal termination of Gaussian 09 at Mon Jun 20 04:20:39 2016.
