 Gaussian 09, Revision E.01,
 Gaussian 09:  EM64L-G09RevE.01 30-Nov-2015

 ------------------------------------------------------
 #p b3lyp/6-311++G(3df,2p) freq IOp(2/17=3) IOp(2/18=3)
 ------------------------------------------------------

 ---------
 b3lyp opt
 ---------
 Symbolic Z-matrix:
 Charge =  1 Multiplicity = 4

                         Standard orientation:
 ---------------------------------------------------------------------
 Center     Atomic      Atomic             Coordinates (Angstroms)
 Number     Number       Type             X           Y           Z
 ---------------------------------------------------------------------
      1          6           0        0.462261    1.802669    0.000000
      2          6           0        0.000000    0.506318    0.000000
      3          6           0       -0.981427   -0.488809    0.000000
      4          1           0       -2.011358   -0.125404    0.000000
      5          6           0       -0.701929   -1.901330    0.000000
      6          1           0       -0.693749   -2.460007   -0.930814
      7          1           0       -0.693749   -2.460007    0.930814
      8          6           0        1.387880    0.844899    0.000000
      9          1           0        2.398267    0.462832    0.000000
 ---------------------------------------------------------------------

 SCF Done:  E(UB3LYP) =  -192.430397315     A.U. after   15 cycles

 The electronic state is 4-A".
 Alpha  occ. eigenvalues --  -10.50098 -10.49927 -10.49299 -10.45907 -10.39144
 Alpha  occ. eigenvalues --   -1.20194  -1.03198  -0.88829  -0.83264  -0.76299
 Alpha  occ. eigenvalues --   -0.69922  -0.67516  -0.67312  -0.63522  -0.62691
 Alpha  occ. eigenvalues --   -0.52495  -0.48162  -0.43100
 Alpha virt. eigenvalues --   -0.27430  -0.22515  -0.14867  -0.13676  -0.12036
 Alpha virt. eigenvalues --   -0.11536  -0.10717  -0.09661  -0.07362  -0.07133
 Alpha virt. eigenvalues --   -0.06460  -0.05893  -0.04904  -0.03745  -0.02910

  Beta  occ. eigenvalues --  -10.49436 -10.48858 -10.48470 -10.45025 -10.37703
  Beta  occ. eigenvalues --   -1.18486  -0.99478  -0.85285  -0.81665  -0.73121
  Beta  occ. eigenvalues --   -0.66935  -0.64464  -0.64184  -0.61296  -0.60335
  Beta virt. eigenvalues --   -0.37896  -0.37305  -0.27160  -0.24536  -0.18284
  Beta virt. eigenvalues --   -0.14358  -0.13224  -0.11365  -0.10893  -0.10442
  Beta virt. eigenvalues --   -0.08935  -0.06928  -0.06895  -0.05167  -0.04800

 Mulliken charges and spin densities:
               1          2
     1  C    0.085153   0.899741
     2  C    0.427805   0.189353
     3  C   -0.273927   0.560076
     4  H    0.228569   0.039892
     5  C   -0.470888   1.029382
     6  H    0.223851   0.018259
     7  H    0.223851   0.018259
     8  C    0.242590   0.244489
     9  H    0.312994   0.000549
 Sum of Mulliken charges =   1.00000   3.00000

 Dipole moment (field-independent basis, Debye):
    X=              1.0679    Y=             -0.0689    Z=              0.0000  Tot=              1.0701
 Quadrupole moment (field-independent basis, Debye-Ang):
   XX=            -16.3335   YY=            -18.0338   ZZ=            -26.0271
   XY=              4.5748   XZ=             -0.0000   YZ=             -0.0000

  Exact polarizability:  52.899  11.971  66.193   0.000  -0.000  32.120
 Approx polarizability:  79.710  11.857  94.961  -0.000  -0.000  47.194

                      1                      2                      3
                     A"                     A'                     A"
 Frequencies --    188.6374               209.3240               277.0238
 Red. masses --      3.4717                 3.2703                 1.2122
 Frc consts  --      0.0728                 0.0844                 0.0548
 IR Inten    --      1.1629                 2.3837                 4.8497

                      4                      5                      6
                     A'                     A"                     A'
 Frequencies --    440.5078               493.8582               560.0489
 Red. masses --      1.3552                 2.8471                 4.8524
 Frc consts  --      0.1549                 0.4091                 0.8967
 IR Inten    --     56.4494                 1.2365                11.6992

                      7                      8                      9
                     A"                     A'                     A"
 Frequencies --    713.1432               800.3959               861.1289
 Red. masses --      1.0924                 3.2933                 1.3598
 Frc consts  --      0.3273                 1.2431                 0.5941
 IR Inten    --     14.7906                 2.8004                20.3266

                     10                     11                     12
                     A"                     A'                     A'
 Frequencies --    948.4158               961.0797              1073.3532
 Red. masses --      1.6007                 1.5521                 3.5588
 Frc consts  --      0.8483                 0.8447                 2.4157
 IR Inten    --      3.9959                20.9389                82.8649

                     13                     14                     15
                     A'                     A'                     A'
 Frequencies --   1147.3511              1324.4627              1371.3509
 Red. masses --      2.9561                 1.6805                 1.1665
 Frc consts  --      2.2928                 1.7369                 1.2925
 IR Inten    --      8.3382                49.8377                33.8814

                     16                     17                     18
                     A'                     A'                     A'
 Frequencies --   1477.2812              1704.6234              3067.9817
 Red. masses --      7.8286                 9.0528                 1.0830
 Frc consts  --     10.0661                15.4984                 6.0062
 IR Inten    --     58.0351                27.9644                24.7359

                     19                     20                     21
                     A'                     A"                     A'
 Frequencies --   3092.1149              3189.2373              3246.8418
 Red. masses --      1.0479                 1.1147                 1.1164
 Frc consts  --      5.9031                 6.6802                 6.9342
 IR Inten    --     66.7869                21.6835                82.6634

 - Thermochemistry -
 -------------------
 Temperature   298.150 Kelvin.  Pressure   1.00000 Atm.
 Atom     1 has atomic number  6 and mass  12.00000

 Molecular mass:    64.03130 amu.
 Principal axes and moments of inertia in atomic units:
                           1         2         3
     Eigenvalues --    91.60220 502.85038 581.97966
           X            0.51102   0.85957   0.00000
           Y            0.85957  -0.51102   0.00000
           Z            0.00000   0.00000   1.00000
 This molecule is an asymmetric top.
 Rotational symmetry number  1.
 Rotational temperatures (Kelvin)      0.94554     0.17225     0.14883
 Rotational constants (GHZ):          19.70194     3.58902     3.10104
 Zero-point vibrational energy     162382.1 (Joules/Mol)
                                   38.81025 (Kcal/Mol)
 Warning -- explicit consideration of   6 degrees of freedom as
           vibrations may cause significant error
 Vibrational temperatures:    271.41   301.17   398.57   633.79   710.55
          (Kelvin)            805.78  1026.05  1151.59  1238.97  1364.56
                             1382.78  1544.31  1650.78  1905.60  1973.07
                             2125.48  2452.57  4414.14  4448.86  4588.60
                             4671.48

 Zero-point correction=                           0.061848 (Hartree/Particle)
 Thermal correction to Energy=                    0.067350
 Thermal correction to Enthalpy=                  0.068294
 Thermal correction to Gibbs Free Energy=         0.032718
 Sum of electronic and zero-point Energies=           -192.368549
 Sum of electronic and thermal Energies=              -192.363048
 Sum of electronic and thermal Enthalpies=            -192.362103
 Sum of electronic and thermal Free Energies=         -192.397679

                     E (Thermal)             CV                S
                      KCal/Mol        Cal/Mol-Kelvin    Cal/Mol-Kelvin
 Total                   42.263             18.908             74.876
 Electronic               0.000              0.000              2.755
 Translational            0.889              2.981             38.389
 Rotational               0.889              2.981             24.798
 Vibrational             40.485             12.946              8.934
 Vibration     1          0.633              1.855              2.241
 Vibration     2          0.642              1.827              2.050
 Vibration     3          0.678              1.716              1.552
 Vibration     4          0.800              1.382              0.825
 Vibration     5          0.850              1.264              0.674
 Vibration     6          0.916              1.118              0.524

 Optimization completed.
    -- Stationary point found.
 Normal termination of Gaussian 09 at Thu Jan 31 07:50:45 2019.
