 Gaussian 09, Revision E.01,
 Gaussian 09:  EM64L-G09RevE.01 30-Nov-2015

 ---------------------------------------------
 #p b3lyp/6-311++G(3df,2p) freq symmetry=Loose
 ---------------------------------------------

 ---------
 b3lyp opt
 ---------
 Symbolic Z-matrix:
 Charge =  3 Multiplicity = 2

                         Standard orientation:
 ---------------------------------------------------------------------
 Center     Atomic      Atomic             Coordinates (Angstroms)
 Number     Number       Type             X           Y           Z
 ---------------------------------------------------------------------
      1          6           0        0.647637   -0.000008    0.268996
      2          1           0        0.975775   -0.000044    1.401547
      3          6           0        2.091419    0.000005   -0.164444
      4          1           0       -2.537788   -0.000011    0.341535
      5          6           0       -0.443736    0.998848   -0.135178
      6          1           0       -0.407239    1.999152   -0.615767
      7          6           0       -1.455501   -0.000003    0.080630
      8          6           0       -0.443736   -0.998840   -0.135241
      9          1           0       -0.407239   -1.999113   -0.615893
 ---------------------------------------------------------------------

 SCF Done:  E(UB3LYP) =  -191.022314156     A.U. after   19 cycles

 The electronic state is 2-A.
 Alpha  occ. eigenvalues --  -11.14557 -11.01140 -11.01140 -10.98850 -10.97358
 Alpha  occ. eigenvalues --   -1.66704  -1.50995  -1.37702  -1.31809  -1.24525
 Alpha  occ. eigenvalues --   -1.20595  -1.15365  -1.14073  -1.10662  -1.08686
 Alpha  occ. eigenvalues --   -1.02669
 Alpha virt. eigenvalues --   -0.88245  -0.85610  -0.81800  -0.74249  -0.56634
 Alpha virt. eigenvalues --   -0.55267  -0.54227  -0.50416  -0.48736  -0.47815
 Alpha virt. eigenvalues --   -0.47769  -0.44208  -0.43266  -0.42229  -0.41753

  Beta  occ. eigenvalues --  -11.13962 -11.00886 -11.00885 -10.98784 -10.96889
  Beta  occ. eigenvalues --   -1.65536  -1.49390  -1.36837  -1.30377  -1.23717
  Beta  occ. eigenvalues --   -1.19837  -1.14905  -1.12604  -1.10314  -1.05272
  Beta virt. eigenvalues --   -0.93101  -0.87511  -0.84552  -0.79575  -0.71201
  Beta virt. eigenvalues --   -0.55999  -0.54770  -0.53487  -0.49589  -0.47987
  Beta virt. eigenvalues --   -0.47490  -0.47231  -0.43656  -0.43133  -0.41742

 Mulliken charges and spin densities:
               1          2
     1  C    0.180034  -0.066787
     2  H    0.355096   0.072600
     3  C    0.457188   0.364018
     4  H    0.409372   0.013999
     5  C    0.179398   0.172830
     6  H    0.392090  -0.003075
     7  C    0.455335   0.276659
     8  C    0.179398   0.172830
     9  H    0.392090  -0.003075
 Sum of Mulliken charges =   3.00000   1.00000

 Dipole moment (field-independent basis, Debye):
    X=              1.2153    Y=             -0.0000    Z=              0.2896  Tot=              1.2494
 Quadrupole moment (field-independent basis, Debye-Ang):
   XX=              8.9035   YY=             -7.0265   ZZ=            -17.5222
   XY=             -0.0000   XZ=              0.6763   YZ=              0.0003

  Exact polarizability:  77.387   0.000  39.883  -0.306   0.000  27.549
 Approx polarizability: 167.263   0.000  70.357  -8.425   0.001  46.146

                      1                      2                      3
                      A                      A                      A
 Frequencies --    228.5243               232.5547               384.7275
 Red. masses --      2.6897                 4.3600                 2.8499
 Frc consts  --      0.0828                 0.1389                 0.2485
 IR Inten    --      2.9809                 0.8216                12.0737

                      4                      5                      6
                      A                      A                      A
 Frequencies --    564.3803               670.5209               706.5630
 Red. masses --      3.9216                 1.6372                 2.0608
 Frc consts  --      0.7360                 0.4337                 0.6062
 IR Inten    --     42.8052                 4.9219                 5.8501

                      7                      8                      9
                      A                      A                      A
 Frequencies --    840.5704               902.5443               919.3216
 Red. masses --      2.4816                 1.8143                 1.3253
 Frc consts  --      1.0331                 0.8707                 0.6599
 IR Inten    --     36.1485                18.4370                41.4744

                     10                     11                     12
                      A                      A                      A
 Frequencies --    953.6377               958.3914               975.7367
 Red. masses --      2.2291                 1.2532                 2.8569
 Frc consts  --      1.1944                 0.6782                 1.6025
 IR Inten    --     45.2890                 0.1047               303.6426

                     13                     14                     15
                      A                      A                      A
 Frequencies --   1001.9663              1104.8153              1139.7460
 Red. masses --      1.4956                 1.8439                 1.2978
 Frc consts  --      0.8847                 1.3261                 0.9933
 IR Inten    --      0.0309                 7.7814                 1.0730

                     16                     17                     18
                      A                      A                      A
 Frequencies --   1182.2283              1267.8051              2297.3233
 Red. masses --      2.6194                 2.6109                 1.0743
 Frc consts  --      2.1570                 2.4725                 3.3406
 IR Inten    --    136.2540               233.6502               508.1837

                     19                     20                     21
                      A                      A                      A
 Frequencies --   2891.4256              2950.5474              2962.1224
 Red. masses --      1.0984                 1.1042                 1.1126
 Frc consts  --      5.4106                 5.6639                 5.7516
 IR Inten    --    495.6250               532.6450                99.6446

 - Thermochemistry -
 -------------------
 Temperature   298.150 Kelvin.  Pressure   1.00000 Atm.
 Atom     1 has atomic number  6 and mass  12.00000

 Molecular mass:    64.03130 amu.
 Principal axes and moments of inertia in atomic units:
                           1         2         3
     Eigenvalues --   130.54712 356.87120 454.87331
           X            0.99994  -0.00000   0.01075
           Y            0.00000   1.00000  -0.00003
           Z           -0.01075   0.00003   0.99994
 This molecule is an asymmetric top.
 Rotational symmetry number  1.
 Rotational temperatures (Kelvin)      0.66347     0.24270     0.19041
 Rotational constants (GHZ):          13.82444     5.05712     3.96757
 Zero-point vibrational energy     150343.4 (Joules/Mol)
                                   35.93293 (Kcal/Mol)
 Warning -- explicit consideration of   4 degrees of freedom as
           vibrations may cause significant error
 Vibrational temperatures:    328.80   334.59   553.54   812.02   964.73
          (Kelvin)           1016.59  1209.39  1298.56  1322.70  1372.07
                             1378.91  1403.87  1441.60  1589.58  1639.84
                             1700.96  1824.09  3305.33  4160.11  4245.17
                             4261.83

 Zero-point correction=                           0.057263 (Hartree/Particle)
 Thermal correction to Energy=                    0.062277
 Thermal correction to Enthalpy=                  0.063221
 Thermal correction to Gibbs Free Energy=         0.029339
 Sum of electronic and zero-point Energies=           -190.965051
 Sum of electronic and thermal Energies=              -190.960038
 Sum of electronic and thermal Enthalpies=            -190.959093
 Sum of electronic and thermal Free Energies=         -190.992976

                     E (Thermal)             CV                S
                      KCal/Mol        Cal/Mol-Kelvin    Cal/Mol-Kelvin
 Total                   39.079             17.967             71.311
 Electronic               0.000              0.000              1.377
 Translational            0.889              2.981             38.389
 Rotational               0.889              2.981             24.564
 Vibrational             37.302             12.005              6.980
 Vibration     1          0.651              1.797              1.891
 Vibration     2          0.653              1.791              1.859
 Vibration     3          0.754              1.503              1.021
 Vibration     4          0.920              1.108              0.515

 Optimization completed.
    -- Stationary point found.
 Normal termination of Gaussian 09 at Wed Jul 20 07:16:46 2016.
