 Gaussian 09, Revision E.01,
 Gaussian 09:  EM64L-G09RevE.01 30-Nov-2015

 ---------------------------------------------
 #p b3lyp/6-311++G(3df,2p) freq symmetry=Loose
 ---------------------------------------------

 ---------
 b3lyp opt
 ---------
 Symbolic Z-matrix:
 Charge =  2 Multiplicity = 1

                         Standard orientation:
 ---------------------------------------------------------------------
 Center     Atomic      Atomic             Coordinates (Angstroms)
 Number     Number       Type             X           Y           Z
 ---------------------------------------------------------------------
      1          6           0        1.476713   -0.263570   -0.056398
      2          1           0        2.483504   -0.655777    0.110039
      3          6           0        0.634860    0.763108    0.257165
      4          6           0        0.195430   -0.658113   -0.292689
      5          1           0       -1.349616   -0.980231    1.131933
      6          6           0       -0.715651    0.857383   -0.015243
      7          1           0       -1.068536    1.558002   -0.785039
      8          6           0       -1.258508   -0.546153    0.123802
      9          1           0       -2.062415   -0.837929   -0.556755
 ---------------------------------------------------------------------

 SCF Done:  E(RB3LYP) =  -191.935488950     A.U. after   12 cycles

 The electronic state is 1-A.
 Alpha  occ. eigenvalues --  -10.81159 -10.79061 -10.77045 -10.76902 -10.71561
 Alpha  occ. eigenvalues --   -1.51729  -1.31256  -1.18497  -1.05738  -1.02978
 Alpha  occ. eigenvalues --   -0.99298  -0.95920  -0.94041  -0.89585  -0.86074
 Alpha  occ. eigenvalues --   -0.79691
 Alpha virt. eigenvalues --   -0.59704  -0.58038  -0.50262  -0.44791  -0.37578
 Alpha virt. eigenvalues --   -0.32783  -0.31922  -0.29980  -0.27877  -0.27008
 Alpha virt. eigenvalues --   -0.25542  -0.24632  -0.23750  -0.23426  -0.22150

 Mulliken charges:
               1
     1  C    0.346480
     2  H    0.363838
     3  C    0.301864
     4  C    0.229216
     5  H    0.311854
     6  C    0.062871
     7  H    0.277683
     8  C   -0.174477
     9  H    0.280671
 Sum of Mulliken charges =   2.00000

 Dipole moment (field-independent basis, Debye):
    X=              0.0027    Y=             -0.1288    Z=             -0.1937  Tot=              0.2326
 Quadrupole moment (field-independent basis, Debye-Ang):
   XX=             -3.5574   YY=            -16.2421   ZZ=            -21.7045
   XY=             -1.4145   XZ=              0.9475   YZ=             -1.8765

  Exact polarizability:  51.074  -0.375  37.815   0.855   0.539  26.831
 Approx polarizability:  89.715   0.754  76.202   2.802   7.936  43.863

                      1                      2                      3
                      A                      A                      A
 Frequencies --    379.6996               420.0859               508.4989
 Red. masses --      2.8806                 4.5823                 3.5458
 Frc consts  --      0.2447                 0.4764                 0.5402
 IR Inten    --      6.8469                 9.4103                 7.0035

                      4                      5                      6
                      A                      A                      A
 Frequencies --    603.0535               687.1730               843.5854
 Red. masses --      4.4961                 4.2770                 1.3355
 Frc consts  --      0.9634                 1.1899                 0.5599
 IR Inten    --      3.8464                 9.5808                38.8284

                      7                      8                      9
                      A                      A                      A
 Frequencies --    918.1993               933.6659               984.9437
 Red. masses --      1.7786                 1.6367                 1.6107
 Frc consts  --      0.8835                 0.8406                 0.9206
 IR Inten    --      7.8028                 6.5060                18.4353

                     10                     11                     12
                      A                      A                      A
 Frequencies --   1043.3354              1070.4071              1123.5735
 Red. masses --      1.2682                 1.8642                 2.8830
 Frc consts  --      0.8134                 1.2585                 2.1443
 IR Inten    --     19.2212                17.6970                 0.8698

                     13                     14                     15
                      A                      A                      A
 Frequencies --   1149.5220              1224.4926              1329.7511
 Red. masses --      1.2480                 1.3294                 1.8311
 Frc consts  --      0.9716                 1.1744                 1.9077
 IR Inten    --     13.7012                 8.6641                18.1864

                     16                     17                     18
                      A                      A                      A
 Frequencies --   1422.3744              1625.5217              2980.7640
 Red. masses --      1.8944                 6.5970                 1.0627
 Frc consts  --      2.2582                10.2703                 5.5632
 IR Inten    --     31.8647               111.5639               229.5303

                     19                     20                     21
                      A                      A                      A
 Frequencies --   3039.6750              3102.4121              3131.6871
 Red. masses --      1.0932                 1.1084                 1.1260
 Frc consts  --      5.9514                 6.2853                 6.5064
 IR Inten    --    168.1910               131.2990               200.7161

 - Thermochemistry -
 -------------------
 Temperature   298.150 Kelvin.  Pressure   1.00000 Atm.
 Atom     1 has atomic number  6 and mass  12.00000

 Molecular mass:    64.03130 amu.
 Principal axes and moments of inertia in atomic units:
                           1         2         3
     Eigenvalues --   122.26203 264.91580 357.66703
           X            0.99993  -0.00394   0.01128
           Y            0.00477   0.99723  -0.07428
           Z           -0.01096   0.07433   0.99717
 This molecule is an asymmetric top.
 Rotational symmetry number  1.
 Rotational temperatures (Kelvin)      0.70843     0.32695     0.24216
 Rotational constants (GHZ):          14.76126     6.81251     5.04587
 Zero-point vibrational energy     170602.0 (Joules/Mol)
                                   40.77485 (Kcal/Mol)
 Warning -- explicit consideration of   4 degrees of freedom as
           vibrations may cause significant error
 Vibrational temperatures:    546.30   604.41   731.62   867.66   988.69
          (Kelvin)           1213.73  1321.08  1343.34  1417.11  1501.13
                             1540.08  1616.57  1653.90  1761.77  1913.21
                             2046.48  2338.76  4288.65  4373.41  4463.67
                             4505.79

 Zero-point correction=                           0.064979 (Hartree/Particle)
 Thermal correction to Energy=                    0.069266
 Thermal correction to Enthalpy=                  0.070211
 Thermal correction to Gibbs Free Energy=         0.038588
 Sum of electronic and zero-point Energies=           -191.870510
 Sum of electronic and thermal Energies=              -191.866223
 Sum of electronic and thermal Enthalpies=            -191.865278
 Sum of electronic and thermal Free Energies=         -191.896901

                     E (Thermal)             CV                S
                      KCal/Mol        Cal/Mol-Kelvin    Cal/Mol-Kelvin
 Total                   43.465             15.528             66.556
 Electronic               0.000              0.000              0.000
 Translational            0.889              2.981             38.389
 Rotational               0.889              2.981             23.964
 Vibrational             41.688              9.567              4.202
 Vibration     1          0.750              1.513              1.040
 Vibration     2          0.783              1.427              0.892
 Vibration     3          0.864              1.231              0.637
 Vibration     4          0.961              1.025              0.444

 Optimization completed.
    -- Stationary point found.
 Normal termination of Gaussian 09 at Mon Jun 20 08:27:14 2016.
