 Gaussian 09, Revision E.01,
 Gaussian 09:  EM64L-G09RevE.01 30-Nov-2015

 ---------------------------------------------
 #p b3lyp/6-311++G(3df,2p) freq symmetry=Loose
 ---------------------------------------------

 ---------
 b3lyp opt
 ---------
 Symbolic Z-matrix:
 Charge =  1 Multiplicity = 2

                         Standard orientation:
 ---------------------------------------------------------------------
 Center     Atomic      Atomic             Coordinates (Angstroms)
 Number     Number       Type             X           Y           Z
 ---------------------------------------------------------------------
      1          6           0        1.047397    0.158328   -0.000093
      2          6           0        0.000000    1.167903    0.000040
      3          1           0       -0.000069    1.788935   -0.897248
      4          1           0        2.545928   -1.572495   -0.000127
      5          6           0        1.829256   -0.778344   -0.000172
      6          1           0        0.000069    1.788824    0.897391
      7          6           0       -1.047397    0.158328    0.000068
      8          6           0       -1.829256   -0.778344    0.000110
      9          1           0       -2.545928   -1.572495    0.000265
 ---------------------------------------------------------------------

 SCF Done:  E(UB3LYP) =  -192.502544860     A.U. after   14 cycles

 The electronic state is 2-A.
 Alpha  occ. eigenvalues --  -10.45270 -10.45268 -10.44960 -10.44340 -10.44340
 Alpha  occ. eigenvalues --   -1.08561  -1.00730  -0.96598  -0.77789  -0.77071
 Alpha  occ. eigenvalues --   -0.72450  -0.70735  -0.68988  -0.56941  -0.52940
 Alpha  occ. eigenvalues --   -0.52157  -0.51974
 Alpha virt. eigenvalues --   -0.24231  -0.21409  -0.18537  -0.15772  -0.15737
 Alpha virt. eigenvalues --   -0.11741  -0.11636  -0.10100  -0.09960  -0.09601
 Alpha virt. eigenvalues --   -0.06899  -0.06547  -0.06048  -0.05195  -0.04523

  Beta  occ. eigenvalues --  -10.45036 -10.45027 -10.44935 -10.43726 -10.43725
  Beta  occ. eigenvalues --   -1.07692  -0.98552  -0.95034  -0.77101  -0.76431
  Beta  occ. eigenvalues --   -0.71847  -0.70435  -0.68980  -0.52638  -0.52320
  Beta  occ. eigenvalues --   -0.51630
  Beta virt. eigenvalues --   -0.42130  -0.21519  -0.21025  -0.18170  -0.15657
  Beta virt. eigenvalues --   -0.13315  -0.11564  -0.11384  -0.10058  -0.09643
  Beta virt. eigenvalues --   -0.09128  -0.06694  -0.06497  -0.05476  -0.05120

 Mulliken charges and spin densities:
               1          2
     1  C   -0.305488   0.089733
     2  C   -0.502650   0.040343
     3  H    0.223800  -0.004944
     4  H    0.372764  -0.009489
     5  C    0.460242   0.404529
     6  H    0.223814  -0.004944
     7  C   -0.305488   0.089733
     8  C    0.460242   0.404529
     9  H    0.372764  -0.009489
 Sum of Mulliken charges =   1.00000   1.00000

 Dipole moment (field-independent basis, Debye):
    X=              0.0000    Y=             -0.8436    Z=              0.0003  Tot=              0.8436
 Quadrupole moment (field-independent basis, Debye-Ang):
   XX=             -9.7812   YY=            -15.8718   ZZ=            -27.7378
   XY=             -0.0000   XZ=             -0.0014   YZ=             -0.0002

  Exact polarizability: 103.844   0.000  50.992  -0.005   0.000  32.731
 Approx polarizability: 191.775   0.000  88.234  -0.011   0.001  46.303

                      1                      2                      3
                      A                      A                      A
 Frequencies --    132.9958               295.7167               324.0385
 Red. masses --      4.0139                 4.2047                 4.3051
 Frc consts  --      0.0418                 0.2166                 0.2663
 IR Inten    --      0.8549                 0.0000                 9.1207

                      4                      5                      6
                      A                      A                      A
 Frequencies --    333.5012               479.4361               687.6912
 Red. masses --      2.5019                 6.4075                 1.2394
 Frc consts  --      0.1640                 0.8678                 0.3454
 IR Inten    --     20.7604                 5.5148                 0.0000

                      7                      8                      9
                      A                      A                      A
 Frequencies --    689.4561               738.2811               739.0095
 Red. masses --      1.2455                 1.3170                 1.3220
 Frc consts  --      0.3488                 0.4230                 0.4254
 IR Inten    --     91.9008                22.2154                13.0611

                     10                     11                     12
                      A                      A                      A
 Frequencies --    897.6622               960.1773               978.3229
 Red. masses --      3.5278                 1.5831                 5.3491
 Frc consts  --      1.6749                 0.8599                 3.0164
 IR Inten    --      1.6279                 0.4524                 0.6673

                     13                     14                     15
                      A                      A                      A
 Frequencies --   1178.6569              1271.2140              1445.6768
 Red. masses --      1.0951                 1.3681                 1.0891
 Frc consts  --      0.8964                 1.3026                 1.3411
 IR Inten    --      0.0000                 3.9833                12.5303

                     16                     17                     18
                      A                      A                      A
 Frequencies --   2013.0183              2143.1634              3050.4698
 Red. masses --      6.2486                 6.0435                 1.0559
 Frc consts  --     14.9185                16.3550                 5.7890
 IR Inten    --    844.0878                 5.2445                20.2087

                     19                     20                     21
                      A                      A                      A
 Frequencies --   3102.2653              3387.6396              3392.5642
 Red. masses --      1.1085                 1.1503                 1.1589
 Frc consts  --      6.2855                 7.7775                 7.8586
 IR Inten    --     19.7533                76.1030               156.0858

 - Thermochemistry -
 -------------------
 Temperature   298.150 Kelvin.  Pressure   1.00000 Atm.
 Atom     1 has atomic number  6 and mass  12.00000

 Molecular mass:    64.03130 amu.
 Principal axes and moments of inertia in atomic units:
                           1         2         3
     Eigenvalues --   159.14016 433.26009 580.80882
           X            1.00000   0.00000   0.00008
           Y            0.00000   1.00000  -0.00002
           Z           -0.00008   0.00002   1.00000
 This molecule is an asymmetric top.
 Rotational symmetry number  1.
 Rotational temperatures (Kelvin)      0.54426     0.19991     0.14913
 Rotational constants (GHZ):          11.34058     4.16549     3.10729
 Zero-point vibrational energy     168918.4 (Joules/Mol)
                                   40.37247 (Kcal/Mol)
 Warning -- explicit consideration of   5 degrees of freedom as
           vibrations may cause significant error
 Vibrational temperatures:    191.35   425.47   466.22   479.83   689.80
          (Kelvin)            989.43   991.97  1062.22  1063.27  1291.53
                             1381.48  1407.59  1695.82  1828.99  2080.00
                             2896.28  3083.53  4388.94  4463.46  4874.05
                             4881.14

 Zero-point correction=                           0.064338 (Hartree/Particle)
 Thermal correction to Energy=                    0.069886
 Thermal correction to Enthalpy=                  0.070830
 Thermal correction to Gibbs Free Energy=         0.035593
 Sum of electronic and zero-point Energies=           -192.438207
 Sum of electronic and thermal Energies=              -192.432659
 Sum of electronic and thermal Enthalpies=            -192.431715
 Sum of electronic and thermal Free Energies=         -192.466952

                     E (Thermal)             CV                S
                      KCal/Mol        Cal/Mol-Kelvin    Cal/Mol-Kelvin
 Total                   43.854             19.131             74.163
 Electronic               0.000              0.000              1.377
 Translational            0.889              2.981             38.389
 Rotational               0.889              2.981             25.196
 Vibrational             42.077             13.169              9.200
 Vibration     1          0.613              1.920              2.902
 Vibration     2          0.690              1.682              1.441
 Vibration     3          0.709              1.627              1.290
 Vibration     4          0.715              1.609              1.243
 Vibration     5          0.836              1.296              0.712

 Optimization completed.
    -- Stationary point found.
 Normal termination of Gaussian 09 at Wed Jul 20 04:02:44 2016.
