 Gaussian 09, Revision E.01,
 Gaussian 09:  EM64L-G09RevE.01 30-Nov-2015

 ---------------------------------------------
 #p b3lyp/6-311++G(3df,2p) freq symmetry=Loose
 ---------------------------------------------

 ---------
 b3lyp opt
 ---------
 Symbolic Z-matrix:
 Charge =  3 Multiplicity = 4

                         Standard orientation:
 ---------------------------------------------------------------------
 Center     Atomic      Atomic             Coordinates (Angstroms)
 Number     Number       Type             X           Y           Z
 ---------------------------------------------------------------------
      1          6           0        1.393529    0.236133    0.000000
      2          6           0       -2.190828   -1.096175   -0.000000
      3          1           0        1.855767   -0.810398    0.000000
      4          1           0       -2.679940   -1.415608    0.956476
      5          1           0       -2.679940   -1.415608   -0.956476
      6          6           0        2.472846    1.008193    0.000000
      7          6           0       -1.037492   -0.353377   -0.000000
      8          6           0        0.000000    0.543758   -0.000000
      9          1           0       -0.324220    1.610427   -0.000000
 ---------------------------------------------------------------------

 SCF Done:  E(UB3LYP) =  -191.066039146     A.U. after   17 cycles

 The electronic state is 4-A".
 Alpha  occ. eigenvalues --  -11.08121 -11.00093 -10.94366 -10.94139 -10.93337
 Alpha  occ. eigenvalues --   -1.55776  -1.51168  -1.42688  -1.27552  -1.20891
 Alpha  occ. eigenvalues --   -1.16181  -1.13181  -1.11729  -1.08734  -1.05364
 Alpha  occ. eigenvalues --   -1.00129  -0.97383
 Alpha virt. eigenvalues --   -0.82698  -0.76723  -0.72044  -0.63171  -0.52603
 Alpha virt. eigenvalues --   -0.50384  -0.45283  -0.44660  -0.42721  -0.41750
 Alpha virt. eigenvalues --   -0.41489  -0.38784  -0.38130  -0.37171  -0.36402

  Beta  occ. eigenvalues --  -11.05058 -10.98562 -10.94022 -10.93971 -10.92730
  Beta  occ. eigenvalues --   -1.53153  -1.46689  -1.39753  -1.24889  -1.19374
  Beta  occ. eigenvalues --   -1.14660  -1.09750  -1.09180  -1.01537
  Beta virt. eigenvalues --   -0.87258  -0.86241  -0.86136  -0.77919  -0.70456
  Beta virt. eigenvalues --   -0.65512  -0.59519  -0.51000  -0.49711  -0.43827
  Beta virt. eigenvalues --   -0.43124  -0.42023  -0.41258  -0.41202  -0.38071

 Mulliken charges and spin densities:
               1          2
     1  C    0.418511   0.120101
     2  C   -0.151139   0.397490
     3  H    0.294864  -0.004858
     4  H    0.354525   0.022092
     5  H    0.354525   0.022092
     6  C    0.366209   1.335191
     7  C    0.828096   0.952693
     8  C    0.248034   0.129836
     9  H    0.286375   0.025364
 Sum of Mulliken charges =   3.00000   3.00000

 Dipole moment (field-independent basis, Debye):
    X=              0.3437    Y=             -0.6607    Z=             -0.0000  Tot=              0.7447
 Quadrupole moment (field-independent basis, Debye-Ang):
   XX=             40.5650   YY=             -4.6898   ZZ=            -21.0007
   XY=             23.0287   XZ=             -0.0000   YZ=             -0.0000

  Exact polarizability:  93.555  26.733  43.531  -0.000  -0.000  25.946
 Approx polarizability: 152.623  49.636  73.394  -0.000   0.000  36.279

                      1                      2                      3
                     A"                     A'                     A'
 Frequencies --    160.5293               180.3318               336.1788
 Red. masses --      3.6465                 4.4728                 6.3382
 Frc consts  --      0.0554                 0.0857                 0.4220
 IR Inten    --      8.1124                11.8753                 4.5065

                      4                      5                      6
                     A"                     A"                     A'
 Frequencies --    361.9075               426.5893               481.5359
 Red. masses --      2.2278                 1.2051                 5.3388
 Frc consts  --      0.1719                 0.1292                 0.7294
 IR Inten    --      5.5454                 0.5598                 3.6475

                      7                      8                      9
                     A"                     A'                     A"
 Frequencies --    694.4846               813.9932               823.2566
 Red. masses --      1.5443                 4.2054                 1.3363
 Frc consts  --      0.4388                 1.6417                 0.5336
 IR Inten    --     49.9089                14.9113                 8.3277

                     10                     11                     12
                     A"                     A'                     A'
 Frequencies --    879.8238               967.0367               984.8300
 Red. masses --      1.6931                 1.3942                 1.3952
 Frc consts  --      0.7722                 0.7682                 0.7973
 IR Inten    --     16.5549                34.0998                37.8436

                     13                     14                     15
                     A'                     A'                     A'
 Frequencies --   1123.5395              1265.0245              1292.9785
 Red. masses --      2.3724                 1.0968                 1.5148
 Frc consts  --      1.7644                 1.0341                 1.4921
 IR Inten    --     21.2658               230.3360                13.0858

                     16                     17                     18
                     A'                     A'                     A'
 Frequencies --   1440.5145              1693.5230              2616.0922
 Red. masses --      5.8780                10.3436                 1.0771
 Frc consts  --      7.1865                17.4784                 4.3434
 IR Inten    --    225.5906               109.7733               385.7303

                     19                     20                     21
                     A'                     A'                     A"
 Frequencies --   2766.0107              2849.2414              2852.3470
 Red. masses --      1.0454                 1.0825                 1.1163
 Frc consts  --      4.7125                 5.1777                 5.3511
 IR Inten    --   1128.3614               286.8776               343.2250

 - Thermochemistry -
 -------------------
 Temperature   298.150 Kelvin.  Pressure   1.00000 Atm.
 Atom     1 has atomic number  6 and mass  12.00000

 Molecular mass:    64.03130 amu.
 Principal axes and moments of inertia in atomic units:
                           1         2         3
     Eigenvalues --    40.75572 774.50356 802.08913
           X            0.92408  -0.38220   0.00000
           Y            0.38220   0.92408   0.00000
           Z           -0.00000  -0.00000   1.00000
 This molecule is an asymmetric top.
 Rotational symmetry number  1.
 Rotational temperatures (Kelvin)      2.12519     0.11183     0.10799
 Rotational constants (GHZ):          44.28191     2.33019     2.25005
 Zero-point vibrational energy     149591.6 (Joules/Mol)
                                   35.75326 (Kcal/Mol)
 Warning -- explicit consideration of   6 degrees of freedom as
           vibrations may cause significant error
 Vibrational temperatures:    230.97   259.46   483.69   520.70   613.77
          (Kelvin)            692.82   999.21  1171.15  1184.48  1265.87
                             1391.35  1416.95  1616.52  1820.09  1860.31
                             2072.58  2436.60  3763.97  3979.67  4099.42
                             4103.89

 Zero-point correction=                           0.056976 (Hartree/Particle)
 Thermal correction to Energy=                    0.062730
 Thermal correction to Enthalpy=                  0.063674
 Thermal correction to Gibbs Free Energy=         0.027628
 Sum of electronic and zero-point Energies=           -191.009063
 Sum of electronic and thermal Energies=              -191.003309
 Sum of electronic and thermal Enthalpies=            -191.002365
 Sum of electronic and thermal Free Energies=         -191.038411

                     E (Thermal)             CV                S
                      KCal/Mol        Cal/Mol-Kelvin    Cal/Mol-Kelvin
 Total                   39.364             19.704             75.866
 Electronic               0.000              0.000              2.755
 Translational            0.889              2.981             38.389
 Rotational               0.889              2.981             24.741
 Vibrational             37.586             13.743              9.981
 Vibration     1          0.622              1.891              2.544
 Vibration     2          0.629              1.866              2.325
 Vibration     3          0.717              1.603              1.230
 Vibration     4          0.736              1.551              1.114
 Vibration     5          0.788              1.412              0.870
 Vibration     6          0.838              1.291              0.706

 Optimization completed.
    -- Stationary point found.
 Normal termination of Gaussian 09 at Wed Jul 20 19:12:54 2016.
