 Gaussian 09, Revision E.01,
 Gaussian 09:  EM64L-G09RevE.01 30-Nov-2015

 ---------------------------------------------
 #p b3lyp/6-311++G(3df,2p) freq symmetry=Loose
 ---------------------------------------------

 ---------
 b3lyp opt
 ---------
 Symbolic Z-matrix:
 Charge =  0 Multiplicity = 3

                         Standard orientation:
 ---------------------------------------------------------------------
 Center     Atomic      Atomic             Coordinates (Angstroms)
 Number     Number       Type             X           Y           Z
 ---------------------------------------------------------------------
      1          6           0       -2.697080   -0.132272   -0.000410
      2          6           0       -1.450148   -0.037410   -0.000219
      3          6           0        2.259371    0.053464    0.000341
      4          1           0        3.098368   -0.626579    0.000442
      5          1           0        2.479730    1.113002    0.000414
      6          6           0        0.982188   -0.405100    0.000132
      7          1           0        0.807989   -1.475044    0.000066
      8          6           0       -0.156097    0.434356   -0.000007
      9          1           0       -0.015494    1.510395    0.000055
 ---------------------------------------------------------------------

 SCF Done:  E(UB3LYP) =  -192.766623025     A.U. after   21 cycles

 The electronic state is 3-A.
 Alpha  occ. eigenvalues --  -10.23753 -10.22010 -10.21889 -10.20229 -10.19310
 Alpha  occ. eigenvalues --   -0.84787  -0.79153  -0.71825  -0.59781  -0.54200
 Alpha  occ. eigenvalues --   -0.47686  -0.43996  -0.39210  -0.38411  -0.37710
 Alpha  occ. eigenvalues --   -0.31421  -0.31163  -0.21664
 Alpha virt. eigenvalues --   -0.02158  -0.01812  -0.00085   0.00865   0.02444
 Alpha virt. eigenvalues --    0.04532   0.04533   0.05084   0.05701   0.07347
 Alpha virt. eigenvalues --    0.08245   0.08369   0.08912   0.10952   0.11133

  Beta  occ. eigenvalues --  -10.21802 -10.21631 -10.21194 -10.20467 -10.18668
  Beta  occ. eigenvalues --   -0.83382  -0.76970  -0.68852  -0.58978  -0.53394
  Beta  occ. eigenvalues --   -0.46999  -0.43252  -0.38811  -0.35738  -0.29473
  Beta  occ. eigenvalues --   -0.28633
  Beta virt. eigenvalues --   -0.19690  -0.11201  -0.00869  -0.00025   0.00475
  Beta virt. eigenvalues --    0.01266   0.03190   0.04671   0.05008   0.05770
  Beta virt. eigenvalues --    0.06555   0.07494   0.08401   0.09272   0.09727

 Mulliken charges and spin densities:
               1          2
     1  C   -0.415350   1.210825
     2  C    0.501757   0.003713
     3  C   -0.516398   0.493343
     4  H    0.167822  -0.016329
     5  H    0.135628  -0.012184
     6  C    0.000654  -0.224900
     7  H    0.150560   0.004301
     8  C   -0.167701   0.552637
     9  H    0.143028  -0.011406
 Sum of Mulliken charges =  -0.00000   2.00000

 Dipole moment (field-independent basis, Debye):
    X=              2.1405    Y=             -0.1070    Z=              0.0003  Tot=              2.1431
 Quadrupole moment (field-independent basis, Debye-Ang):
   XX=            -32.8282   YY=            -27.3366   ZZ=            -33.0084
   XY=              1.2879   XZ=              0.0001   YZ=              0.0004

  Exact polarizability: 162.135   0.305  46.938   0.018   0.000  42.064
 Approx polarizability: 216.635   3.412  67.377   0.024   0.001  56.819

                      1                      2                      3
                      A                      A                      A
 Frequencies --    153.2930               160.1117               385.5066
 Red. masses --      4.1190                 5.2542                 5.8945
 Frc consts  --      0.0570                 0.0794                 0.5161
 IR Inten    --      0.0483                32.7863                 0.2159

                      4                      5                      6
                      A                      A                      A
 Frequencies --    387.2340               527.8608               597.7355
 Red. masses --      2.9822                 6.3262                 1.1748
 Frc consts  --      0.2635                 1.0386                 0.2473
 IR Inten    --     60.1333                11.3954                 5.6224

                      7                      8                      9
                      A                      A                      A
 Frequencies --    757.7777               870.8071               883.0277
 Red. masses --      1.6112                 3.1213                 1.3901
 Frc consts  --      0.5451                 1.3946                 0.6386
 IR Inten    --      3.2309               766.1921                44.1493

                     10                     11                     12
                      A                      A                      A
 Frequencies --   1006.4570              1015.0506              1182.6050
 Red. masses --      1.1513                 1.7025                 1.8891
 Frc consts  --      0.6871                 1.0335                 1.5566
 IR Inten    --     20.1189               684.8796                97.7486

                     13                     14                     15
                      A                      A                      A
 Frequencies --   1263.5704              1297.4418              1386.3658
 Red. masses --      2.6393                 1.5123                 3.3489
 Frc consts  --      2.4827                 1.4999                 3.7923
 IR Inten    --    674.4777                16.2309               804.1714

                     16                     17                     18
                      A                      A                      A
 Frequencies --   1455.6134              1554.9543              3134.1041
 Red. masses --      1.5098                 2.0009                 1.0815
 Frc consts  --      1.8848                 2.8504                 6.2591
 IR Inten    --     22.7440                44.1496                 2.2204

                     19                     20                     21
                      A                      A                      A
 Frequencies --   3141.2263              3153.4663              3234.3501
 Red. masses --      1.0594                 1.0894                 1.1161
 Frc consts  --      6.1593                 6.3829                 6.8793
 IR Inten    --      4.5564                 4.5842                 5.6694

 - Thermochemistry -
 -------------------
 Temperature   298.150 Kelvin.  Pressure   1.00000 Atm.
 Atom     1 has atomic number  6 and mass  12.00000

 Molecular mass:    64.03130 amu.
 Principal axes and moments of inertia in atomic units:
                           1         2         3
     Eigenvalues --    37.94462 719.77977 757.72440
           X            1.00000  -0.00179  -0.00015
           Y            0.00179   1.00000  -0.00004
           Z            0.00015   0.00004   1.00000
 This molecule is an asymmetric top.
 Rotational symmetry number  1.
 Rotational temperatures (Kelvin)      2.28264     0.12033     0.11431
 Rotational constants (GHZ):          47.56250     2.50735     2.38179
 Zero-point vibrational energy     164777.0 (Joules/Mol)
                                   39.38264 (Kcal/Mol)
 Warning -- explicit consideration of   6 degrees of freedom as
           vibrations may cause significant error
 Vibrational temperatures:    220.55   230.36   554.66   557.14   759.47
          (Kelvin)            860.01  1090.27  1252.90  1270.48  1448.07
                             1460.43  1701.50  1817.99  1866.73  1994.67
                             2094.30  2237.23  4509.27  4519.52  4537.13
                             4653.50

 Zero-point correction=                           0.062760 (Hartree/Particle)
 Thermal correction to Energy=                    0.068208
 Thermal correction to Enthalpy=                  0.069152
 Thermal correction to Gibbs Free Energy=         0.033877
 Sum of electronic and zero-point Energies=           -192.703863
 Sum of electronic and thermal Energies=              -192.698415
 Sum of electronic and thermal Enthalpies=            -192.697471
 Sum of electronic and thermal Free Energies=         -192.732746

                     E (Thermal)             CV                S
                      KCal/Mol        Cal/Mol-Kelvin    Cal/Mol-Kelvin
 Total                   42.801             18.287             74.242
 Electronic               0.000              0.000              2.183
 Translational            0.889              2.981             38.389
 Rotational               0.889              2.981             24.541
 Vibrational             41.023             12.326              9.130
 Vibration     1          0.619              1.899              2.631
 Vibration     2          0.622              1.891              2.548
 Vibration     3          0.754              1.501              1.017
 Vibration     4          0.756              1.497              1.011
 Vibration     5          0.883              1.188              0.592
 Vibration     6          0.956              1.037              0.454

 Optimization completed.
    -- Stationary point found.
 Normal termination of Gaussian 09 at Wed Jul 20 07:53:13 2016.
