 Gaussian 09, Revision E.01,
 Gaussian 09:  EM64L-G09RevE.01 30-Nov-2015

 ---------------------------------------------
 #p b3lyp/6-311++G(3df,2p) freq symmetry=Loose
 ---------------------------------------------

 ---------
 b3lyp opt
 ---------
 Symbolic Z-matrix:
 Charge =  1 Multiplicity = 2

                         Standard orientation:
 ---------------------------------------------------------------------
 Center     Atomic      Atomic             Coordinates (Angstroms)
 Number     Number       Type             X           Y           Z
 ---------------------------------------------------------------------
      1          6           0        1.114272    1.179323    0.000000
      2          6           0       -0.022506   -2.001746    0.000000
      3          1           0        1.059506   -2.032715    0.000000
      4          1           0       -0.546570   -2.948360    0.000000
      5          6           0       -0.701774   -0.840464    0.000000
      6          1           0       -1.783523   -0.803560    0.000000
      7          6           0        0.000000    0.381830    0.000000
      8          6           0       -0.060116    1.801034    0.000000
      9          1           0       -0.708670    2.664774    0.000000
 ---------------------------------------------------------------------

 SCF Done:  E(UB3LYP) =  -192.522986486     A.U. after   16 cycles

 The electronic state is 2-A'.
 Alpha  occ. eigenvalues --  -10.50219 -10.49823 -10.48819 -10.41561 -10.40996
 Alpha  occ. eigenvalues --   -1.20158  -1.02292  -0.87035  -0.83387  -0.74262
 Alpha  occ. eigenvalues --   -0.72577  -0.65900  -0.65208  -0.64321  -0.59325
 Alpha  occ. eigenvalues --   -0.52451  -0.51223
 Alpha virt. eigenvalues --   -0.30542  -0.26499  -0.16112  -0.14601  -0.13768
 Alpha virt. eigenvalues --   -0.12603  -0.10614  -0.09671  -0.09236  -0.07694
 Alpha virt. eigenvalues --   -0.06825  -0.05432  -0.04876  -0.04662  -0.04417

  Beta  occ. eigenvalues --  -10.49925 -10.48624 -10.48321 -10.41550 -10.40995
  Beta  occ. eigenvalues --   -1.19008  -1.02096  -0.86624  -0.82436  -0.73726
  Beta  occ. eigenvalues --   -0.69850  -0.64631  -0.64448  -0.62514  -0.59000
  Beta  occ. eigenvalues --   -0.51080
  Beta virt. eigenvalues --   -0.37969  -0.30381  -0.24834  -0.15627  -0.14406
  Beta virt. eigenvalues --   -0.13627  -0.12246  -0.10458  -0.09653  -0.09118
  Beta virt. eigenvalues --   -0.07440  -0.06045  -0.05409  -0.04824  -0.04283

 Mulliken charges and spin densities:
               1          2
     1  C    0.236304   0.853746
     2  C   -0.500938  -0.006161
     3  H    0.193457   0.001852
     4  H    0.230753   0.001970
     5  C   -0.187681   0.045283
     6  H    0.212388   0.005615
     7  C    0.336581  -0.011920
     8  C    0.159696   0.104436
     9  H    0.319441   0.005179
 Sum of Mulliken charges =   1.00000   1.00000

 Dipole moment (field-independent basis, Debye):
    X=             -0.7885    Y=              0.9990    Z=              0.0000  Tot=              1.2727
 Quadrupole moment (field-independent basis, Debye-Ang):
   XX=            -22.5655   YY=             -6.9765   ZZ=            -27.9131
   XY=             -0.7637   XZ=              0.0000   YZ=              0.0000

  Exact polarizability:  45.644   2.656  77.543   0.000  -0.000  29.662
 Approx polarizability:  75.749   0.177 123.827  -0.000  -0.000  44.140

                      1                      2                      3
                     A"                     A'                     A"
 Frequencies --    136.2162               223.5034               381.6004
 Red. masses --      2.9277                 3.3627                 1.9269
 Frc consts  --      0.0320                 0.0990                 0.1653
 IR Inten    --      8.3483                 2.6479                 3.1632

                      4                      5                      6
                     A'                     A"                     A'
 Frequencies --    511.6353               684.5471               806.1753
 Red. masses --      3.1899                 2.0087                 2.8021
 Frc consts  --      0.4920                 0.5546                 1.0730
 IR Inten    --      4.7546                 1.0671                 0.4682

                      7                      8                      9
                     A"                     A'                     A"
 Frequencies --    888.2357               949.7035               991.7354
 Red. masses --      1.4439                 1.3302                 1.0951
 Frc consts  --      0.6712                 0.7069                 0.6346
 IR Inten    --     27.0695                19.8028                30.0801

                     10                     11                     12
                     A'                     A"                     A'
 Frequencies --   1074.8309              1088.7667              1133.7948
 Red. masses --      1.6960                 1.3696                 4.7697
 Frc consts  --      1.1544                 0.9566                 3.6125
 IR Inten    --      3.2529                15.2428                76.6089

                     13                     14                     15
                     A'                     A'                     A'
 Frequencies --   1323.2222              1421.5361              1458.7417
 Red. masses --      1.3410                 2.5386                 2.0142
 Frc consts  --      1.3834                 3.0224                 2.5253
 IR Inten    --     12.7215                60.6369               240.1873

                     16                     17                     18
                     A'                     A'                     A'
 Frequencies --   1621.7532              1736.3754              3149.3851
 Red. masses --      2.9222                 8.7288                 1.0598
 Frc consts  --      4.5282                15.5057                 6.1934
 IR Inten    --     71.5777               139.9438                 4.1450

                     19                     20                     21
                     A'                     A'                     A'
 Frequencies --   3181.4161              3247.0260              3247.7480
 Red. masses --      1.0928                 1.1195                 1.1185
 Frc consts  --      6.5167                 6.9539                 6.9509
 IR Inten    --      9.2539                 8.8173                94.0617

 - Thermochemistry -
 -------------------
 Temperature   298.150 Kelvin.  Pressure   1.00000 Atm.
 Atom     1 has atomic number  6 and mass  12.00000

 Molecular mass:    64.03130 amu.
 Principal axes and moments of inertia in atomic units:
                           1         2         3
     Eigenvalues --    78.65804 494.31842 572.97646
           X            0.18343   0.98303   0.00000
           Y            0.98303  -0.18343   0.00000
           Z            0.00000  -0.00000   1.00000
 This molecule is an asymmetric top.
 Rotational symmetry number  1.
 Rotational temperatures (Kelvin)      1.10114     0.17522     0.15116
 Rotational constants (GHZ):          22.94414     3.65097     3.14976
 Zero-point vibrational energy     175001.4 (Joules/Mol)
                                   41.82634 (Kcal/Mol)
 Warning -- explicit consideration of   4 degrees of freedom as
           vibrations may cause significant error
 Vibrational temperatures:    195.98   321.57   549.04   736.13   984.91
          (Kelvin)           1159.90  1277.97  1366.41  1426.88  1546.44
                             1566.49  1631.28  1903.82  2045.27  2098.80
                             2333.34  2498.25  4531.26  4577.34  4671.74
                             4672.78

 Zero-point correction=                           0.066655 (Hartree/Particle)
 Thermal correction to Energy=                    0.071661
 Thermal correction to Enthalpy=                  0.072605
 Thermal correction to Gibbs Free Energy=         0.038410
 Sum of electronic and zero-point Energies=           -192.456332
 Sum of electronic and thermal Energies=              -192.451326
 Sum of electronic and thermal Enthalpies=            -192.450382
 Sum of electronic and thermal Free Energies=         -192.484577

                     E (Thermal)             CV                S
                      KCal/Mol        Cal/Mol-Kelvin    Cal/Mol-Kelvin
 Total                   44.968             16.503             71.970
 Electronic               0.000              0.000              1.377
 Translational            0.889              2.981             38.389
 Rotational               0.889              2.981             24.614
 Vibrational             43.190             10.541              7.589
 Vibration     1          0.614              1.917              2.856
 Vibration     2          0.649              1.805              1.931
 Vibration     3          0.751              1.509              1.033
 Vibration     4          0.867              1.224              0.630

 Optimization completed.
    -- Stationary point found.
 Normal termination of Gaussian 09 at Mon Jun 20 04:52:36 2016.
