 Gaussian 09, Revision E.01,
 Gaussian 09:  EM64L-G09RevE.01 30-Nov-2015

 ---------------------------------------------
 #p b3lyp/6-311++G(3df,2p) freq symmetry=Loose
 ---------------------------------------------

 ---------
 b3lyp opt
 ---------
 Symbolic Z-matrix:
 Charge =  1 Multiplicity = 4

                         Standard orientation:
 ---------------------------------------------------------------------
 Center     Atomic      Atomic             Coordinates (Angstroms)
 Number     Number       Type             X           Y           Z
 ---------------------------------------------------------------------
      1          6           0        0.000000   -0.000000    1.236153
      2          6           0       -0.000007    1.167650    0.448943
      3          1           0       -0.000012    2.191896    0.790073
      4          6           0        0.000013    0.710587   -0.902311
      5          1           0        0.000026    1.343173   -1.778326
      6          6           0       -0.000013   -0.710587   -0.902311
      7          1           0       -0.000026   -1.343173   -1.778326
      8          6           0        0.000007   -1.167650    0.448943
      9          1           0        0.000012   -2.191896    0.790073
 ---------------------------------------------------------------------

 SCF Done:  E(UB3LYP) =  -192.527661427     A.U. after   13 cycles

 The electronic state is 4-B.
 Alpha  occ. eigenvalues --  -10.47969 -10.45810 -10.45805 -10.45530 -10.45487
 Alpha  occ. eigenvalues --   -1.15276  -0.97940  -0.96690  -0.80406  -0.79369
 Alpha  occ. eigenvalues --   -0.75038  -0.66142  -0.65708  -0.64636  -0.64011
 Alpha  occ. eigenvalues --   -0.52005  -0.50019  -0.49966
 Alpha virt. eigenvalues --   -0.22158  -0.21807  -0.15016  -0.12374  -0.11817
 Alpha virt. eigenvalues --   -0.11502  -0.10302  -0.10249  -0.08874  -0.05798
 Alpha virt. eigenvalues --   -0.05334  -0.04240  -0.04156  -0.02640  -0.02308

  Beta  occ. eigenvalues --  -10.45709 -10.45112 -10.45107 -10.44844 -10.44803
  Beta  occ. eigenvalues --   -1.12063  -0.95159  -0.92892  -0.78484  -0.77770
  Beta  occ. eigenvalues --   -0.72089  -0.65063  -0.63643  -0.62637  -0.58490
  Beta virt. eigenvalues --   -0.39057  -0.38009  -0.33398  -0.16371  -0.14818
  Beta virt. eigenvalues --   -0.14625  -0.12246  -0.11441  -0.10629  -0.09977
  Beta virt. eigenvalues --   -0.09745  -0.08245  -0.05263  -0.04724  -0.04111

 Mulliken charges and spin densities:
               1          2
     1  C    0.376081   1.389442
     2  C   -0.209088   0.388476
     3  H    0.254913  -0.010668
     4  C    0.017762   0.435380
     5  H    0.248373  -0.007908
     6  C    0.017762   0.435380
     7  H    0.248373  -0.007908
     8  C   -0.209088   0.388476
     9  H    0.254913  -0.010668
 Sum of Mulliken charges =   1.00000   3.00000

 Dipole moment (field-independent basis, Debye):
    X=             -0.0000    Y=             -0.0000    Z=             -0.8369  Tot=              0.8369
 Quadrupole moment (field-independent basis, Debye-Ang):
   XX=            -27.9802   YY=            -14.8214   ZZ=            -19.7010
   XY=              0.0000   XZ=             -0.0000   YZ=              0.0000

  Exact polarizability:  28.720   0.000  57.089  -0.000   0.000  52.704
 Approx polarizability:  43.437   0.000  97.616   0.000   0.000  92.039

                      1                      2                      3
                      A                      B                      B
 Frequencies --    401.4957               482.2941               724.5264
 Red. masses --      2.1405                 2.5283                 1.2314
 Frc consts  --      0.2033                 0.3465                 0.3809
 IR Inten    --      0.0000                 8.4911                63.0047

                      4                      5                      6
                      B                      A                      A
 Frequencies --    816.0304               818.9094               850.8504
 Red. masses --      5.6053                 6.0725                 1.2778
 Frc consts  --      2.1992                 2.3993                 0.5450
 IR Inten    --      1.2617                 0.2134                 0.0000

                      7                      8                      9
                      B                      A                      A
 Frequencies --    894.7817               939.0794               982.7561
 Red. masses --      1.5088                 1.6397                 1.8444
 Frc consts  --      0.7117                 0.8520                 1.0495
 IR Inten    --      0.5841                 0.0000                 0.2872

                     10                     11                     12
                      B                      A                      A
 Frequencies --   1021.9107              1109.2357              1134.9484
 Red. masses --      1.7158                 1.1895                 6.4760
 Frc consts  --      1.0557                 0.8623                 4.9148
 IR Inten    --      5.1328                 0.4700                 0.1984

                     13                     14                     15
                      B                      A                      B
 Frequencies --   1233.6828              1366.0427              1373.6014
 Red. masses --      1.4693                 2.5749                 1.8249
 Frc consts  --      1.3176                 2.8310                 2.0287
 IR Inten    --     10.9991                49.0598                69.9912

                     16                     17                     18
                      B                      A                      B
 Frequencies --   1403.9925              1421.7635              3214.4721
 Red. masses --      6.0366                 2.9838                 1.0916
 Frc consts  --      7.0109                 3.5536                 6.6458
 IR Inten    --      4.6252                34.1322                 1.9970

                     19                     20                     21
                      A                      B                      A
 Frequencies --   3223.4871              3233.6988              3238.7504
 Red. masses --      1.0949                 1.0946                 1.1034
 Frc consts  --      6.7029                 6.7438                 6.8196
 IR Inten    --     27.3949                54.4844                 0.0249

 - Thermochemistry -
 -------------------
 Temperature   298.150 Kelvin.  Pressure   1.00000 Atm.
 Atom     1 has atomic number  6 and mass  12.00000

 Molecular mass:    64.03130 amu.
 Principal axes and moments of inertia in atomic units:
                           1         2         3
     Eigenvalues --   179.57665 207.69525 387.27190
           X            0.00000   0.00000   1.00000
           Y            1.00000   0.00000  -0.00000
           Z           -0.00000   1.00000  -0.00000
 This molecule is an asymmetric top.
 Rotational symmetry number  2.
 Rotational temperatures (Kelvin)      0.48232     0.41702     0.22365
 Rotational constants (GHZ):          10.04998     8.68937     4.66014
 Zero-point vibrational energy     178759.8 (Joules/Mol)
                                   42.72462 (Kcal/Mol)
 Warning -- explicit consideration of   2 degrees of freedom as
           vibrations may cause significant error
 Vibrational temperatures:    577.66   693.91  1042.43  1174.08  1178.23
          (Kelvin)           1224.18  1287.39  1351.12  1413.97  1470.30
                             1595.94  1632.94  1774.99  1965.43  1976.30
                             2020.03  2045.60  4624.90  4637.87  4652.57
                             4659.83

 Zero-point correction=                           0.068086 (Hartree/Particle)
 Thermal correction to Energy=                    0.072045
 Thermal correction to Enthalpy=                  0.072990
 Thermal correction to Gibbs Free Energy=         0.041099
 Sum of electronic and zero-point Energies=           -192.459575
 Sum of electronic and thermal Energies=              -192.455616
 Sum of electronic and thermal Enthalpies=            -192.454672
 Sum of electronic and thermal Free Energies=         -192.486562

                     E (Thermal)             CV                S
                      KCal/Mol        Cal/Mol-Kelvin    Cal/Mol-Kelvin
 Total                   45.209             14.167             67.119
 Electronic               0.000              0.000              2.755
 Translational            0.889              2.981             38.389
 Rotational               0.889              2.981             22.806
 Vibrational             43.432              8.206              3.169
 Vibration     1          0.767              1.467              0.957
 Vibration     2          0.839              1.289              0.704

 Optimization completed.
    -- Stationary point found.
 Normal termination of Gaussian 09 at Wed Jul 20 22:35:07 2016.
