 Gaussian 09, Revision E.01,
 Gaussian 09:  EM64L-G09RevE.01 30-Nov-2015

 ---------------------------------------------
 #p b3lyp/6-311++G(3df,2p) freq symmetry=Loose
 ---------------------------------------------

 ---------
 b3lyp opt
 ---------
 Symbolic Z-matrix:
 Charge =  0 Multiplicity = 3

                         Standard orientation:
 ---------------------------------------------------------------------
 Center     Atomic      Atomic             Coordinates (Angstroms)
 Number     Number       Type             X           Y           Z
 ---------------------------------------------------------------------
      1          6           0        0.201958    0.931115    0.000550
      2          6           0       -1.047763    0.190280   -0.000088
      3          6           0        1.461829    0.070133   -0.000795
      4          1           0        0.240044    1.589606   -0.873858
      5          1           0        0.240157    1.587441    0.876578
      6          1           0       -2.988336   -0.969353   -0.000571
      7          1           0        2.404075    0.623332   -0.002411
      8          6           0       -2.077294   -0.424249   -0.000270
      9          6           0        1.478613   -1.239117    0.000646
 ---------------------------------------------------------------------

 SCF Done:  E(UB3LYP) =  -192.712129383     A.U. after   19 cycles

 The electronic state is 3-A.
 Alpha  occ. eigenvalues --  -10.23856 -10.21779 -10.21176 -10.18279 -10.17073
 Alpha  occ. eigenvalues --   -0.83547  -0.76407  -0.71054  -0.56995  -0.52517
 Alpha  occ. eigenvalues --   -0.47253  -0.46163  -0.45003  -0.38310  -0.30081
 Alpha  occ. eigenvalues --   -0.28706  -0.28217  -0.22669
 Alpha virt. eigenvalues --   -0.01150  -0.01012   0.00782   0.01324   0.02360
 Alpha virt. eigenvalues --    0.02499   0.04110   0.04700   0.06799   0.07149
 Alpha virt. eigenvalues --    0.08141   0.08555   0.08891   0.10901   0.11579

  Beta  occ. eigenvalues --  -10.21569 -10.21197 -10.20545 -10.18276 -10.17039
  Beta  occ. eigenvalues --   -0.82476  -0.75058  -0.69105  -0.55459  -0.51370
  Beta  occ. eigenvalues --   -0.46172  -0.45235  -0.43488  -0.29099  -0.28682
  Beta  occ. eigenvalues --   -0.27319
  Beta virt. eigenvalues --   -0.17714  -0.05492  -0.00662   0.00849   0.01144
  Beta virt. eigenvalues --    0.01326   0.02553   0.02667   0.04228   0.05340
  Beta virt. eigenvalues --    0.07274   0.07299   0.08576   0.08871   0.09014

 Mulliken charges and spin densities:
               1          2
     1  C   -0.510099   0.015191
     2  C   -0.299734  -0.006306
     3  C   -0.143963  -0.284187
     4  H    0.170686  -0.004315
     5  H    0.170744  -0.004474
     6  H    0.309577   0.000775
     7  H    0.147931   0.078322
     8  C    0.405003   0.089135
     9  C   -0.250144   2.115860
 Sum of Mulliken charges =  -0.00000   2.00000

 Dipole moment (field-independent basis, Debye):
    X=              0.1138    Y=              1.1665    Z=             -0.0010  Tot=              1.1720
 Quadrupole moment (field-independent basis, Debye-Ang):
   XX=            -27.4835   YY=            -28.2967   ZZ=            -31.6763
   XY=              3.7927   XZ=             -0.0035   YZ=              0.0012

  Exact polarizability:  76.834   0.859  62.536   0.027  -0.047  47.937
 Approx polarizability: 104.541   9.259 103.423   0.013  -0.054  61.103

                      1                      2                      3
                      A                      A                      A
 Frequencies --    105.6992               149.7831               332.7136
 Red. masses --      2.4452                 5.3451                 2.6829
 Frc consts  --      0.0161                 0.0707                 0.1750
 IR Inten    --      2.9789                 0.6416                 7.9239

                      4                      5                      6
                      A                      A                      A
 Frequencies --    367.0704               630.0083               664.5847
 Red. masses --      6.6415                 1.3194                 6.3933
 Frc consts  --      0.5272                 0.3085                 1.6637
 IR Inten    --      5.5286                 0.0175                 3.8680

                      7                      8                      9
                      A                      A                      A
 Frequencies --    672.5254               688.9979               850.0269
 Red. masses --      1.2557                 1.2887                 4.2460
 Frc consts  --      0.3346                 0.3604                 1.8076
 IR Inten    --     46.7963                38.5052                 0.5877

                     10                     11                     12
                      A                      A                      A
 Frequencies --    868.1941              1001.5463              1200.1946
 Red. masses --      1.6908                 2.9771                 1.0858
 Frc consts  --      0.7509                 1.7595                 0.9215
 IR Inten    --     16.2998                 2.6381                 7.7932

                     13                     14                     15
                      A                      A                      A
 Frequencies --   1227.9816              1330.4424              1458.6710
 Red. masses --      1.2082                 1.4048                 1.1107
 Frc consts  --      1.0735                 1.4651                 1.3923
 IR Inten    --      6.9533                 5.0354                 5.0832

                     16                     17                     18
                      A                      A                      A
 Frequencies --   1609.8549              2218.1989              2999.7647
 Red. masses --      8.3709                 5.9489                 1.0578
 Frc consts  --     12.7819                17.2458                 5.6085
 IR Inten    --     21.8704                 2.7974                 8.1257

                     19                     20                     21
                      A                      A                      A
 Frequencies --   3022.5987              3031.8933              3463.3891
 Red. masses --      1.0996                 1.0824                 1.1616
 Frc consts  --      5.9192                 5.8623                 8.2095
 IR Inten    --      0.0381                19.8009                59.1927

 - Thermochemistry -
 -------------------
 Temperature   298.150 Kelvin.  Pressure   1.00000 Atm.
 Atom     1 has atomic number  6 and mass  12.00000

 Molecular mass:    64.03130 amu.
 Principal axes and moments of inertia in atomic units:
                           1         2         3
     Eigenvalues --   139.45637 478.82499 607.25371
           X            0.99855   0.05388  -0.00002
           Y           -0.05388   0.99855   0.00004
           Z            0.00003  -0.00004   1.00000
 This molecule is an asymmetric top.
 Rotational symmetry number  1.
 Rotational temperatures (Kelvin)      0.62108     0.18089     0.14263
 Rotational constants (GHZ):          12.94126     3.76910     2.97197
 Zero-point vibrational energy     166844.0 (Joules/Mol)
                                   39.87667 (Kcal/Mol)
 Warning -- explicit consideration of   4 degrees of freedom as
           vibrations may cause significant error
 Vibrational temperatures:    152.08   215.50   478.70   528.13   906.44
          (Kelvin)            956.19   967.61   991.31  1223.00  1249.14
                             1441.00  1726.81  1766.79  1914.21  2098.70
                             2316.22  3191.49  4315.99  4348.84  4362.21
                             4983.04

 Zero-point correction=                           0.063548 (Hartree/Particle)
 Thermal correction to Energy=                    0.069198
 Thermal correction to Enthalpy=                  0.070142
 Thermal correction to Gibbs Free Energy=         0.033985
 Sum of electronic and zero-point Energies=           -192.648582
 Sum of electronic and thermal Energies=              -192.642932
 Sum of electronic and thermal Enthalpies=            -192.641987
 Sum of electronic and thermal Free Energies=         -192.678144

                     E (Thermal)             CV                S
                      KCal/Mol        Cal/Mol-Kelvin    Cal/Mol-Kelvin
 Total                   43.422             18.721             76.099
 Electronic               0.000              0.000              2.183
 Translational            0.889              2.981             38.389
 Rotational               0.889              2.981             25.209
 Vibrational             41.645             12.759             10.318
 Vibration     1          0.605              1.945              3.346
 Vibration     2          0.618              1.903              2.675
 Vibration     3          0.715              1.610              1.247
 Vibration     4          0.740              1.540              1.092

 Normal termination of Gaussian 09 at Wed Jun 22 04:46:07 2016.
