 Gaussian 09, Revision E.01,
 Gaussian 09:  EM64L-G09RevE.01 30-Nov-2015

 ---------------------------------------------
 #p b3lyp/6-311++G(3df,2p) freq symmetry=Loose
 ---------------------------------------------

 ---------
 b3lyp opt
 ---------
 Symbolic Z-matrix:
 Charge =  2 Multiplicity = 3

                         Standard orientation:
 ---------------------------------------------------------------------
 Center     Atomic      Atomic             Coordinates (Angstroms)
 Number     Number       Type             X           Y           Z
 ---------------------------------------------------------------------
      1          6           0       -0.544872   -0.104816    0.000127
      2          6           0       -1.881673   -0.468405   -0.001227
      3          6           0       -1.548139    0.848748    0.000931
      4          6           0        1.943165    0.422342   -0.000539
      5          1           0        2.972528    0.052176   -0.000336
      6          1           0        1.801896    1.506329   -0.001804
      7          6           0        0.877180   -0.537651    0.000639
      8          1           0        1.076026   -1.260660   -0.832291
      9          1           0        1.075587   -1.259146    0.834839
 ---------------------------------------------------------------------

 SCF Done:  E(UB3LYP) =  -191.863170763     A.U. after   14 cycles

 The electronic state is 3-A.
 Alpha  occ. eigenvalues --  -10.74832 -10.74544 -10.74447 -10.73141 -10.68271
 Alpha  occ. eigenvalues --   -1.42916  -1.28904  -1.12777  -1.01851  -0.99411
 Alpha  occ. eigenvalues --   -0.92763  -0.91252  -0.90541  -0.86649  -0.83788
 Alpha  occ. eigenvalues --   -0.79751  -0.73391
 Alpha virt. eigenvalues --   -0.59188  -0.49053  -0.47689  -0.34864  -0.31448
 Alpha virt. eigenvalues --   -0.30406  -0.28873  -0.28331  -0.27432  -0.24876
 Alpha virt. eigenvalues --   -0.24410  -0.23810  -0.23069  -0.20194  -0.19890

  Beta  occ. eigenvalues --  -10.74810 -10.72826 -10.72554 -10.72496 -10.68261
  Beta  occ. eigenvalues --   -1.40732  -1.28663  -1.12331  -1.00787  -0.94831
  Beta  occ. eigenvalues --   -0.91087  -0.90470  -0.88008  -0.84504  -0.82556
  Beta virt. eigenvalues --   -0.61533  -0.59142  -0.56681  -0.47872  -0.43667
  Beta virt. eigenvalues --   -0.34334  -0.31256  -0.29401  -0.28810  -0.27534
  Beta virt. eigenvalues --   -0.25909  -0.24331  -0.23695  -0.23150  -0.22429

 Mulliken charges and spin densities:
               1          2
     1  C    0.458873  -0.034738
     2  C    0.229495   0.984914
     3  C    0.368543   0.975078
     4  C   -0.231657   0.012513
     5  H    0.309006   0.002702
     6  H    0.272016   0.002045
     7  C    0.026592   0.048379
     8  H    0.283563   0.004583
     9  H    0.283570   0.004524
 Sum of Mulliken charges =   2.00000   2.00000

 Dipole moment (field-independent basis, Debye):
    X=              3.9900    Y=             -0.0731    Z=             -0.0004  Tot=              3.9907
 Quadrupole moment (field-independent basis, Debye-Ang):
   XX=              6.2602   YY=            -16.4273   ZZ=            -22.5695
   XY=              0.8575   XZ=             -0.0017   YZ=             -0.0022

  Exact polarizability:  55.693   0.825  40.361   0.002   0.003  27.865
 Approx polarizability:  78.069   3.160  71.106   0.008   0.021  43.230

                      1                      2                      3
                      A                      A                      A
 Frequencies --     51.2303               211.1173               226.6621
 Red. masses --      3.3073                 1.0546                 4.1007
 Frc consts  --      0.0051                 0.0277                 0.1241
 IR Inten    --      0.0755                30.9292                 1.7831

                      4                      5                      6
                      A                      A                      A
 Frequencies --    346.1418               503.6261               681.4082
 Red. masses --      2.4132                 4.6300                 2.0387
 Frc consts  --      0.1704                 0.6919                 0.5577
 IR Inten    --     11.9680                 5.6895                 4.8553

                      7                      8                      9
                      A                      A                      A
 Frequencies --    714.3208               995.5360              1072.6099
 Red. masses --      3.4557                 1.4224                 1.9173
 Frc consts  --      1.0389                 0.8306                 1.2996
 IR Inten    --      4.9134                 3.8642               149.7351

                     10                     11                     12
                      A                      A                      A
 Frequencies --   1104.7650              1173.0215              1200.6432
 Red. masses --      1.1641                 2.6088                 1.6311
 Frc consts  --      0.8371                 2.1150                 1.3853
 IR Inten    --      0.1944                 9.0517               131.2590

                     13                     14                     15
                      A                      A                      A
 Frequencies --   1300.9097              1331.7610              1396.4482
 Red. masses --      1.3207                 3.3442                 2.5268
 Frc consts  --      1.3169                 3.4946                 2.9031
 IR Inten    --      3.9549                 3.9323                28.0570

                     16                     17                     18
                      A                      A                      A
 Frequencies --   1504.6492              1687.6469              2791.7299
 Red. masses --      1.2874                11.8339                 1.0801
 Frc consts  --      1.7172                19.8582                 4.9596
 IR Inten    --      5.4000                 0.3433               129.2451

                     19                     20                     21
                      A                      A                      A
 Frequencies --   2826.8860              3060.6417              3168.3460
 Red. masses --      1.0695                 1.0569                 1.1252
 Frc consts  --      5.0357                 5.8335                 6.6547
 IR Inten    --    197.3308                55.0014                78.4760

 - Thermochemistry -
 -------------------
 Temperature   298.150 Kelvin.  Pressure   1.00000 Atm.
 Atom     1 has atomic number  6 and mass  12.00000

 Molecular mass:    64.03130 amu.
 Principal axes and moments of inertia in atomic units:
                           1         2         3
     Eigenvalues --    85.32658 516.12253 591.44601
           X            1.00000   0.00046  -0.00001
           Y           -0.00046   1.00000  -0.00022
           Z            0.00001   0.00022   1.00000
 This molecule is an asymmetric top.
 Rotational symmetry number  1.
 Rotational temperatures (Kelvin)      1.01509     0.16782     0.14644
 Rotational constants (GHZ):          21.15098     3.49673     3.05140
 Zero-point vibrational energy     163589.9 (Joules/Mol)
                                   39.09893 (Kcal/Mol)
 Warning -- explicit consideration of   5 degrees of freedom as
           vibrations may cause significant error
 Vibrational temperatures:     73.71   303.75   326.12   498.02   724.60
          (Kelvin)            980.39  1027.75  1432.35  1543.24  1589.51
                             1687.71  1727.46  1871.72  1916.10  2009.17
                             2164.85  2428.14  4016.67  4067.25  4403.58
                             4558.54

 Zero-point correction=                           0.062308 (Hartree/Particle)
 Thermal correction to Energy=                    0.068012
 Thermal correction to Enthalpy=                  0.068956
 Thermal correction to Gibbs Free Energy=         0.032418
 Sum of electronic and zero-point Energies=           -191.800863
 Sum of electronic and thermal Energies=              -191.795159
 Sum of electronic and thermal Enthalpies=            -191.794215
 Sum of electronic and thermal Free Energies=         -191.830753

                     E (Thermal)             CV                S
                      KCal/Mol        Cal/Mol-Kelvin    Cal/Mol-Kelvin
 Total                   42.678             17.946             76.901
 Electronic               0.000              0.000              2.183
 Translational            0.889              2.981             38.389
 Rotational               0.889              2.981             24.769
 Vibrational             40.901             11.985             11.560
 Vibration     1          0.596              1.977              4.769
 Vibration     2          0.643              1.824              2.034
 Vibration     3          0.650              1.800              1.905
 Vibration     4          0.724              1.583              1.184
 Vibration     5          0.859              1.242              0.649

 Normal termination of Gaussian 09 at Mon Jun 20 08:41:46 2016.
