 Gaussian 09, Revision E.01,
 Gaussian 09:  EM64L-G09RevE.01 30-Nov-2015

 ---------------------------------------------
 #p b3lyp/6-311++G(3df,2p) freq symmetry=Loose
 ---------------------------------------------

 ---------
 b3lyp opt
 ---------
 Symbolic Z-matrix:
 Charge =  3 Multiplicity = 4

                         Standard orientation:
 ---------------------------------------------------------------------
 Center     Atomic      Atomic             Coordinates (Angstroms)
 Number     Number       Type             X           Y           Z
 ---------------------------------------------------------------------
      1          6           0        1.145067   -0.109195    0.000000
      2          1           0        2.895697   -0.979283    0.957543
      3          6           0        0.000000    0.639322    0.000000
      4          1           0        0.146043    1.765459    0.000000
      5          6           0       -1.312030    0.240644   -0.000000
      6          6           0       -2.585357    0.013249   -0.000000
      7          1           0       -3.681757   -0.187505   -0.000000
      8          6           0        2.376374   -0.720585    0.000000
      9          1           0        2.895697   -0.979283   -0.957543
 ---------------------------------------------------------------------

 SCF Done:  E(UB3LYP) =  -191.152210848     A.U. after   16 cycles

 The electronic state is 4-A".
 Alpha  occ. eigenvalues --  -11.00202 -10.99478 -10.98158 -10.94482 -10.93300
 Alpha  occ. eigenvalues --   -1.55798  -1.50823  -1.43725  -1.30906  -1.19915
 Alpha  occ. eigenvalues --   -1.17828  -1.15768  -1.11719  -1.05631  -1.03052
 Alpha  occ. eigenvalues --   -1.00003  -0.96415
 Alpha virt. eigenvalues --   -0.76434  -0.72265  -0.71245  -0.60745  -0.54531
 Alpha virt. eigenvalues --   -0.49475  -0.45925  -0.44854  -0.43472  -0.41034
 Alpha virt. eigenvalues --   -0.40957  -0.38864  -0.38576  -0.37061  -0.36790

  Beta  occ. eigenvalues --  -10.98554 -10.97953 -10.97302 -10.94275 -10.92712
  Beta  occ. eigenvalues --   -1.52276  -1.45381  -1.40463  -1.28492  -1.17975
  Beta  occ. eigenvalues --   -1.15250  -1.13731  -1.09109  -1.02019
  Beta virt. eigenvalues --   -0.88135  -0.86220  -0.86087  -0.71047  -0.65697
  Beta virt. eigenvalues --   -0.64068  -0.57103  -0.51967  -0.47524  -0.44969
  Beta virt. eigenvalues --   -0.43905  -0.41786  -0.40688  -0.39731  -0.37980

 Mulliken charges and spin densities:
               1          2
     1  C    0.765220   0.920212
     2  H    0.355198   0.021251
     3  C    0.004599   0.339565
     4  H    0.312370   0.061743
     5  C    0.297865   0.557159
     6  C    0.563858   0.756909
     7  H    0.495873  -0.024284
     8  C   -0.150179   0.346195
     9  H    0.355198   0.021251
 Sum of Mulliken charges =   3.00000   3.00000

 Dipole moment (field-independent basis, Debye):
    X=             -0.6570    Y=             -0.7708    Z=              0.0000  Tot=              1.0128
 Quadrupole moment (field-independent basis, Debye-Ang):
   XX=             56.0189   YY=            -13.1735   ZZ=            -20.8043
   XY=             -9.9155   XZ=              0.0000   YZ=             -0.0000

  Exact polarizability: 108.505 -10.795  32.908  -0.000  -0.000  25.395
 Approx polarizability: 172.988 -12.815  50.549   0.000  -0.000  35.409

                      1                      2                      3
                     A'                     A"                     A"
 Frequencies --    151.7360               248.8375               328.9107
 Red. masses --      3.7559                 1.6757                 3.1304
 Frc consts  --      0.0509                 0.0611                 0.1995
 IR Inten    --     15.3591                34.3674                 0.0994

                      4                      5                      6
                     A'                     A"                     A'
 Frequencies --    331.4556               473.9188               523.8610
 Red. masses --      4.1508                 1.4853                 5.5609
 Frc consts  --      0.2687                 0.1965                 0.8991
 IR Inten    --      5.1806                 9.9452                 8.9168

                      7                      8                      9
                     A"                     A'                     A"
 Frequencies --    711.0936               713.9032               749.8563
 Red. masses --      1.3046                 1.3702                 1.5140
 Frc consts  --      0.3887                 0.4114                 0.5016
 IR Inten    --     21.0176                14.9759                20.7329

                     10                     11                     12
                     A'                     A"                     A'
 Frequencies --    815.1645               879.0686               990.5320
 Red. masses --      6.2125                 1.5870                 1.3364
 Frc consts  --      2.4323                 0.7226                 0.7725
 IR Inten    --      6.2787                10.7940                36.6534

                     13                     14                     15
                     A'                     A'                     A'
 Frequencies --   1020.8148              1249.2081              1280.1500
 Red. masses --      1.7269                 1.9180                 1.1775
 Frc consts  --      1.0602                 1.7635                 1.1369
 IR Inten    --     29.1712               144.2181               112.2209

                     16                     17                     18
                     A'                     A'                     A'
 Frequencies --   1663.6903              1843.2966              2640.6598
 Red. masses --      8.7498                 7.5586                 1.0757
 Frc consts  --     14.2690                15.1314                 4.4193
 IR Inten    --    424.1509               105.0747               515.2126

                     19                     20                     21
                     A'                     A"                     A'
 Frequencies --   2776.9088              2867.8064              2952.4053
 Red. masses --      1.0456                 1.1175                 1.1553
 Frc consts  --      4.7503                 5.4149                 5.9335
 IR Inten    --   1120.5342               331.5576               610.2513

 - Thermochemistry -
 -------------------
 Temperature   298.150 Kelvin.  Pressure   1.00000 Atm.
 Atom     1 has atomic number  6 and mass  12.00000

 Molecular mass:    64.03130 amu.
 Principal axes and moments of inertia in atomic units:
                           1         2         3
     Eigenvalues --    50.66536 790.86116 828.32697
           X            0.98849   0.15128   0.00000
           Y           -0.15128   0.98849   0.00000
           Z            0.00000  -0.00000   1.00000
 This molecule is an asymmetric top.
 Rotational symmetry number  1.
 Rotational temperatures (Kelvin)      1.70953     0.10952     0.10456
 Rotational constants (GHZ):          35.62081     2.28199     2.17878
 Zero-point vibrational energy     150808.9 (Joules/Mol)
                                   36.04419 (Kcal/Mol)
 Warning -- explicit consideration of   6 degrees of freedom as
           vibrations may cause significant error
 Vibrational temperatures:    218.31   358.02   473.23   476.89   681.86
          (Kelvin)            753.72  1023.10  1027.15  1078.87  1172.84
                             1264.78  1425.15  1468.72  1797.33  1841.85
                             2393.68  2652.09  3799.32  3995.35  4126.13
                             4247.85

 Zero-point correction=                           0.057440 (Hartree/Particle)
 Thermal correction to Energy=                    0.063164
 Thermal correction to Enthalpy=                  0.064108
 Thermal correction to Gibbs Free Energy=         0.028080
 Sum of electronic and zero-point Energies=           -191.094771
 Sum of electronic and thermal Energies=              -191.089047
 Sum of electronic and thermal Enthalpies=            -191.088103
 Sum of electronic and thermal Free Energies=         -191.124131

                     E (Thermal)             CV                S
                      KCal/Mol        Cal/Mol-Kelvin    Cal/Mol-Kelvin
 Total                   39.636             20.007             75.827
 Electronic               0.000              0.000              2.755
 Translational            0.889              2.981             38.389
 Rotational               0.889              2.981             25.010
 Vibrational             37.858             14.045              9.673
 Vibration     1          0.619              1.901              2.650
 Vibration     2          0.662              1.765              1.739
 Vibration     3          0.712              1.618              1.265
 Vibration     4          0.714              1.613              1.253
 Vibration     5          0.831              1.308              0.727
 Vibration     6          0.879              1.197              0.601

 Optimization completed.
    -- Stationary point found.
 Normal termination of Gaussian 09 at Wed Jul 20 13:28:28 2016.
