 Gaussian 09, Revision E.01,
 Gaussian 09:  EM64L-G09RevE.01 30-Nov-2015

 ---------------------------------------------
 #p b3lyp/6-311++G(3df,2p) freq symmetry=Loose
 ---------------------------------------------

 ---------
 b3lyp opt
 ---------
 Symbolic Z-matrix:
 Charge =  1 Multiplicity = 4

                         Standard orientation:
 ---------------------------------------------------------------------
 Center     Atomic      Atomic             Coordinates (Angstroms)
 Number     Number       Type             X           Y           Z
 ---------------------------------------------------------------------
      1          6           0        0.971963   -1.939617   -0.000000
      2          1           0        1.539663   -2.322554    0.862079
      3          1           0        1.539663   -2.322554   -0.862079
      4          1           0       -0.040480   -2.327590   -0.000000
      5          6           0        0.000000    0.367996    0.000000
      6          6           0       -0.956386    1.196974    0.000000
      7          6           0       -1.925702    2.023356    0.000000
      8          6           0        1.060957   -0.481035   -0.000000
      9          1           0        2.056167   -0.033347   -0.000000
 ---------------------------------------------------------------------

 SCF Done:  E(UB3LYP) =  -192.416273837     A.U. after   18 cycles

 The electronic state is 4-A".
 Alpha  occ. eigenvalues --  -10.51719 -10.48485 -10.45823 -10.45361 -10.38483
 Alpha  occ. eigenvalues --   -1.07800  -1.03123  -0.94700  -0.87118  -0.74460
 Alpha  occ. eigenvalues --   -0.67055  -0.64830  -0.64764  -0.60302  -0.60070
 Alpha  occ. eigenvalues --   -0.59044  -0.50767  -0.45381
 Alpha virt. eigenvalues --   -0.31619  -0.16717  -0.14336  -0.12162  -0.11571
 Alpha virt. eigenvalues --   -0.11146  -0.10378  -0.08748  -0.07796  -0.07735
 Alpha virt. eigenvalues --   -0.06966  -0.05634  -0.04742  -0.04531  -0.02636

  Beta  occ. eigenvalues --  -10.48046 -10.47864 -10.45517 -10.44672 -10.38393
  Beta  occ. eigenvalues --   -1.05310  -1.00408  -0.91135  -0.85165  -0.73295
  Beta  occ. eigenvalues --   -0.65649  -0.62837  -0.59796  -0.56856  -0.55088
  Beta virt. eigenvalues --   -0.40034  -0.39980  -0.31131  -0.25411  -0.15532
  Beta virt. eigenvalues --   -0.12159  -0.11988  -0.10313  -0.10242  -0.08716
  Beta virt. eigenvalues --   -0.07695  -0.07177  -0.06297  -0.06283  -0.05361

 Mulliken charges and spin densities:
               1          2
     1  C   -0.444486   0.026590
     2  H    0.217785   0.034742
     3  H    0.217785   0.034742
     4  H    0.194330   0.002017
     5  C    0.065244   0.658035
     6  C    0.520626   0.031096
     7  C    0.129993   1.961200
     8  C   -0.130031   0.228588
     9  H    0.228754   0.022990
 Sum of Mulliken charges =   1.00000   3.00000

 Dipole moment (field-independent basis, Debye):
    X=              0.5990    Y=             -0.1066    Z=              0.0000  Tot=              0.6084
 Quadrupole moment (field-independent basis, Debye-Ang):
   XX=            -14.0742   YY=            -12.3193   ZZ=            -26.4584
   XY=            -11.6152   XZ=              0.0000   YZ=             -0.0000

  Exact polarizability:  72.597 -37.958  79.788  -0.000   0.000  32.664
 Approx polarizability: 128.966 -74.827 125.018   0.000  -0.000  46.637

                      1                      2                      3
                     A'                     A"                     A"
 Frequencies --     86.9197               121.6969               211.3036
 Red. masses --      4.8385                 1.1542                 4.1425
 Frc consts  --      0.0215                 0.0101                 0.1090
 IR Inten    --      3.2714                 5.9539                 1.7958

                      4                      5                      6
                     A'                     A'                     A"
 Frequencies --    373.7768               453.1612               500.9204
 Red. masses --      9.9769                 4.0219                 8.7199
 Frc consts  --      0.8212                 0.4866                 1.2891
 IR Inten    --      1.6933                 2.9550                 0.0879

                      7                      8                      9
                     A"                     A'                     A"
 Frequencies --    770.5094               787.9147              1002.1592
 Red. masses --      1.1148                 2.8214                 1.8396
 Frc consts  --      0.3899                 1.0320                 1.0885
 IR Inten    --     11.2653                10.1560                 1.1441

                     10                     11                     12
                     A'                     A'                     A'
 Frequencies --   1032.4022              1156.1394              1308.1902
 Red. masses --      1.8361                 2.5795                 1.1265
 Frc consts  --      1.1530                 2.0314                 1.1359
 IR Inten    --     93.6444                20.0096               142.4055

                     13                     14                     15
                     A'                     A"                     A'
 Frequencies --   1354.0697              1415.4353              1465.0716
 Red. masses --      1.3642                 1.0488                 1.2660
 Frc consts  --      1.4737                 1.2380                 1.6010
 IR Inten    --      2.9029                17.2473                49.5210

                     16                     17                     18
                     A'                     A'                     A'
 Frequencies --   1566.3605              1990.3628              2961.4364
 Red. masses --      5.7678                11.8332                 1.0438
 Frc consts  --      8.3377                27.6196                 5.3936
 IR Inten    --    108.3518                 4.4216               147.1800

                     19                     20                     21
                     A"                     A'                     A'
 Frequencies --   2981.3117              3092.4741              3164.9742
 Red. masses --      1.0889                 1.0867                 1.0978
 Frc consts  --      5.7026                 6.1232                 6.4793
 IR Inten    --     16.9356                12.7719                12.1972

 - Thermochemistry -
 -------------------
 Temperature   298.150 Kelvin.  Pressure   1.00000 Atm.
 Atom     1 has atomic number  6 and mass  12.00000

 Molecular mass:    64.03130 amu.
 Principal axes and moments of inertia in atomic units:
                           1         2         3
     Eigenvalues --    48.22085 749.57318 787.09520
           X           -0.62597   0.77985   0.00000
           Y            0.77985   0.62597   0.00000
           Z            0.00000  -0.00000   1.00000
 This molecule is an asymmetric top.
 Rotational symmetry number  1.
 Rotational temperatures (Kelvin)      1.79619     0.11555     0.11004
 Rotational constants (GHZ):          37.42658     2.40769     2.29291
 Zero-point vibrational energy     166260.5 (Joules/Mol)
                                   39.73722 (Kcal/Mol)
 Warning -- explicit consideration of   6 degrees of freedom as
           vibrations may cause significant error
 Vibrational temperatures:    125.06   175.09   304.02   537.78   652.00
          (Kelvin)            720.71  1108.59  1133.63  1441.88  1485.39
                             1663.42  1882.19  1948.20  2036.49  2107.91
                             2253.64  2863.68  4260.84  4289.44  4449.37
                             4553.69

 Zero-point correction=                           0.063325 (Hartree/Particle)
 Thermal correction to Energy=                    0.069270
 Thermal correction to Enthalpy=                  0.070215
 Thermal correction to Gibbs Free Energy=         0.033105
 Sum of electronic and zero-point Energies=           -192.352949
 Sum of electronic and thermal Energies=              -192.347003
 Sum of electronic and thermal Enthalpies=            -192.346059
 Sum of electronic and thermal Free Energies=         -192.383169

                     E (Thermal)             CV                S
                      KCal/Mol        Cal/Mol-Kelvin    Cal/Mol-Kelvin
 Total                   43.468             18.652             78.104
 Electronic               0.000              0.000              2.755
 Translational            0.889              2.981             38.389
 Rotational               0.889              2.981             24.857
 Vibrational             41.690             12.691             12.104
 Vibration     1          0.601              1.958              3.728
 Vibration     2          0.609              1.931              3.073
 Vibration     3          0.643              1.824              2.032
 Vibration     4          0.745              1.526              1.064
 Vibration     5          0.812              1.354              0.786
 Vibration     6          0.856              1.248              0.656

 Normal termination of Gaussian 09 at Wed Jul 20 15:03:28 2016.
