 Gaussian 09, Revision E.01,
 Gaussian 09:  EM64L-G09RevE.01 30-Nov-2015

 ---------------------------------------------
 #p b3lyp/6-311++G(3df,2p) freq symmetry=Loose
 ---------------------------------------------

 ---------
 b3lyp opt
 ---------
 Symbolic Z-matrix:
 Charge =  3 Multiplicity = 2

                         Standard orientation:
 ---------------------------------------------------------------------
 Center     Atomic      Atomic             Coordinates (Angstroms)
 Number     Number       Type             X           Y           Z
 ---------------------------------------------------------------------
      1          6           0        0.752228   -0.047524    0.287597
      2          1           0        1.013548   -0.105922    1.410259
      3          6           0        2.146045   -0.014763   -0.313034
      4          6           0       -0.359662   -1.049654   -0.082492
      5          1           0       -2.297802   -0.190532    0.717282
      6          6           0       -0.428098    0.937450    0.015730
      7          1           0       -0.420254    2.034570   -0.193353
      8          6           0       -1.452174   -0.100855   -0.077398
      9          1           0       -2.245522   -0.086046   -0.916601
 ---------------------------------------------------------------------

 SCF Done:  E(UB3LYP) =  -190.951876407     A.U. after   38 cycles

 The electronic state is 2-A.
 Alpha  occ. eigenvalues --  -11.11060 -11.06371 -11.03582 -10.96776 -10.92455
 Alpha  occ. eigenvalues --   -1.65451  -1.48758  -1.36753  -1.33886  -1.22430
 Alpha  occ. eigenvalues --   -1.18905  -1.15730  -1.14185  -1.10733  -1.02461
 Alpha  occ. eigenvalues --   -1.00576
 Alpha virt. eigenvalues --   -0.86640  -0.85088  -0.83128  -0.83023  -0.57180
 Alpha virt. eigenvalues --   -0.54790  -0.53098  -0.51373  -0.49079  -0.47087
 Alpha virt. eigenvalues --   -0.46388  -0.45708  -0.44656  -0.41382  -0.41260

  Beta  occ. eigenvalues --  -11.11024 -11.04624 -11.03453 -10.96633 -10.92349
  Beta  occ. eigenvalues --   -1.64418  -1.48357  -1.34998  -1.33483  -1.21920
  Beta  occ. eigenvalues --   -1.16087  -1.14555  -1.13809  -1.10525  -1.02444
  Beta virt. eigenvalues --   -0.86362  -0.85202  -0.83788  -0.81843  -0.80510
  Beta virt. eigenvalues --   -0.56416  -0.54061  -0.52760  -0.51120  -0.48701
  Beta virt. eigenvalues --   -0.46275  -0.45680  -0.45147  -0.44536  -0.41065

 Mulliken charges and spin densities:
               1          2
     1  C    0.184476   0.006657
     2  H    0.351415  -0.001172
     3  C    0.490317   0.030905
     4  C    0.568825   0.886614
     5  H    0.354391  -0.005833
     6  C    0.406582   0.053515
     7  H    0.393145   0.032082
     8  C   -0.085426   0.003586
     9  H    0.336274  -0.006355
 Sum of Mulliken charges =   3.00000   1.00000

 Dipole moment (field-independent basis, Debye):
    X=             -0.8410    Y=              1.0694    Z=              0.6100  Tot=              1.4910
 Quadrupole moment (field-independent basis, Debye-Ang):
   XX=             12.0003   YY=            -11.4538   ZZ=            -16.4276
   XY=             -0.1751   XZ=              1.3179   YZ=             -0.7246

  Exact polarizability:  64.817   0.627  37.382   1.059  -0.234  29.936
 Approx polarizability: 121.149   2.133  67.392  -0.485   0.384  50.553

                      1                      2                      3
                      A                      A                      A
 Frequencies --    136.2532               270.3865               367.9844
 Red. masses --      2.1037                 5.5256                 3.9960
 Frc consts  --      0.0230                 0.2380                 0.3188
 IR Inten    --     12.4516                 1.1423                 9.7766

                      4                      5                      6
                      A                      A                      A
 Frequencies --    466.3003               625.2887               698.2243
 Red. masses --      1.3218                 6.9303                 4.0845
 Frc consts  --      0.1693                 1.5965                 1.1732
 IR Inten    --     89.1568                90.8203                21.2466

                      7                      8                      9
                      A                      A                      A
 Frequencies --    717.5027               798.6409               813.5912
 Red. masses --      1.3163                 1.3785                 1.8463
 Frc consts  --      0.3993                 0.5180                 0.7200
 IR Inten    --     17.6695               200.4876               378.3186

                     10                     11                     12
                      A                      A                      A
 Frequencies --    850.8085               880.4097               964.3454
 Red. masses --      1.6538                 1.4144                 1.8554
 Frc consts  --      0.7054                 0.6459                 1.0166
 IR Inten    --    269.2893                 8.9878                 6.7670

                     13                     14                     15
                      A                      A                      A
 Frequencies --   1030.3236              1071.5945              1146.4532
 Red. masses --      1.9247                 1.6042                 2.4056
 Frc consts  --      1.2038                 1.0853                 1.8629
 IR Inten    --    134.4704                 2.3572               356.5704

                     16                     17                     18
                      A                      A                      A
 Frequencies --   1163.1662              1244.1339              2374.0080
 Red. masses --      2.3097                 2.4143                 1.0716
 Frc consts  --      1.8411                 2.2018                 3.5584
 IR Inten    --    141.0547                 3.5518               441.5537

                     19                     20                     21
                      A                      A                      A
 Frequencies --   2489.7763              2546.3538              2883.8580
 Red. masses --      1.0741                 1.0843                 1.1013
 Frc consts  --      3.9230                 4.1424                 5.3964
 IR Inten    --    888.2087               714.2978               332.7019

 - Thermochemistry -
 -------------------
 Temperature   298.150 Kelvin.  Pressure   1.00000 Atm.
 Atom     1 has atomic number  6 and mass  12.00000

 Molecular mass:    64.03130 amu.
 Principal axes and moments of inertia in atomic units:
                           1         2         3
     Eigenvalues --   120.64105 386.36695 466.53831
           X            0.99980  -0.00513   0.01915
           Y            0.00562   0.99965  -0.02576
           Z           -0.01901   0.02586   0.99948
 This molecule is an asymmetric top.
 Rotational symmetry number  1.
 Rotational temperatures (Kelvin)      0.71795     0.22418     0.18565
 Rotational constants (GHZ):          14.95959     4.67105     3.86837
 Zero-point vibrational energy     140796.9 (Joules/Mol)
                                   33.65127 (Kcal/Mol)
 Warning -- explicit consideration of   4 degrees of freedom as
           vibrations may cause significant error
 Vibrational temperatures:    196.04   389.03   529.45   670.90   899.65
          (Kelvin)           1004.59  1032.33  1149.06  1170.57  1224.12
                             1266.71  1387.48  1482.40  1541.78  1649.49
                             1673.53  1790.03  3415.66  3582.23  3663.63
                             4149.22

 Zero-point correction=                           0.053627 (Hartree/Particle)
 Thermal correction to Energy=                    0.058977
 Thermal correction to Enthalpy=                  0.059921
 Thermal correction to Gibbs Free Energy=         0.025348
 Sum of electronic and zero-point Energies=           -190.898250
 Sum of electronic and thermal Energies=              -190.892899
 Sum of electronic and thermal Enthalpies=            -190.891955
 Sum of electronic and thermal Free Energies=         -190.926529

                     E (Thermal)             CV                S
                      KCal/Mol        Cal/Mol-Kelvin    Cal/Mol-Kelvin
 Total                   37.009             19.181             72.766
 Electronic               0.000              0.000              1.377
 Translational            0.889              2.981             38.389
 Rotational               0.889              2.981             24.590
 Vibrational             35.231             13.220              8.409
 Vibration     1          0.614              1.917              2.856
 Vibration     2          0.674              1.728              1.594
 Vibration     3          0.741              1.538              1.088
 Vibration     4          0.824              1.325              0.748

 Normal termination of Gaussian 09 at Mon Jun 20 11:29:25 2016.
