 Gaussian 09, Revision E.01,
 Gaussian 09:  EM64L-G09RevE.01 30-Nov-2015

 ---------------------------------------------
 #p b3lyp/6-311++G(3df,2p) freq symmetry=Loose
 ---------------------------------------------

 ---------
 b3lyp opt
 ---------
 Symbolic Z-matrix:
 Charge =  0 Multiplicity = 3

                         Standard orientation:
 ---------------------------------------------------------------------
 Center     Atomic      Atomic             Coordinates (Angstroms)
 Number     Number       Type             X           Y           Z
 ---------------------------------------------------------------------
      1          6           0        0.710181   -0.109030    0.000020
      2          6           0       -0.710181   -0.109030    0.000068
      3          6           0        0.000000    1.232778   -0.000018
      4          1           0       -0.000031    1.807407   -0.919683
      5          1           0        0.000031    1.807192    0.919807
      6          6           0        1.843500   -0.726103   -0.000025
      7          1           0        2.894669   -0.494837   -0.000588
      8          6           0       -1.843500   -0.726103    0.000098
      9          1           0       -2.894669   -0.494837   -0.000395
 ---------------------------------------------------------------------

 SCF Done:  E(UB3LYP) =  -192.736977057     A.U. after   15 cycles

 The electronic state is 3-A.
 Alpha  occ. eigenvalues --  -10.21352 -10.21086 -10.21044 -10.20621 -10.20620
 Alpha  occ. eigenvalues --   -0.89737  -0.75263  -0.72442  -0.60381  -0.52130
 Alpha  occ. eigenvalues --   -0.50730  -0.47568  -0.39406  -0.39028  -0.32418
 Alpha  occ. eigenvalues --   -0.26811  -0.24556  -0.22845
 Alpha virt. eigenvalues --   -0.06055  -0.00560   0.00928   0.01864   0.03221
 Alpha virt. eigenvalues --    0.04889   0.05454   0.06171   0.06715   0.08219
 Alpha virt. eigenvalues --    0.09005   0.09667   0.10650   0.11126   0.11898

  Beta  occ. eigenvalues --  -10.21115 -10.21071 -10.20760 -10.19200 -10.19198
  Beta  occ. eigenvalues --   -0.88703  -0.72881  -0.69806  -0.59140  -0.50524
  Beta  occ. eigenvalues --   -0.49517  -0.47344  -0.36513  -0.35739  -0.32007
  Beta  occ. eigenvalues --   -0.25513
  Beta virt. eigenvalues --   -0.10413  -0.08861  -0.04742  -0.00438   0.01140
  Beta virt. eigenvalues --    0.02119   0.03357   0.05051   0.05777   0.06182
  Beta virt. eigenvalues --    0.07639   0.08380   0.09708   0.09796   0.11252

 Mulliken charges and spin densities:
               1          2
     1  C    0.370927  -0.145714
     2  C    0.370927  -0.145714
     3  C   -0.624190   0.294131
     4  H    0.170678  -0.006989
     5  H    0.170690  -0.007013
     6  C   -0.439640   0.977334
     7  H    0.210124   0.028316
     8  C   -0.439640   0.977334
     9  H    0.210124   0.028316
 Sum of Mulliken charges =  -0.00000   2.00000

 Dipole moment (field-independent basis, Debye):
    X=              0.0000    Y=              1.8415    Z=             -0.0010  Tot=              1.8415
 Quadrupole moment (field-independent basis, Debye-Ang):
   XX=            -25.1202   YY=            -30.8432   ZZ=            -31.1115
   XY=             -0.0000   XZ=             -0.0002   YZ=              0.0008

  Exact polarizability:  94.642   0.002  60.982  -0.002  -0.003  41.219
 Approx polarizability: 152.570  -0.000  90.866  -0.003  -0.004  58.402

                      1                      2                      3
                      A                      A                      A
 Frequencies --    240.7145               241.0892               363.6304
 Red. masses --      3.1919                 2.7081                 3.2908
 Frc consts  --      0.1090                 0.0927                 0.2564
 IR Inten    --      1.6464                18.1054                 0.0000

                      4                      5                      6
                      A                      A                      A
 Frequencies --    410.6121               617.2963               652.2013
 Red. masses --      2.2949                 1.2638                 6.9379
 Frc consts  --      0.2280                 0.2837                 1.7388
 IR Inten    --      8.0763                59.0334                32.0717

                      7                      8                      9
                      A                      A                      A
 Frequencies --    677.6346               726.3850               834.6442
 Red. masses --      1.1665                 1.7581                 1.5700
 Frc consts  --      0.3156                 0.5465                 0.6444
 IR Inten    --      0.0001                11.4733                19.0774

                     10                     11                     12
                      A                      A                      A
 Frequencies --    905.5203               933.9175               935.4248
 Red. masses --      3.4690                 1.3482                 5.0771
 Frc consts  --      1.6759                 0.6928                 2.6175
 IR Inten    --     44.8197                 4.9157                 2.8580

                     13                     14                     15
                      A                      A                      A
 Frequencies --    960.0735              1009.8421              1436.7286
 Red. masses --      1.3225                 1.2969                 1.1023
 Frc consts  --      0.7182                 0.7792                 1.3406
 IR Inten    --      0.0000                 0.2519                 0.0064

                     16                     17                     18
                      A                      A                      A
 Frequencies --   1655.3803              1850.1878              3084.9374
 Red. masses --      7.7014                 9.0057                 1.0482
 Frc consts  --     12.4341                18.1635                 5.8772
 IR Inten    --      2.5786                 6.7947                 8.3307

                     19                     20                     21
                      A                      A                      A
 Frequencies --   3175.4196              3253.6580              3253.9380
 Red. masses --      1.1173                 1.1042                 1.1063
 Frc consts  --      6.6376                 6.8872                 6.9016
 IR Inten    --      1.6614                 2.1969                 0.8438

 - Thermochemistry -
 -------------------
 Temperature   298.150 Kelvin.  Pressure   1.00000 Atm.
 Atom     1 has atomic number  6 and mass  12.00000

 Molecular mass:    64.03130 amu.
 Principal axes and moments of inertia in atomic units:
                           1         2         3
     Eigenvalues --   142.31446 400.89771 531.03412
           X            1.00000  -0.00000   0.00003
           Y            0.00000   1.00000   0.00001
           Z           -0.00003  -0.00001   1.00000
 This molecule is an asymmetric top.
 Rotational symmetry number  1.
 Rotational temperatures (Kelvin)      0.60861     0.21605     0.16310
 Rotational constants (GHZ):          12.68136     4.50175     3.39854
 Zero-point vibrational energy     162807.2 (Joules/Mol)
                                   38.91185 (Kcal/Mol)
 Warning -- explicit consideration of   5 degrees of freedom as
           vibrations may cause significant error
 Vibrational temperatures:    346.33   346.87   523.18   590.78   888.15
          (Kelvin)            938.37   974.96  1045.10  1200.87  1302.84
                             1343.70  1345.87  1381.33  1452.94  2067.13
                             2381.72  2662.00  4438.53  4568.71  4681.28
                             4681.69

 Zero-point correction=                           0.062010 (Hartree/Particle)
 Thermal correction to Energy=                    0.067301
 Thermal correction to Enthalpy=                  0.068245
 Thermal correction to Gibbs Free Energy=         0.033418
 Sum of electronic and zero-point Energies=           -192.674967
 Sum of electronic and thermal Energies=              -192.669676
 Sum of electronic and thermal Enthalpies=            -192.668732
 Sum of electronic and thermal Free Energies=         -192.703559

                     E (Thermal)             CV                S
                      KCal/Mol        Cal/Mol-Kelvin    Cal/Mol-Kelvin
 Total                   42.232             19.027             73.299
 Electronic               0.000              0.000              2.183
 Translational            0.889              2.981             38.389
 Rotational               0.889              2.981             24.919
 Vibrational             40.454             13.065              7.807
 Vibration     1          0.658              1.778              1.798
 Vibration     2          0.658              1.777              1.795
 Vibration     3          0.737              1.547              1.107
 Vibration     4          0.775              1.447              0.924
 Vibration     5          0.977              0.995              0.421

 Optimization completed.
    -- Stationary point found.
 Normal termination of Gaussian 09 at Wed Jul 20 05:59:22 2016.
