 Gaussian 09, Revision E.01,
 Gaussian 09:  EM64L-G09RevE.01 30-Nov-2015

 ---------------------------------------------
 #p b3lyp/6-311++G(3df,2p) freq symmetry=Loose
 ---------------------------------------------

 ---------
 b3lyp opt
 ---------
 Symbolic Z-matrix:
 Charge =  0 Multiplicity = 1

                         Standard orientation:
 ---------------------------------------------------------------------
 Center     Atomic      Atomic             Coordinates (Angstroms)
 Number     Number       Type             X           Y           Z
 ---------------------------------------------------------------------
      1          6           0        0.704395    1.580822   -0.000000
      2          6           0       -0.814160    1.562230    0.000000
      3          1           0       -1.320000    1.879210    0.910198
      4          6           0        0.000000    0.343871   -0.000000
      5          1           0       -1.320000    1.879210   -0.910198
      6          6           0        0.138903   -0.947583    0.000000
      7          6           0        0.291145   -2.235389    0.000000
      8          1           0        0.359153   -2.791063    0.927419
      9          1           0        0.359153   -2.791063   -0.927419
 ---------------------------------------------------------------------

 SCF Done:  E(RB3LYP) =  -192.771769351     A.U. after   13 cycles

 The electronic state is 1-A'.
 Alpha  occ. eigenvalues --  -10.24296 -10.22599 -10.20781 -10.20139 -10.20044
 Alpha  occ. eigenvalues --   -0.89787  -0.80808  -0.69248  -0.59695  -0.51634
 Alpha  occ. eigenvalues --   -0.48267  -0.46397  -0.44121  -0.35770  -0.30330
 Alpha  occ. eigenvalues --   -0.30231  -0.23573
 Alpha virt. eigenvalues --   -0.12437  -0.02663  -0.00906   0.00645   0.01757
 Alpha virt. eigenvalues --    0.02039   0.04218   0.04635   0.05120   0.07293
 Alpha virt. eigenvalues --    0.07967   0.08540   0.09740   0.10567   0.10993

 Mulliken charges:
               1
     1  C   -0.346874
     2  C   -0.394633
     3  H    0.173100
     4  C    0.015838
     5  H    0.173100
     6  C    0.350775
     7  C   -0.339496
     8  H    0.184095
     9  H    0.184095
 Sum of Mulliken charges =  -0.00000

 Dipole moment (field-independent basis, Debye):
    X=             -2.0556    Y=             -2.3046    Z=              0.0000  Tot=              3.0881
 Quadrupole moment (field-independent basis, Debye-Ang):
   XX=            -33.7154   YY=            -28.3424   ZZ=            -27.8012
   XY=             -5.8564   XZ=             -0.0000   YZ=             -0.0000

  Exact polarizability:  51.208  -7.643 111.811  -0.000   0.000  43.023
 Approx polarizability:  73.160 -11.490 200.011  -0.000   0.000  64.376

                      1                      2                      3
                     A"                     A'                     A"
 Frequencies --    150.5016               188.1095               234.8595
 Red. masses --      2.8515                 4.3586                 1.1343
 Frc consts  --      0.0381                 0.0909                 0.0369
 IR Inten    --      1.5389                 5.4149                21.5532

                      4                      5                      6
                     A"                     A'                     A'
 Frequencies --    424.0930               556.8684               638.5149
 Red. masses --      2.6170                 6.5092                 5.2579
 Frc consts  --      0.2773                 1.1893                 1.2630
 IR Inten    --      0.0290                 4.5209                54.7874

                      7                      8                      9
                     A"                     A'                     A'
 Frequencies --    748.5183               818.0739               923.8051
 Red. masses --      1.1887                 1.3221                 3.1794
 Frc consts  --      0.3924                 0.5213                 1.5987
 IR Inten    --      4.6502                61.9246                88.4006

                     10                     11                     12
                     A"                     A"                     A'
 Frequencies --    960.4358               970.2871              1004.8795
 Red. masses --      1.3336                 1.5759                 1.7747
 Frc consts  --      0.7248                 0.8741                 1.0559
 IR Inten    --      0.5880                 0.8521                96.5739

                     13                     14                     15
                     A'                     A'                     A'
 Frequencies --   1047.5922              1363.5138              1411.5914
 Red. masses --      6.4005                 1.2515                 1.1043
 Frc consts  --      4.1386                 1.3709                 1.2965
 IR Inten    --     43.1141                21.0198                11.9627

                     16                     17                     18
                     A'                     A'                     A'
 Frequencies --   1523.9600              2027.1482              3049.6866
 Red. masses --      4.4973                10.6696                 1.0505
 Frc consts  --      6.1539                25.8327                 5.7565
 IR Inten    --     41.8838               741.2773                 0.6426

                     19                     20                     21
                     A"                     A'                     A"
 Frequencies --   3113.7007              3124.9400              3198.4209
 Red. masses --      1.1108                 1.0582                 1.1136
 Frc consts  --      6.3453                 6.0883                 6.7118
 IR Inten    --      0.7543                15.3284                 2.3542

 - Thermochemistry -
 -------------------
 Temperature   298.150 Kelvin.  Pressure   1.00000 Atm.
 Atom     1 has atomic number  6 and mass  12.00000

 Molecular mass:    64.03130 amu.
 Principal axes and moments of inertia in atomic units:
                           1         2         3
     Eigenvalues --    70.80761 571.55800 618.05696
           X           -0.13212   0.99123   0.00000
           Y            0.99123   0.13212   0.00000
           Z           -0.00000   0.00000   1.00000
 This molecule is an asymmetric top.
 Rotational symmetry number  1.
 Rotational temperatures (Kelvin)      1.22323     0.15154     0.14014
 Rotational constants (GHZ):          25.48795     3.15758     2.92002
 Zero-point vibrational energy     164363.9 (Joules/Mol)
                                   39.28392 (Kcal/Mol)
 Warning -- explicit consideration of   5 degrees of freedom as
           vibrations may cause significant error
 Vibrational temperatures:    216.54   270.65   337.91   610.17   801.21
          (Kelvin)            918.68  1076.95  1177.02  1329.15  1381.85
                             1396.03  1445.80  1507.25  1961.79  2030.96
                             2192.64  2916.61  4387.81  4479.92  4496.09
                             4601.81

 Zero-point correction=                           0.062603 (Hartree/Particle)
 Thermal correction to Energy=                    0.068167
 Thermal correction to Enthalpy=                  0.069111
 Thermal correction to Gibbs Free Energy=         0.034580
 Sum of electronic and zero-point Energies=           -192.709166
 Sum of electronic and thermal Energies=              -192.703603
 Sum of electronic and thermal Enthalpies=            -192.702659
 Sum of electronic and thermal Free Energies=         -192.737189

                     E (Thermal)             CV                S
                      KCal/Mol        Cal/Mol-Kelvin    Cal/Mol-Kelvin
 Total                   42.775             18.665             72.676
 Electronic               0.000              0.000              0.000
 Translational            0.889              2.981             38.389
 Rotational               0.889              2.981             24.729
 Vibrational             40.998             12.704              9.558
 Vibration     1          0.618              1.902              2.666
 Vibration     2          0.633              1.856              2.246
 Vibration     3          0.655              1.787              1.841
 Vibration     4          0.786              1.418              0.878
 Vibration     5          0.912              1.125              0.530

 Optimization completed.
    -- Stationary point found.
 Normal termination of Gaussian 09 at Tue Jul 19 21:14:57 2016.
