 Gaussian 09, Revision E.01,
 Gaussian 09:  EM64L-G09RevE.01 30-Nov-2015

 ---------------------------------------------
 #p b3lyp/6-311++G(3df,2p) freq symmetry=Loose
 ---------------------------------------------

 ---------
 b3lyp opt
 ---------
 Symbolic Z-matrix:
 Charge =  0 Multiplicity = 1

                         Standard orientation:
 ---------------------------------------------------------------------
 Center     Atomic      Atomic             Coordinates (Angstroms)
 Number     Number       Type             X           Y           Z
 ---------------------------------------------------------------------
      1          6           0        1.337294    0.537278    0.000000
      2          6           0        2.608927    0.574531    0.000000
      3          6           0       -2.126998   -0.666352    0.000000
      4          1           0       -2.666623    0.272534    0.000000
      5          1           0       -2.717988   -1.571490    0.000000
      6          6           0       -0.787279   -0.700263    0.000000
      7          1           0       -0.252638   -1.641635    0.000000
      8          6           0        0.000000    0.504462    0.000000
      9          1           0       -0.554414    1.442656    0.000000
 ---------------------------------------------------------------------

 SCF Done:  E(RB3LYP) =  -192.815870893     A.U. after   13 cycles

 The electronic state is 1-A'.
 Alpha  occ. eigenvalues --  -10.25996 -10.23119 -10.22687 -10.19519 -10.17180
 Alpha  occ. eigenvalues --   -0.86424  -0.78715  -0.70519  -0.61956  -0.56159
 Alpha  occ. eigenvalues --   -0.49915  -0.46535  -0.41717  -0.38573  -0.30138
 Alpha  occ. eigenvalues --   -0.27618  -0.27156
 Alpha virt. eigenvalues --   -0.14820  -0.02785  -0.01875  -0.00441   0.01068
 Alpha virt. eigenvalues --    0.03006   0.03972   0.04335   0.05941   0.06324
 Alpha virt. eigenvalues --    0.06782   0.08619   0.09007   0.09421   0.10192

 Mulliken charges:
               1
     1  C    0.724612
     2  C   -0.622296
     3  C   -0.438197
     4  H    0.150722
     5  H    0.182658
     6  C   -0.023053
     7  H    0.176559
     8  C   -0.300669
     9  H    0.149664
 Sum of Mulliken charges =  -0.00000

 Dipole moment (field-independent basis, Debye):
    X=             -6.2689    Y=             -0.9858    Z=              0.0000  Tot=              6.3459
 Quadrupole moment (field-independent basis, Debye-Ang):
   XX=            -40.4521   YY=            -28.3028   ZZ=            -31.4899
   XY=             -2.0399   XZ=              0.0000   YZ=              0.0000

  Exact polarizability: 125.229  17.400  53.176  -0.000   0.000  40.510
 Approx polarizability: 241.860  31.143  75.975  -0.000  -0.000  59.757

                      1                      2                      3
                     A"                     A'                     A"
 Frequencies --    118.4993               157.9944               274.8155
 Red. masses --      3.8524                 5.5545                 4.9289
 Frc consts  --      0.0319                 0.0817                 0.2193
 IR Inten    --      4.5194                 5.2556                 3.3573

                      4                      5                      6
                     A'                     A'                     A"
 Frequencies --    380.3970               543.9352               622.7244
 Red. masses --      2.9287                 6.0668                 1.1483
 Frc consts  --      0.2497                 1.0576                 0.2624
 IR Inten    --      4.4001                 2.4617                10.6391

                      7                      8                      9
                     A'                     A"                     A"
 Frequencies --    932.6144               941.8715              1006.7885
 Red. masses --      1.6857                 1.7245                 1.3129
 Frc consts  --      0.8639                 0.9014                 0.7841
 IR Inten    --     11.0375                 0.1442                44.6070

                     10                     11                     12
                     A"                     A'                     A'
 Frequencies --   1036.6600              1145.3254              1219.8876
 Red. masses --      1.1733                 2.2168                 1.9484
 Frc consts  --      0.7429                 1.7133                 1.7084
 IR Inten    --     10.1721                 0.3828                27.7721

                     13                     14                     15
                     A'                     A'                     A'
 Frequencies --   1317.4868              1366.2637              1482.1786
 Red. masses --      1.3604                 1.7273                 1.4219
 Frc consts  --      1.3912                 1.8997                 1.8405
 IR Inten    --      4.3832                 4.4086                34.9415

                     16                     17                     18
                     A'                     A'                     A'
 Frequencies --   1654.0674              2033.3421              3088.6475
 Red. masses --      3.5529                11.6246                 1.0872
 Frc consts  --      5.7272                28.3172                 6.1108
 IR Inten    --     49.1999               797.9715                 6.5699

                     19                     20                     21
                     A'                     A'                     A'
 Frequencies --   3139.7300              3175.4578              3231.1575
 Red. masses --      1.0592                 1.0928                 1.1163
 Frc consts  --      6.1519                 6.4924                 6.8665
 IR Inten    --      2.7145                 0.7663                 1.9012

 - Thermochemistry -
 -------------------
 Temperature   298.150 Kelvin.  Pressure   1.00000 Atm.
 Atom     1 has atomic number  6 and mass  12.00000

 Molecular mass:    64.03130 amu.
 Principal axes and moments of inertia in atomic units:
                           1         2         3
     Eigenvalues --    43.06756 700.77211 743.83967
           X            0.95280  -0.30358   0.00000
           Y            0.30358   0.95280   0.00000
           Z            0.00000   0.00000   1.00000
 This molecule is an asymmetric top.
 Rotational symmetry number  1.
 Rotational temperatures (Kelvin)      2.01111     0.12360     0.11644
 Rotational constants (GHZ):          41.90489     2.57536     2.42625
 Zero-point vibrational energy     172680.0 (Joules/Mol)
                                   41.27151 (Kcal/Mol)
 Warning -- explicit consideration of   5 degrees of freedom as
           vibrations may cause significant error
 Vibrational temperatures:    170.49   227.32   395.40   547.31   782.60
          (Kelvin)            895.96  1341.82  1355.14  1448.54  1491.52
                             1647.87  1755.14  1895.57  1965.75  2132.52
                             2379.83  2925.52  4443.87  4517.37  4568.77
                             4648.91

 Zero-point correction=                           0.065770 (Hartree/Particle)
 Thermal correction to Energy=                    0.071281
 Thermal correction to Enthalpy=                  0.072225
 Thermal correction to Gibbs Free Energy=         0.037611
 Sum of electronic and zero-point Energies=           -192.750101
 Sum of electronic and thermal Energies=              -192.744590
 Sum of electronic and thermal Enthalpies=            -192.743646
 Sum of electronic and thermal Free Energies=         -192.778259

                     E (Thermal)             CV                S
                      KCal/Mol        Cal/Mol-Kelvin    Cal/Mol-Kelvin
 Total                   44.729             17.597             72.850
 Electronic               0.000              0.000              0.000
 Translational            0.889              2.981             38.389
 Rotational               0.889              2.981             24.621
 Vibrational             42.952             11.635              9.839
 Vibration     1          0.609              1.934              3.125
 Vibration     2          0.621              1.894              2.574
 Vibration     3          0.677              1.720              1.566
 Vibration     4          0.750              1.512              1.038
 Vibration     5          0.899              1.153              0.557

 Optimization completed.
    -- Stationary point found.
 Normal termination of Gaussian 09 at Wed Jun 22 02:04:19 2016.
