 Gaussian 09, Revision E.01,
 Gaussian 09:  EM64L-G09RevE.01 30-Nov-2015

 ---------------------------------------------
 #p b3lyp/6-311++G(3df,2p) freq symmetry=Loose
 ---------------------------------------------

 ---------
 b3lyp opt
 ---------
 Symbolic Z-matrix:
 Charge =  3 Multiplicity = 4

                         Standard orientation:
 ---------------------------------------------------------------------
 Center     Atomic      Atomic             Coordinates (Angstroms)
 Number     Number       Type             X           Y           Z
 ---------------------------------------------------------------------
      1          6           0       -0.197620   -2.110471    0.000000
      2          1           0        0.705480   -2.794208    0.000000
      3          1           0       -1.186994   -2.651674    0.000000
      4          6           0       -0.042303   -0.780895    0.000000
      5          6           0        0.000000    0.614407   -0.000000
      6          6           0       -1.339851    0.990812   -0.000000
      7          6           0        1.139516    1.554906   -0.000000
      8          1           0        0.940176    2.642629   -0.000000
      9          1           0        2.182880    1.190700   -0.000000
 ---------------------------------------------------------------------

 SCF Done:  E(UB3LYP) =  -191.030614520     A.U. after   19 cycles

 The electronic state is 4-A".
 Alpha  occ. eigenvalues --  -11.05646 -11.02603 -10.97960 -10.97084 -10.94559
 Alpha  occ. eigenvalues --   -1.59660  -1.49456  -1.40074  -1.33623  -1.19482
 Alpha  occ. eigenvalues --   -1.17388  -1.12969  -1.11123  -1.10195  -1.07812
 Alpha  occ. eigenvalues --   -0.99080  -0.96848
 Alpha virt. eigenvalues --   -0.83978  -0.81067  -0.75439  -0.62062  -0.54822
 Alpha virt. eigenvalues --   -0.49147  -0.46289  -0.45590  -0.44957  -0.43002
 Alpha virt. eigenvalues --   -0.41092  -0.40768  -0.39793  -0.37928  -0.36630

  Beta  occ. eigenvalues --  -11.01815 -11.01712 -10.97730 -10.96857 -10.93931
  Beta  occ. eigenvalues --   -1.56784  -1.46226  -1.37973  -1.29140  -1.17936
  Beta  occ. eigenvalues --   -1.15989  -1.10557  -1.09431  -1.06261
  Beta virt. eigenvalues --   -0.88371  -0.86546  -0.82939  -0.79481  -0.71768
  Beta virt. eigenvalues --   -0.70160  -0.58187  -0.53219  -0.48418  -0.45459
  Beta virt. eigenvalues --   -0.44946  -0.43710  -0.42515  -0.40577  -0.39573

 Mulliken charges and spin densities:
               1          2
     1  C   -0.171738   0.315213
     2  H    0.365036   0.007238
     3  H    0.383687   0.011785
     4  C    0.143816   0.623205
     5  C    1.349681   0.083020
     6  C    0.381519   1.791229
     7  C   -0.153731   0.150289
     8  H    0.351456   0.004811
     9  H    0.350274   0.013209
 Sum of Mulliken charges =   3.00000   3.00000

 Dipole moment (field-independent basis, Debye):
    X=              0.5692    Y=             -0.9514    Z=              0.0000  Tot=              1.1087
 Quadrupole moment (field-independent basis, Debye-Ang):
   XX=             -2.5347   YY=             26.9716   ZZ=            -22.6982
   XY=              7.2358   XZ=             -0.0000   YZ=             -0.0000

  Exact polarizability:  46.448   2.359  80.641   0.000  -0.000  23.066
 Approx polarizability:  89.943 -15.270 141.354  -0.000  -0.000  33.863

                      1                      2                      3
                     A'                     A"                     A"
 Frequencies --    177.1412               237.1234               288.7642
 Red. masses --      4.0795                 2.1846                 1.1057
 Frc consts  --      0.0754                 0.0724                 0.0543
 IR Inten    --     17.6009                22.3554                 0.7597

                      4                      5                      6
                     A"                     A'                     A'
 Frequencies --    354.3385               357.3130               425.6375
 Red. masses --      1.3831                 3.3185                 2.3926
 Frc consts  --      0.1023                 0.2496                 0.2554
 IR Inten    --      9.1859                34.9918                10.4376

                      7                      8                      9
                     A"                     A'                     A'
 Frequencies --    510.7325               739.4896               795.7265
 Red. masses --      4.4340                 3.8841                 1.9719
 Frc consts  --      0.6814                 1.2514                 0.7356
 IR Inten    --      4.0394                21.3959                15.9838

                     10                     11                     12
                     A'                     A"                     A'
 Frequencies --    914.9013               921.7435              1093.2640
 Red. masses --      2.2739                 1.3680                 2.8047
 Frc consts  --      1.1214                 0.6848                 1.9751
 IR Inten    --     58.6537                43.0832               102.6241

                     13                     14                     15
                     A"                     A'                     A'
 Frequencies --   1154.3255              1185.8709              1236.4857
 Red. masses --      1.3674                 1.1279                 7.5154
 Frc consts  --      1.0735                 0.9345                 6.7699
 IR Inten    --      8.7235               245.6032                98.9249

                     16                     17                     18
                     A'                     A'                     A'
 Frequencies --   1417.3011              1638.9001              2685.0908
 Red. masses --      1.1048                 9.7318                 1.0535
 Frc consts  --      1.3075                15.4010                 4.4749
 IR Inten    --     14.4246                42.3148              1031.2490

                     19                     20                     21
                     A'                     A'                     A'
 Frequencies --   2749.0467              2938.2904              3058.8636
 Red. masses --      1.1028                 1.0517                 1.1314
 Frc consts  --      4.9105                 5.3497                 6.2373
 IR Inten    --    462.1651               230.4616               173.8353

 - Thermochemistry -
 -------------------
 Temperature   298.150 Kelvin.  Pressure   1.00000 Atm.
 Atom     1 has atomic number  6 and mass  12.00000

 Molecular mass:    64.03130 amu.
 Principal axes and moments of inertia in atomic units:
                           1         2         3
     Eigenvalues --   149.21474 474.27140 623.48615
           X            0.19148   0.98150   0.00000
           Y            0.98150  -0.19148   0.00000
           Z           -0.00000  -0.00000   1.00000
 This molecule is an asymmetric top.
 Rotational symmetry number  1.
 Rotational temperatures (Kelvin)      0.58046     0.18262     0.13892
 Rotational constants (GHZ):          12.09493     3.80529     2.89460
 Zero-point vibrational energy     148817.5 (Joules/Mol)
                                   35.56825 (Kcal/Mol)
 Warning -- explicit consideration of   7 degrees of freedom as
           vibrations may cause significant error
 Vibrational temperatures:    254.87   341.17   415.47   509.81   514.09
          (Kelvin)            612.40   734.83  1063.96  1144.87  1316.34
                             1326.18  1572.96  1660.81  1706.20  1779.02
                             2039.18  2358.01  3863.24  3955.26  4227.54
                             4401.02

 Zero-point correction=                           0.056682 (Hartree/Particle)
 Thermal correction to Energy=                    0.062628
 Thermal correction to Enthalpy=                  0.063572
 Thermal correction to Gibbs Free Energy=         0.027065
 Sum of electronic and zero-point Energies=           -190.973933
 Sum of electronic and thermal Energies=              -190.967987
 Sum of electronic and thermal Enthalpies=            -190.967042
 Sum of electronic and thermal Free Energies=         -191.003550

                     E (Thermal)             CV                S
                      KCal/Mol        Cal/Mol-Kelvin    Cal/Mol-Kelvin
 Total                   39.300             20.509             76.836
 Electronic               0.000              0.000              2.755
 Translational            0.889              2.981             38.389
 Rotational               0.889              2.981             25.293
 Vibrational             37.522             14.547             10.399
 Vibration     1          0.628              1.870              2.358
 Vibration     2          0.656              1.784              1.824
 Vibration     3          0.685              1.695              1.481
 Vibration     4          0.730              1.566              1.147
 Vibration     5          0.732              1.560              1.134
 Vibration     6          0.787              1.414              0.873
 Vibration     7          0.866              1.226              0.632

 Optimization completed.
    -- Stationary point found.
 Normal termination of Gaussian 09 at Mon Jun 20 12:16:42 2016.
