 Gaussian 09, Revision E.01,
 Gaussian 09:  EM64L-G09RevE.01 30-Nov-2015

 ---------------------------------------------
 #p b3lyp/6-311++G(3df,2p) freq symmetry=Loose
 ---------------------------------------------

 ---------
 b3lyp opt
 ---------
 Symbolic Z-matrix:
 Charge =  3 Multiplicity = 4

                         Standard orientation:
 ---------------------------------------------------------------------
 Center     Atomic      Atomic             Coordinates (Angstroms)
 Number     Number       Type             X           Y           Z
 ---------------------------------------------------------------------
      1          6           0       -0.342036    0.947781    0.000094
      2          1           0       -0.669716    1.838900    0.734807
      3          1           0       -0.669967    1.838955   -0.734441
      4          6           0       -1.317666   -0.245337    0.000216
      5          1           0       -2.431790   -0.268452    0.000405
      6          6           0       -0.282131   -1.096690    0.000007
      7          6           0        1.110619   -0.899517   -0.000223
      8          6           0        1.123799    0.527181   -0.000172
      9          1           0        2.015964    1.190085   -0.000300
 ---------------------------------------------------------------------

 SCF Done:  E(UB3LYP) =  -190.983204348     A.U. after   16 cycles

 The electronic state is 4-A.
 Alpha  occ. eigenvalues --  -11.10165 -11.05111 -11.00717 -11.00387 -11.00291
 Alpha  occ. eigenvalues --   -1.69409  -1.52380  -1.47657  -1.33867  -1.26293
 Alpha  occ. eigenvalues --   -1.23291  -1.19085  -1.17769  -1.13741  -1.08220
 Alpha  occ. eigenvalues --   -1.05916  -1.01460
 Alpha virt. eigenvalues --   -0.88669  -0.80398  -0.71587  -0.57151  -0.56431
 Alpha virt. eigenvalues --   -0.56110  -0.55514  -0.51028  -0.49349  -0.46874
 Alpha virt. eigenvalues --   -0.43093  -0.42593  -0.41819  -0.40523  -0.39681

  Beta  occ. eigenvalues --  -11.09290 -11.02451 -11.00240 -10.99767 -10.99733
  Beta  occ. eigenvalues --   -1.66061  -1.48916  -1.44357  -1.31196  -1.24034
  Beta  occ. eigenvalues --   -1.21663  -1.15788  -1.12557  -1.11917
  Beta virt. eigenvalues --   -0.96060  -0.89391  -0.89382  -0.82502  -0.74025
  Beta virt. eigenvalues --   -0.63492  -0.55873  -0.54814  -0.53171  -0.53070
  Beta virt. eigenvalues --   -0.50001  -0.48315  -0.45504  -0.42744  -0.41674

 Mulliken charges and spin densities:
               1          2
     1  C   -0.137029   0.301869
     2  H    0.342797   0.124400
     3  H    0.342797   0.124400
     4  C    0.231926   0.314797
     5  H    0.408380  -0.003507
     6  C    0.866730   0.392075
     7  C    0.445318   1.393841
     8  C    0.144330   0.347054
     9  H    0.354751   0.005071
 Sum of Mulliken charges =   3.00000   3.00000

 Dipole moment (field-independent basis, Debye):
    X=             -1.6253    Y=              2.3324    Z=              0.0004  Tot=              2.8428
 Quadrupole moment (field-independent basis, Debye-Ang):
   XX=              2.6338   YY=              0.9427   ZZ=            -20.9830
   XY=             -0.4415   XZ=             -0.0041   YZ=              0.0009

  Exact polarizability:  49.061  -1.405  50.610  -0.004   0.001  23.890
 Approx polarizability:  90.963  -7.899 115.374  -0.010   0.004  36.858

                      1                      2                      3
                      A                      A                      A
 Frequencies --    183.2193               334.8080               386.9638
 Red. masses --      2.2347                 1.6076                 2.9705
 Frc consts  --      0.0442                 0.1062                 0.2621
 IR Inten    --      4.7475               203.3148                17.8195

                      4                      5                      6
                      A                      A                      A
 Frequencies --    566.8658               612.3925               647.4978
 Red. masses --      1.5589                 7.7050                 2.9141
 Frc consts  --      0.2951                 1.7025                 0.7198
 IR Inten    --    102.6968                43.5320               324.4157

                      7                      8                      9
                      A                      A                      A
 Frequencies --    699.1960               774.0279               828.5828
 Red. masses --      1.0565                 2.6874                 1.4132
 Frc consts  --      0.3043                 0.9486                 0.5716
 IR Inten    --      3.0525                 7.9630                10.3179

                     10                     11                     12
                      A                      A                      A
 Frequencies --    858.0463               872.9324              1037.8488
 Red. masses --      1.6023                 1.4813                 2.8803
 Frc consts  --      0.6950                 0.6650                 1.8279
 IR Inten    --      1.9299                 0.2306                48.7540

                     13                     14                     15
                      A                      A                      A
 Frequencies --   1065.6101              1113.1274              1174.5400
 Red. masses --      2.3451                 1.5782                 1.6041
 Frc consts  --      1.5690                 1.1521                 1.3039
 IR Inten    --     83.2402                46.8415               115.0963

                     16                     17                     18
                      A                      A                      A
 Frequencies --   1259.8575              1496.7705              1925.1060
 Red. masses --      3.4916                 7.3951                 1.0466
 Frc consts  --      3.2653                 9.7613                 2.2852
 IR Inten    --    101.5365                21.3157               436.8869

                     19                     20                     21
                      A                      A                      A
 Frequencies --   2289.5683              2892.6952              2924.0755
 Red. masses --      1.1165                 1.1065                 1.1020
 Frc consts  --      3.4483                 5.4550                 5.5515
 IR Inten    --   1040.4962               777.6965               176.0417

 - Thermochemistry -
 -------------------
 Temperature   298.150 Kelvin.  Pressure   1.00000 Atm.
 Atom     1 has atomic number  6 and mass  12.00000

 Molecular mass:    64.03130 amu.
 Principal axes and moments of inertia in atomic units:
                           1         2         3
     Eigenvalues --   171.57379 232.70388 396.50852
           X            0.99964   0.02686   0.00017
           Y           -0.02686   0.99964  -0.00004
           Z           -0.00017   0.00003   1.00000
 This molecule is an asymmetric top.
 Rotational symmetry number  1.
 Rotational temperatures (Kelvin)      0.50482     0.37221     0.21844
 Rotational constants (GHZ):          10.51875     7.75553     4.55158
 Zero-point vibrational energy     143215.3 (Joules/Mol)
                                   34.22928 (Kcal/Mol)
 Warning -- explicit consideration of   5 degrees of freedom as
           vibrations may cause significant error
 Vibrational temperatures:    263.61   481.71   556.75   815.59   881.10
          (Kelvin)            931.60  1005.99  1113.65  1192.14  1234.54
                             1255.95  1493.23  1533.17  1601.54  1689.90
                             1812.65  2153.52  2769.79  3294.17  4161.94
                             4207.09

 Zero-point correction=                           0.054548 (Hartree/Particle)
 Thermal correction to Energy=                    0.059651
 Thermal correction to Enthalpy=                  0.060595
 Thermal correction to Gibbs Free Energy=         0.026090
 Sum of electronic and zero-point Energies=           -190.928657
 Sum of electronic and thermal Energies=              -190.923553
 Sum of electronic and thermal Enthalpies=            -190.922609
 Sum of electronic and thermal Free Energies=         -190.957114

                     E (Thermal)             CV                S
                      KCal/Mol        Cal/Mol-Kelvin    Cal/Mol-Kelvin
 Total                   37.432             18.602             72.622
 Electronic               0.000              0.000              2.755
 Translational            0.889              2.981             38.389
 Rotational               0.889              2.981             24.274
 Vibrational             35.654             12.640              7.204
 Vibration     1          0.631              1.863              2.295
 Vibration     2          0.716              1.606              1.237
 Vibration     3          0.755              1.498              1.012
 Vibration     4          0.923              1.103              0.510
 Vibration     5          0.972              1.006              0.429

 Optimization completed.
    -- Stationary point found.
 Normal termination of Gaussian 09 at Wed Jul 20 17:42:28 2016.
