 Gaussian 09, Revision E.01,
 Gaussian 09:  EM64L-G09RevE.01 30-Nov-2015

 ------------------------------------------------------
 #p b3lyp/6-311++G(3df,2p) freq IOp(2/17=3) IOp(2/18=3)
 ------------------------------------------------------

 ---------
 b3lyp opt
 ---------
 Symbolic Z-matrix:
 Charge =  1 Multiplicity = 4

                         Standard orientation:
 ---------------------------------------------------------------------
 Center     Atomic      Atomic             Coordinates (Angstroms)
 Number     Number       Type             X           Y           Z
 ---------------------------------------------------------------------
      1          6           0        1.299942    0.418240    0.000000
      2          1           0        2.134228    1.122390    0.000000
      3          6           0        1.610429   -0.948149    0.000000
      4          1           0        2.516092   -1.537216    0.000000
      5          6           0       -1.094550    0.129019    0.000000
      6          6           0       -2.078359   -0.616953    0.000000
      7          1           0       -2.935911   -1.256204    0.000000
      8          6           0        0.000000    0.957860    0.000000
      9          1           0       -0.139181    2.030924    0.000000
 ---------------------------------------------------------------------

 SCF Done:  E(UB3LYP) =  -192.443504535     A.U. after   16 cycles

 The electronic state is 4-A'.
 Alpha  occ. eigenvalues --  -10.47154 -10.45776 -10.44581 -10.44380 -10.43033
 Alpha  occ. eigenvalues --   -1.07773  -1.01426  -0.93891  -0.82835  -0.75688
 Alpha  occ. eigenvalues --   -0.73426  -0.69415  -0.65190  -0.61556  -0.55152
 Alpha  occ. eigenvalues --   -0.52360  -0.48821  -0.44072
 Alpha virt. eigenvalues --   -0.26145  -0.20534  -0.14385  -0.13828  -0.12407
 Alpha virt. eigenvalues --   -0.11314  -0.10623  -0.09658  -0.08986  -0.07028
 Alpha virt. eigenvalues --   -0.06453  -0.05391  -0.04574  -0.03705  -0.02948

  Beta  occ. eigenvalues --  -10.46796 -10.44386 -10.43509 -10.43195 -10.42378
  Beta  occ. eigenvalues --   -1.05274  -0.98194  -0.90133  -0.80004  -0.74405
  Beta  occ. eigenvalues --   -0.72106  -0.67531  -0.63888  -0.55552  -0.51507
  Beta virt. eigenvalues --   -0.43383  -0.31227  -0.30474  -0.19956  -0.19612
  Beta virt. eigenvalues --   -0.13939  -0.12060  -0.10968  -0.10660  -0.10195
  Beta virt. eigenvalues --   -0.08982  -0.07510  -0.06590  -0.05883  -0.04281

 Mulliken charges and spin densities:
               1          2
     1  C    0.039266   0.215525
     2  H    0.217889   0.043049
     3  C   -0.195733   1.648925
     4  H    0.268777   0.000950
     5  C    0.057926   0.151408
     6  C    0.458360   0.614788
     7  H    0.379921  -0.016243
     8  C   -0.432995   0.359330
     9  H    0.206589  -0.017732
 Sum of Mulliken charges =   1.00000   3.00000

 Dipole moment (field-independent basis, Debye):
    X=              0.5853    Y=             -0.3874    Z=              0.0000  Tot=              0.7018
 Quadrupole moment (field-independent basis, Debye-Ang):
   XX=             -4.8403   YY=            -19.7054   ZZ=            -28.2287
   XY=              3.0714   XZ=              0.0000   YZ=              0.0000

  Exact polarizability: 100.185   5.375  53.431  -0.000   0.000  30.951
 Approx polarizability: 171.778  17.271  85.021  -0.000  -0.000  44.419

                      1                      2                      3
                     A'                     A"                     A'
 Frequencies --    142.8731               199.9355               363.9436
 Red. masses --      4.1193                 2.5042                 4.4868
 Frc consts  --      0.0495                 0.0590                 0.3502
 IR Inten    --      2.5590                16.9545                 7.4313

                      4                      5                      6
                     A"                     A"                     A"
 Frequencies --    447.4240               524.0377               614.5361
 Red. masses --      2.5177                 1.1540                 1.4193
 Frc consts  --      0.2970                 0.1867                 0.3158
 IR Inten    --      3.1442                26.7004                13.2362

                      7                      8                      9
                     A'                     A"                     A'
 Frequencies --    642.0515               669.4398               678.5604
 Red. masses --      2.8876                 1.4367                 1.2256
 Frc consts  --      0.7013                 0.3793                 0.3325
 IR Inten    --     14.6005                25.7058                47.7021

                     10                     11                     12
                     A'                     A"                     A'
 Frequencies --    877.3639               958.4146               980.1658
 Red. masses --      1.6219                 1.5130                 3.9546
 Frc consts  --      0.7356                 0.8188                 2.2385
 IR Inten    --     11.5176                 0.3126                 4.1995

                     13                     14                     15
                     A'                     A'                     A'
 Frequencies --   1102.8120              1228.4609              1402.2809
 Red. masses --      2.6512                 1.3371                 1.5988
 Frc consts  --      1.8997                 1.1889                 1.8523
 IR Inten    --     92.6892                38.3379               149.9760

                     16                     17                     18
                     A'                     A'                     A'
 Frequencies --   1477.0993              2035.4624              3087.2003
 Red. masses --      4.2365                 6.9993                 1.0862
 Frc consts  --      5.4460                17.0857                 6.0992
 IR Inten    --    167.3525                17.9115                 8.5659

                     19                     20                     21
                     A'                     A'                     A'
 Frequencies --   3187.5951              3230.0048              3381.5552
 Red. masses --      1.0900                 1.0940                 1.1407
 Frc consts  --      6.5254                 6.7247                 7.6850
 IR Inten    --     25.5701                59.8737               159.8700

 - Thermochemistry -
 -------------------
 Temperature   298.150 Kelvin.  Pressure   1.00000 Atm.
 Atom     1 has atomic number  6 and mass  12.00000

 Molecular mass:    64.03130 amu.
 Principal axes and moments of inertia in atomic units:
                           1         2         3
     Eigenvalues --   135.38897 490.65876 626.04773
           X            0.99926  -0.03856   0.00000
           Y            0.03856   0.99926   0.00000
           Z            0.00000   0.00000   1.00000
 This molecule is an asymmetric top.
 Rotational symmetry number  1.
 Rotational temperatures (Kelvin)      0.63974     0.17653     0.13835
 Rotational constants (GHZ):          13.33005     3.67820     2.88275
 Zero-point vibrational energy     162878.8 (Joules/Mol)
                                   38.92898 (Kcal/Mol)
 Warning -- explicit consideration of   6 degrees of freedom as
           vibrations may cause significant error
 Vibrational temperatures:    205.56   287.66   523.63   643.74   753.97
          (Kelvin)            884.18   923.77   963.17   976.30  1262.33
                             1378.94  1410.24  1586.70  1767.48  2017.57
                             2125.21  2928.57  4441.79  4586.23  4647.25
                             4865.30

 Zero-point correction=                           0.062037 (Hartree/Particle)
 Thermal correction to Energy=                    0.067638
 Thermal correction to Enthalpy=                  0.068582
 Thermal correction to Gibbs Free Energy=         0.032583
 Sum of electronic and zero-point Energies=           -192.381467
 Sum of electronic and thermal Energies=              -192.375867
 Sum of electronic and thermal Enthalpies=            -192.374923
 Sum of electronic and thermal Free Energies=         -192.410922

                     E (Thermal)             CV                S
                      KCal/Mol        Cal/Mol-Kelvin    Cal/Mol-Kelvin
 Total                   42.443             19.544             75.766
 Electronic               0.000              0.000              2.755
 Translational            0.889              2.981             38.389
 Rotational               0.889              2.981             25.234
 Vibrational             40.666             13.583              9.388
 Vibration     1          0.616              1.910              2.765
 Vibration     2          0.638              1.840              2.134
 Vibration     3          0.737              1.546              1.105
 Vibration     4          0.807              1.367              0.804
 Vibration     5          0.879              1.197              0.601
 Vibration     6          0.974              1.001              0.425

 Optimization completed.
    -- Stationary point found.
 Normal termination of Gaussian 09 at Thu Jan 31 07:33:20 2019.
