 Gaussian 09, Revision E.01,
 Gaussian 09:  EM64L-G09RevE.01 30-Nov-2015

 ---------------------------------------------
 #p b3lyp/6-311++G(3df,2p) freq symmetry=Loose
 ---------------------------------------------

 ---------
 b3lyp opt
 ---------
 Symbolic Z-matrix:
 Charge =  3 Multiplicity = 2

                         Standard orientation:
 ---------------------------------------------------------------------
 Center     Atomic      Atomic             Coordinates (Angstroms)
 Number     Number       Type             X           Y           Z
 ---------------------------------------------------------------------
      1          6           0        0.363703   -0.000101    0.000010
      2          6           0       -0.976442   -0.000064   -0.000028
      3          6           0        1.622503   -0.679392   -0.000027
      4          1           0        2.069915   -1.697839   -0.000126
      5          6           0        1.622430    0.679476    0.000120
      6          1           0        2.069399    1.698138    0.000244
      7          6           0       -2.342930    0.000015   -0.000067
      8          1           0       -2.937499   -0.962938   -0.000189
      9          1           0       -2.937400    0.963039    0.000021
 ---------------------------------------------------------------------

 SCF Done:  E(UB3LYP) =  -191.184805101     A.U. after   15 cycles

 The electronic state is 2-A.
 Alpha  occ. eigenvalues --  -11.05769 -10.98806 -10.97424 -10.97077 -10.97009
 Alpha  occ. eigenvalues --   -1.65359  -1.54914  -1.42554  -1.26424  -1.21550
 Alpha  occ. eigenvalues --   -1.19929  -1.14850  -1.12370  -1.10113  -1.05875
 Alpha  occ. eigenvalues --   -1.03781
 Alpha virt. eigenvalues --   -0.84050  -0.81126  -0.70650  -0.63722  -0.55325
 Alpha virt. eigenvalues --   -0.50655  -0.50015  -0.48712  -0.46661  -0.45162
 Alpha virt. eigenvalues --   -0.42474  -0.41728  -0.41610  -0.39562  -0.37412

  Beta  occ. eigenvalues --  -11.04876 -10.98363 -10.97650 -10.96812 -10.96745
  Beta  occ. eigenvalues --   -1.64590  -1.52122  -1.41624  -1.25971  -1.20907
  Beta  occ. eigenvalues --   -1.19478  -1.14341  -1.09732  -1.09093  -1.05919
  Beta virt. eigenvalues --   -0.93180  -0.82994  -0.77758  -0.68408  -0.60426
  Beta virt. eigenvalues --   -0.54116  -0.50463  -0.49837  -0.48362  -0.46343
  Beta virt. eigenvalues --   -0.44810  -0.42369  -0.41202  -0.41100  -0.39008

 Mulliken charges and spin densities:
               1          2
     1  C    0.090776   0.000438
     2  C    0.650230   0.520980
     3  C    0.232931   0.142002
     4  H    0.421359  -0.005119
     5  C    0.232601   0.142009
     6  H    0.421346  -0.005119
     7  C    0.175299   0.223906
     8  H    0.387724  -0.009548
     9  H    0.387733  -0.009549
 Sum of Mulliken charges =   3.00000   1.00000

 Dipole moment (field-independent basis, Debye):
    X=             -3.2171    Y=              0.0006    Z=             -0.0001  Tot=              3.2171
 Quadrupole moment (field-independent basis, Debye-Ang):
   XX=             39.1579   YY=             -8.5722   ZZ=            -22.1744
   XY=             -0.0003   XZ=              0.0018   YZ=              0.0015

  Exact polarizability:  90.064   0.000  33.285   0.002   0.001  21.605
 Approx polarizability: 174.309   0.004  50.842   0.004   0.002  32.099

                      1                      2                      3
                      A                      A                      A
 Frequencies --    176.4197               205.5604               226.6062
 Red. masses --      2.9626                 4.4392                 1.0572
 Frc consts  --      0.0543                 0.1105                 0.0320
 IR Inten    --     18.8225                23.8826                 0.0000

                      4                      5                      6
                      A                      A                      A
 Frequencies --    446.4424               490.4112               654.4635
 Red. masses --      2.1944                 5.4570                 5.0898
 Frc consts  --      0.2577                 0.7733                 1.2845
 IR Inten    --      3.2819                 3.8374                 1.3678

                      7                      8                      9
                      A                      A                      A
 Frequencies --    807.3262               814.1300               825.1908
 Red. masses --      1.2287                 2.7166                 1.5006
 Frc consts  --      0.4719                 1.0609                 0.6020
 IR Inten    --     54.6879                20.3288                 0.0006

                     10                     11                     12
                      A                      A                      A
 Frequencies --    905.1106               939.2403               988.3408
 Red. masses --      1.1355                 2.3758                 1.3694
 Frc consts  --      0.5481                 1.2348                 0.7881
 IR Inten    --      0.0116                92.9763                34.3141

                     13                     14                     15
                      A                      A                      A
 Frequencies --   1011.7547              1145.1565              1230.0326
 Red. masses --      1.6453                 3.1453                 1.4423
 Frc consts  --      0.9923                 2.4302                 1.2857
 IR Inten    --      6.1529               442.2698                18.4680

                     16                     17                     18
                      A                      A                      A
 Frequencies --   1384.0301              1654.5184              2681.3801
 Red. masses --      5.1819                 6.9330                 1.0469
 Frc consts  --      5.8483                11.1819                 4.4347
 IR Inten    --    180.7135               484.9535              1082.5298

                     19                     20                     21
                      A                      A                      A
 Frequencies --   2747.7470              2917.5393              2967.7183
 Red. masses --      1.1164                 1.0972                 1.1571
 Frc consts  --      4.9661                 5.5025                 6.0042
 IR Inten    --    441.1442               575.9818               256.7606

 - Thermochemistry -
 -------------------
 Temperature   298.150 Kelvin.  Pressure   1.00000 Atm.
 Atom     1 has atomic number  6 and mass  12.00000

 Molecular mass:    64.03130 amu.
 Principal axes and moments of inertia in atomic units:
                           1         2         3
     Eigenvalues --    66.99243 600.14577 667.13821
           X            1.00000  -0.00000  -0.00003
           Y            0.00000   1.00000  -0.00011
           Z            0.00003   0.00011   1.00000
 This molecule is an asymmetric top.
 Rotational symmetry number  1.
 Rotational temperatures (Kelvin)      1.29289     0.14432     0.12983
 Rotational constants (GHZ):          26.93948     3.00717     2.70520
 Zero-point vibrational energy     150843.8 (Joules/Mol)
                                   36.05254 (Kcal/Mol)
 Warning -- explicit consideration of   5 degrees of freedom as
           vibrations may cause significant error
 Vibrational temperatures:    253.83   295.76   326.04   642.33   705.59
          (Kelvin)            941.63  1161.56  1171.35  1187.26  1302.25
                             1351.36  1422.00  1455.69  1647.62  1769.74
                             1991.31  2380.48  3857.90  3953.39  4197.68
                             4269.88

 Zero-point correction=                           0.057453 (Hartree/Particle)
 Thermal correction to Energy=                    0.063029
 Thermal correction to Enthalpy=                  0.063973
 Thermal correction to Gibbs Free Energy=         0.028853
 Sum of electronic and zero-point Energies=           -191.127352
 Sum of electronic and thermal Energies=              -191.121776
 Sum of electronic and thermal Enthalpies=            -191.120832
 Sum of electronic and thermal Free Energies=         -191.155952

                     E (Thermal)             CV                S
                      KCal/Mol        Cal/Mol-Kelvin    Cal/Mol-Kelvin
 Total                   39.551             19.184             73.916
 Electronic               0.000              0.000              1.377
 Translational            0.889              2.981             38.389
 Rotational               0.889              2.981             24.798
 Vibrational             37.774             13.222              9.351
 Vibration     1          0.628              1.871              2.366
 Vibration     2          0.640              1.832              2.083
 Vibration     3          0.650              1.800              1.906
 Vibration     4          0.806              1.369              0.807
 Vibration     5          0.846              1.271              0.683

 Optimization completed.
    -- Stationary point found.
 Normal termination of Gaussian 09 at Wed Jul 20 02:18:11 2016.
