 Gaussian 09, Revision E.01,
 Gaussian 09:  EM64L-G09RevE.01 30-Nov-2015

 ---------------------------------------------
 #p b3lyp/6-311++G(3df,2p) freq symmetry=Loose
 ---------------------------------------------

 ---------
 b3lyp opt
 ---------
 Symbolic Z-matrix:
 Charge =  3 Multiplicity = 4

                         Standard orientation:
 ---------------------------------------------------------------------
 Center     Atomic      Atomic             Coordinates (Angstroms)
 Number     Number       Type             X           Y           Z
 ---------------------------------------------------------------------
      1          6           0       -0.494860   -1.203147   -0.001125
      2          6           0       -0.757949    0.920081   -0.000440
      3          6           0       -1.625788   -0.275044    0.002016
      4          1           0       -0.845403    1.660070   -0.875886
      5          1           0       -0.843277    1.662797    0.872697
      6          6           0        0.459171   -0.068090   -0.001127
      7          6           0        1.877481    0.042391    0.000682
      8          1           0        2.471527    0.090188   -0.959542
      9          1           0        2.468819    0.089804    0.962698
 ---------------------------------------------------------------------

 SCF Done:  E(UB3LYP) =  -190.979250648     A.U. after   15 cycles

 The electronic state is 4-A.
 Alpha  occ. eigenvalues --  -11.04387 -11.04284 -11.03328 -11.02462 -10.94889
 Alpha  occ. eigenvalues --   -1.66263  -1.50976  -1.40257  -1.32725  -1.20980
 Alpha  occ. eigenvalues --   -1.19355  -1.18600  -1.16858  -1.13656  -1.02794
 Alpha  occ. eigenvalues --   -1.02523  -1.00596
 Alpha virt. eigenvalues --   -0.86332  -0.85844  -0.73900  -0.57872  -0.53828
 Alpha virt. eigenvalues --   -0.52508  -0.49236  -0.48971  -0.45992  -0.45694
 Alpha virt. eigenvalues --   -0.44379  -0.43545  -0.41498  -0.39446  -0.38690

  Beta  occ. eigenvalues --  -11.03976 -11.02329 -11.02087 -11.00536 -10.94544
  Beta  occ. eigenvalues --   -1.63076  -1.49704  -1.36454  -1.29845  -1.18832
  Beta  occ. eigenvalues --   -1.16974  -1.15361  -1.13883  -1.10778
  Beta virt. eigenvalues --   -0.91261  -0.86385  -0.82428  -0.82396  -0.79605
  Beta virt. eigenvalues --   -0.65960  -0.56167  -0.53349  -0.50076  -0.48593
  Beta virt. eigenvalues --   -0.47533  -0.45576  -0.44109  -0.42660  -0.41622

 Mulliken charges and spin densities:
               1          2
     1  C    0.461991   1.319039
     2  C   -0.170696   0.072306
     3  C    0.628495   1.012693
     4  H    0.349577   0.109615
     5  H    0.349229   0.109484
     6  C    0.614666   0.220463
     7  C    0.019803   0.141758
     8  H    0.373595   0.007276
     9  H    0.373340   0.007366
 Sum of Mulliken charges =   3.00000   3.00000

 Dipole moment (field-independent basis, Debye):
    X=              3.4805    Y=              1.7832    Z=             -0.0007  Tot=              3.9107
 Quadrupole moment (field-independent basis, Debye-Ang):
   XX=             14.6752   YY=             -9.4058   ZZ=            -17.0656
   XY=             -1.1043   XZ=              0.0113   YZ=             -0.0029

  Exact polarizability:  60.366  -0.444  41.772   0.010  -0.001  27.297
 Approx polarizability: 104.212   1.139  77.946  -0.001  -0.003  41.477

                      1                      2                      3
                      A                      A                      A
 Frequencies --    109.3650               291.2379               411.3354
 Red. masses --      3.5300                 3.1693                 1.3102
 Frc consts  --      0.0249                 0.1584                 0.1306
 IR Inten    --      1.0150                 6.6901                23.8553

                      4                      5                      6
                      A                      A                      A
 Frequencies --    462.0003               524.9969               657.4378
 Red. masses --      1.2936                 5.5426                 1.5759
 Frc consts  --      0.1627                 0.9001                 0.4013
 IR Inten    --     15.4690                 1.6029                 4.4647

                      7                      8                      9
                      A                      A                      A
 Frequencies --    672.6549               844.0517               849.5777
 Red. masses --      7.1202                 1.2531                 3.6853
 Frc consts  --      1.8981                 0.5260                 1.5672
 IR Inten    --      7.7999                 3.4959                19.6622

                     10                     11                     12
                      A                      A                      A
 Frequencies --    903.3521               940.7211               976.1344
 Red. masses --      2.0472                 1.6490                 2.9930
 Frc consts  --      0.9843                 0.8598                 1.6803
 IR Inten    --    311.7247                 2.2709                10.7570

                     13                     14                     15
                      A                      A                      A
 Frequencies --   1074.8198              1124.5662              1188.4080
 Red. masses --      2.8340                 1.5178                 2.1957
 Frc consts  --      1.9289                 1.1309                 1.8271
 IR Inten    --    124.0647                 5.7911                36.6448

                     16                     17                     18
                      A                      A                      A
 Frequencies --   1229.4840              1269.4613              2441.4191
 Red. masses --      3.4802                 1.1047                 1.0823
 Frc consts  --      3.0995                 1.0489                 3.8009
 IR Inten    --     48.3268               156.2234               342.3328

                     19                     20                     21
                      A                      A                      A
 Frequencies --   2534.3817              2697.3633              2775.0119
 Red. masses --      1.0641                 1.0449                 1.1174
 Frc consts  --      4.0271                 4.4794                 5.0697
 IR Inten    --    950.9160               724.5951               382.8409

 - Thermochemistry -
 -------------------
 Temperature   298.150 Kelvin.  Pressure   1.00000 Atm.
 Atom     1 has atomic number  6 and mass  12.00000

 Molecular mass:    64.03130 amu.
 Principal axes and moments of inertia in atomic units:
                           1         2         3
     Eigenvalues --   132.97819 369.34547 478.02049
           X            0.99946  -0.03276   0.00010
           Y            0.03276   0.99946  -0.00010
           Z           -0.00010   0.00011   1.00000
 This molecule is an asymmetric top.
 Rotational symmetry number  1.
 Rotational temperatures (Kelvin)      0.65134     0.23451     0.18119
 Rotational constants (GHZ):          13.57171     4.88632     3.77545
 Zero-point vibrational energy     143419.0 (Joules/Mol)
                                   34.27796 (Kcal/Mol)
 Warning -- explicit consideration of   5 degrees of freedom as
           vibrations may cause significant error
 Vibrational temperatures:    157.35   419.03   591.82   664.71   755.35
          (Kelvin)            945.91   967.80  1214.40  1222.35  1299.72
                             1353.49  1404.44  1546.42  1618.00  1709.85
                             1768.95  1826.47  3512.65  3646.41  3880.90
                             3992.62

 Zero-point correction=                           0.054625 (Hartree/Particle)
 Thermal correction to Energy=                    0.059987
 Thermal correction to Enthalpy=                  0.060931
 Thermal correction to Gibbs Free Energy=         0.025543
 Sum of electronic and zero-point Energies=           -190.924625
 Sum of electronic and thermal Energies=              -190.919264
 Sum of electronic and thermal Enthalpies=            -190.918319
 Sum of electronic and thermal Free Energies=         -190.953707

                     E (Thermal)             CV                S
                      KCal/Mol        Cal/Mol-Kelvin    Cal/Mol-Kelvin
 Total                   37.642             18.992             74.480
 Electronic               0.000              0.000              2.755
 Translational            0.889              2.981             38.389
 Rotational               0.889              2.981             24.666
 Vibrational             35.865             13.031              8.670
 Vibration     1          0.606              1.942              3.280
 Vibration     2          0.687              1.690              1.467
 Vibration     3          0.775              1.446              0.922
 Vibration     4          0.820              1.334              0.760
 Vibration     5          0.880              1.195              0.598

 Normal termination of Gaussian 09 at Mon Jun 20 12:38:07 2016.
