 Gaussian 09, Revision E.01,
 Gaussian 09:  EM64L-G09RevE.01 30-Nov-2015

 ---------------------------------------------
 #p b3lyp/6-311++G(3df,2p) freq symmetry=Loose
 ---------------------------------------------

 ---------
 b3lyp opt
 ---------
 Symbolic Z-matrix:
 Charge =  0 Multiplicity = 1

                         Standard orientation:
 ---------------------------------------------------------------------
 Center     Atomic      Atomic             Coordinates (Angstroms)
 Number     Number       Type             X           Y           Z
 ---------------------------------------------------------------------
      1          6           0       -1.133421   -1.039677    0.000076
      2          1           0       -0.862969   -1.606979   -0.889866
      3          1           0       -0.862782   -1.607052    0.889915
      4          1           0       -2.211669   -0.887848    0.000196
      5          6           0        2.012569   -0.514801   -0.000233
      6          6           0       -0.393865    0.290419    0.000053
      7          6           0       -1.149243    1.355688    0.000176
      8          6           0        1.059379    0.367652   -0.000096
      9          1           0        1.564905    1.346191   -0.000109
 ---------------------------------------------------------------------

 SCF Done:  E(RB3LYP) =  -192.714328308     A.U. after   12 cycles

 The electronic state is 1-A.
 Alpha  occ. eigenvalues --  -10.25232 -10.24928 -10.22334 -10.21623 -10.21578
 Alpha  occ. eigenvalues --   -0.87366  -0.79250  -0.71863  -0.58669  -0.53190
 Alpha  occ. eigenvalues --   -0.46466  -0.45012  -0.42856  -0.36020  -0.32829
 Alpha  occ. eigenvalues --   -0.30786  -0.27552
 Alpha virt. eigenvalues --   -0.13108  -0.11087  -0.04638  -0.00907   0.00833
 Alpha virt. eigenvalues --    0.02436   0.02851   0.04146   0.04496   0.05805
 Alpha virt. eigenvalues --    0.06603   0.07247   0.08402   0.09250   0.10441

 Mulliken charges:
               1
     1  C   -0.645829
     2  H    0.177055
     3  H    0.177055
     4  H    0.152908
     5  C   -0.700615
     6  C    0.980655
     7  C   -0.634888
     8  C    0.303304
     9  H    0.190355
 Sum of Mulliken charges =  -0.00000

 Dipole moment (field-independent basis, Debye):
    X=             -0.8266    Y=             -0.8680    Z=              0.0001  Tot=              1.1987
 Quadrupole moment (field-independent basis, Debye-Ang):
   XX=            -35.9867   YY=            -32.0186   ZZ=            -32.3223
   XY=              8.9416   XZ=              0.0008   YZ=             -0.0009

  Exact polarizability:  73.524 -10.238  63.632  -0.004   0.002  42.684
 Approx polarizability: 113.907 -27.727 106.992  -0.007   0.005  61.862

                      1                      2                      3
                      A                      A                      A
 Frequencies --    145.4033               150.2498               160.4312
 Red. masses --      7.2164                 5.5970                 2.5937
 Frc consts  --      0.0899                 0.0744                 0.0393
 IR Inten    --     36.7464                 4.7916                19.0499

                      4                      5                      6
                      A                      A                      A
 Frequencies --    238.0233               344.9084               392.8772
 Red. masses --      1.1249                 3.3363                 2.4214
 Frc consts  --      0.0375                 0.2338                 0.2202
 IR Inten    --      2.4052                 3.8041                 2.9987

                      7                      8                      9
                      A                      A                      A
 Frequencies --    659.7467               775.5328               929.6940
 Red. masses --      1.9519                 5.5910                 1.3209
 Frc consts  --      0.5006                 1.9813                 0.6727
 IR Inten    --      9.8961                 1.8549                 2.1511

                     10                     11                     12
                      A                      A                      A
 Frequencies --   1037.3623              1046.4342              1132.5739
 Red. masses --      1.3904                 1.4406                 3.9183
 Frc consts  --      0.8816                 0.9294                 2.9613
 IR Inten    --      1.2950                 7.6457                 0.8024

                     13                     14                     15
                      A                      A                      A
 Frequencies --   1399.5357              1481.2359              1482.1065
 Red. masses --      1.1841                 1.0701                 1.0419
 Frc consts  --      1.3664                 1.3834                 1.3485
 IR Inten    --      0.2090                11.2711                10.9137

                     16                     17                     18
                      A                      A                      A
 Frequencies --   1686.3104              1769.9728              3006.3839
 Red. masses --      8.6084                 8.9634                 1.0788
 Frc consts  --     14.4227                16.5445                 5.7449
 IR Inten    --     65.1249                 3.7110                30.3871

                     19                     20                     21
                      A                      A                      A
 Frequencies --   3035.6862              3108.5390              3114.1100
 Red. masses --      1.0318                 1.1046                 1.1022
 Frc consts  --      5.6024                 6.2885                 6.2977
 IR Inten    --      6.1634                 4.0438                 3.0886

 - Thermochemistry -
 -------------------
 Temperature   298.150 Kelvin.  Pressure   1.00000 Atm.
 Atom     1 has atomic number  6 and mass  12.00000

 Molecular mass:    64.03130 amu.
 Principal axes and moments of inertia in atomic units:
                           1         2         3
     Eigenvalues --   176.06297 380.14178 544.80446
           X            0.99259   0.12147   0.00011
           Y           -0.12147   0.99259  -0.00004
           Z           -0.00011   0.00003   1.00000
 This molecule is an asymmetric top.
 Rotational symmetry number  1.
 Rotational temperatures (Kelvin)      0.49195     0.22785     0.15898
 Rotational constants (GHZ):          10.25054     4.74755     3.31264
 Zero-point vibrational energy     162076.8 (Joules/Mol)
                                   38.73727 (Kcal/Mol)
 Warning -- explicit consideration of   6 degrees of freedom as
           vibrations may cause significant error
 Vibrational temperatures:    209.20   216.18   230.82   342.46   496.25
          (Kelvin)            565.26   949.23  1115.82  1337.62  1492.53
                             1505.58  1629.52  2013.62  2131.17  2132.42
                             2426.22  2546.59  4325.51  4367.67  4472.49
                             4480.50

 Zero-point correction=                           0.061732 (Hartree/Particle)
 Thermal correction to Energy=                    0.068041
 Thermal correction to Enthalpy=                  0.068985
 Thermal correction to Gibbs Free Energy=         0.032681
 Sum of electronic and zero-point Energies=           -192.652597
 Sum of electronic and thermal Energies=              -192.646287
 Sum of electronic and thermal Enthalpies=            -192.645343
 Sum of electronic and thermal Free Energies=         -192.681647

                     E (Thermal)             CV                S
                      KCal/Mol        Cal/Mol-Kelvin    Cal/Mol-Kelvin
 Total                   42.696             19.830             76.409
 Electronic               0.000              0.000              0.000
 Translational            0.889              2.981             38.389
 Rotational               0.889              2.981             25.103
 Vibrational             40.919             13.869             12.916
 Vibration     1          0.617              1.908              2.732
 Vibration     2          0.618              1.902              2.669
 Vibration     3          0.622              1.891              2.545
 Vibration     4          0.656              1.782              1.818
 Vibration     5          0.723              1.586              1.189
 Vibration     6          0.760              1.485              0.989

 Optimization completed.
    -- Stationary point found.
 Normal termination of Gaussian 09 at Tue Jul 19 23:34:25 2016.
