 Gaussian 09, Revision E.01,
 Gaussian 09:  EM64L-G09RevE.01 30-Nov-2015

 ---------------------------------------------
 #p b3lyp/6-311++G(3df,2p) freq symmetry=Loose
 ---------------------------------------------

 ---------
 b3lyp opt
 ---------
 Symbolic Z-matrix:
 Charge =  3 Multiplicity = 4

                         Standard orientation:
 ---------------------------------------------------------------------
 Center     Atomic      Atomic             Coordinates (Angstroms)
 Number     Number       Type             X           Y           Z
 ---------------------------------------------------------------------
      1          6           0        1.612894   -0.589023    0.080078
      2          6           0        0.401409   -0.035576    0.128273
      3          1           0        2.429227   -1.371544    0.265542
      4          6           0        1.632397    0.727394   -0.406913
      5          6           0       -1.048054    0.303394    0.362975
      6          1           0       -1.272628    1.415956    0.280493
      7          1           0       -1.239015    0.168450    1.481467
      8          6           0       -2.056553   -0.372523   -0.422535
      9          1           0       -3.170137   -0.414854   -0.478768
 ---------------------------------------------------------------------

 SCF Done:  E(UB3LYP) =  -190.997039409     A.U. after   18 cycles

 The electronic state is 4-A.
 Alpha  occ. eigenvalues --  -11.08808 -11.03637 -10.99925 -10.98850 -10.92500
 Alpha  occ. eigenvalues --   -1.69453  -1.50994  -1.34397  -1.29239  -1.25558
 Alpha  occ. eigenvalues --   -1.18857  -1.15299  -1.12895  -1.09858  -1.09570
 Alpha  occ. eigenvalues --   -1.04474  -0.94799
 Alpha virt. eigenvalues --   -0.80055  -0.78639  -0.72460  -0.61863  -0.56750
 Alpha virt. eigenvalues --   -0.51873  -0.49230  -0.47659  -0.45907  -0.44628
 Alpha virt. eigenvalues --   -0.44345  -0.42996  -0.40025  -0.37439  -0.37092

  Beta  occ. eigenvalues --  -11.05836 -11.03088 -10.99597 -10.97045 -10.92369
  Beta  occ. eigenvalues --   -1.66317  -1.49015  -1.30809  -1.23599  -1.21920
  Beta  occ. eigenvalues --   -1.16016  -1.13828  -1.10352  -1.08168
  Beta virt. eigenvalues --   -0.94140  -0.87347  -0.77035  -0.75861  -0.75499
  Beta virt. eigenvalues --   -0.71374  -0.56599  -0.54577  -0.50608  -0.47753
  Beta virt. eigenvalues --   -0.46026  -0.44641  -0.43751  -0.43584  -0.42338

 Mulliken charges and spin densities:
               1          2
     1  C    0.658400   0.261548
     2  C    0.321638   0.059139
     3  H    0.462072   0.108612
     4  C    0.423210   1.438026
     5  C   -0.097906   0.057561
     6  H    0.332164   0.030386
     7  H    0.341383   0.038415
     8  C    0.176124   0.990718
     9  H    0.382915   0.015594
 Sum of Mulliken charges =   3.00000   3.00000

 Dipole moment (field-independent basis, Debye):
    X=             -0.7169    Y=             -0.2615    Z=              0.2598  Tot=              0.8061
 Quadrupole moment (field-independent basis, Debye-Ang):
   XX=             30.9411   YY=            -12.7143   ZZ=            -18.0111
   XY=             -2.3718   XZ=              0.3810   YZ=             -0.8743

  Exact polarizability:  66.631  -1.566  34.669  -1.501  -0.401  29.129
 Approx polarizability: 100.960   1.036  62.256  -6.686  -3.931  47.370

                      1                      2                      3
                      A                      A                      A
 Frequencies --     42.4781               217.7199               290.8728
 Red. masses --      3.3744                 4.2084                 2.9412
 Frc consts  --      0.0036                 0.1175                 0.1466
 IR Inten    --      1.1229                 8.5620                10.8244

                      4                      5                      6
                      A                      A                      A
 Frequencies --    431.1000               480.3428               515.3076
 Red. masses --      3.9522                 1.6032                 3.5452
 Frc consts  --      0.4328                 0.2179                 0.5547
 IR Inten    --     48.8828                10.6171                20.0407

                      7                      8                      9
                      A                      A                      A
 Frequencies --    586.2454               611.6720               667.5495
 Red. masses --      1.3271                 2.0163                 1.3794
 Frc consts  --      0.2687                 0.4445                 0.3622
 IR Inten    --     75.6449                40.6170                45.5226

                     10                     11                     12
                      A                      A                      A
 Frequencies --    792.1719               871.4633               980.0072
 Red. masses --      1.6582                 1.5542                 2.1997
 Frc consts  --      0.6131                 0.6954                 1.2447
 IR Inten    --     50.2802               185.3998                92.9309

                     13                     14                     15
                      A                      A                      A
 Frequencies --   1007.2271              1102.9013              1132.1645
 Red. masses --      1.8001                 1.1055                 2.2476
 Frc consts  --      1.0760                 0.7923                 1.6974
 IR Inten    --     79.0474                82.5981                82.5228

                     16                     17                     18
                      A                      A                      A
 Frequencies --   1277.1255              1621.3930              2555.4905
 Red. masses --      1.8111                 5.9372                 1.1065
 Frc consts  --      1.7405                 9.1962                 4.2573
 IR Inten    --     69.7923                41.0474              1077.2761

                     19                     20                     21
                      A                      A                      A
 Frequencies --   2595.3711              2639.1034              2909.1022
 Red. masses --      1.1083                 1.0752                 1.0997
 Frc consts  --      4.3986                 4.4123                 5.4835
 IR Inten    --    712.7548               177.7578               410.2387

 - Thermochemistry -
 -------------------
 Temperature   298.150 Kelvin.  Pressure   1.00000 Atm.
 Atom     1 has atomic number  6 and mass  12.00000

 Molecular mass:    64.03130 amu.
 Principal axes and moments of inertia in atomic units:
                           1         2         3
     Eigenvalues --    92.25942 559.90935 591.35100
           X            0.99954  -0.03036  -0.00231
           Y            0.03044   0.99807   0.05405
           Z            0.00066  -0.05410   0.99854
 This molecule is an asymmetric top.
 Rotational symmetry number  1.
 Rotational temperatures (Kelvin)      0.93881     0.15469     0.14647
 Rotational constants (GHZ):          19.56159     3.22327     3.05190
 Zero-point vibrational energy     139525.3 (Joules/Mol)
                                   33.34735 (Kcal/Mol)
 Warning -- explicit consideration of   8 degrees of freedom as
           vibrations may cause significant error
 Vibrational temperatures:     61.12   313.25   418.50   620.26   691.11
          (Kelvin)            741.41   843.48   880.06   960.45  1139.76
                             1253.84  1410.01  1449.17  1586.83  1628.93
                             1837.50  2332.82  3676.78  3734.16  3797.08
                             4185.54

 Zero-point correction=                           0.053142 (Hartree/Particle)
 Thermal correction to Energy=                    0.059249
 Thermal correction to Enthalpy=                  0.060194
 Thermal correction to Gibbs Free Energy=         0.022748
 Sum of electronic and zero-point Energies=           -190.943897
 Sum of electronic and thermal Energies=              -190.937790
 Sum of electronic and thermal Enthalpies=            -190.936846
 Sum of electronic and thermal Free Energies=         -190.974291

                     E (Thermal)             CV                S
                      KCal/Mol        Cal/Mol-Kelvin    Cal/Mol-Kelvin
 Total                   37.180             21.036             78.811
 Electronic               0.000              0.000              2.755
 Translational            0.889              2.981             38.389
 Rotational               0.889              2.981             24.927
 Vibrational             35.402             15.074             12.739
 Vibration     1          0.595              1.980              5.140
 Vibration     2          0.646              1.814              1.978
 Vibration     3          0.687              1.691              1.469
 Vibration     4          0.792              1.402              0.855
 Vibration     5          0.837              1.294              0.709
 Vibration     6          0.870              1.216              0.621
 Vibration     7          0.943              1.061              0.474
 Vibration     8          0.971              1.007              0.430

 Optimization completed.
    -- Stationary point found.
 Normal termination of Gaussian 09 at Mon Jun 20 13:24:33 2016.
