 Gaussian 09, Revision E.01,
 Gaussian 09:  EM64L-G09RevE.01 30-Nov-2015

 ---------------------------------------------
 #p b3lyp/6-311++G(3df,2p) freq symmetry=Loose
 ---------------------------------------------

 ---------
 b3lyp opt
 ---------
 Symbolic Z-matrix:
 Charge =  3 Multiplicity = 2

                         Standard orientation:
 ---------------------------------------------------------------------
 Center     Atomic      Atomic             Coordinates (Angstroms)
 Number     Number       Type             X           Y           Z
 ---------------------------------------------------------------------
      1          6           0       -1.181366   -0.003197   -0.000067
      2          1           0       -3.212199   -0.767917   -0.000063
      3          6           0       -2.532794    0.127124   -0.000166
      4          1           0       -3.035172    1.131881   -0.000354
      5          6           0        0.081493   -0.132876    0.000026
      6          6           0        2.569958    0.631028    0.000048
      7          6           0        1.489883   -0.359069    0.000143
      8          1           0        1.842220   -0.971156   -0.919707
      9          1           0        1.842114   -0.970865    0.920227
 ---------------------------------------------------------------------

 SCF Done:  E(UB3LYP) =  -191.085637184     A.U. after   22 cycles

 The electronic state is 2-A.
 Alpha  occ. eigenvalues --  -11.07273 -10.99759 -10.95203 -10.94227 -10.92246
 Alpha  occ. eigenvalues --   -1.55147  -1.49879  -1.41115  -1.30870  -1.17307
 Alpha  occ. eigenvalues --   -1.15922  -1.14157  -1.11501  -1.03382  -1.02200
 Alpha  occ. eigenvalues --   -0.98399
 Alpha virt. eigenvalues --   -0.82385  -0.80914  -0.78341  -0.70057  -0.60964
 Alpha virt. eigenvalues --   -0.52380  -0.50429  -0.48275  -0.46458  -0.42501
 Alpha virt. eigenvalues --   -0.41565  -0.40474  -0.39734  -0.38802  -0.36586

  Beta  occ. eigenvalues --  -11.06957 -10.98915 -10.94764 -10.94248 -10.92260
  Beta  occ. eigenvalues --   -1.53524  -1.48555  -1.39957  -1.29943  -1.16586
  Beta  occ. eigenvalues --   -1.15292  -1.13769  -1.09496  -1.01568  -0.99760
  Beta virt. eigenvalues --   -0.88507  -0.82056  -0.80327  -0.77960  -0.65790
  Beta virt. eigenvalues --   -0.60528  -0.51662  -0.49174  -0.47774  -0.46243
  Beta virt. eigenvalues --   -0.42228  -0.40964  -0.40032  -0.39504  -0.38252

 Mulliken charges and spin densities:
               1          2
     1  C    0.906251   0.249627
     2  H    0.368566   0.036807
     3  C   -0.116490   0.003459
     4  H    0.366400   0.038020
     5  C    0.469681   0.557905
     6  C    0.438873   0.169514
     7  C   -0.171712  -0.097937
     8  H    0.369215   0.021302
     9  H    0.369215   0.021302
 Sum of Mulliken charges =   3.00000   1.00000

 Dipole moment (field-independent basis, Debye):
    X=             -0.6384    Y=             -0.4820    Z=              0.0000  Tot=              0.7999
 Quadrupole moment (field-independent basis, Debye-Ang):
   XX=             50.8379   YY=            -15.6541   ZZ=            -20.0450
   XY=             -2.9873   XZ=              0.0046   YZ=             -0.0009

  Exact polarizability: 124.566   3.132  33.180   0.005  -0.001  27.283
 Approx polarizability: 222.619  12.195  56.492   0.008  -0.002  41.755

                      1                      2                      3
                      A                      A                      A
 Frequencies --    117.3531               157.7665               202.5883
 Red. masses --      1.1807                 4.7826                 2.7728
 Frc consts  --      0.0096                 0.0701                 0.0670
 IR Inten    --      0.7306                 9.6434                32.4953

                      4                      5                      6
                      A                      A                      A
 Frequencies --    325.0528               409.0462               472.9280
 Red. masses --      3.5346                 2.9232                 4.4680
 Frc consts  --      0.2200                 0.2882                 0.5888
 IR Inten    --     12.2475                 0.0140                 0.3350

                      7                      8                      9
                      A                      A                      A
 Frequencies --    595.1336               678.6845               812.0632
 Red. masses --      2.0900                 5.3568                 1.7333
 Frc consts  --      0.4361                 1.4537                 0.6734
 IR Inten    --     11.5279                 6.8053                66.9339

                     10                     11                     12
                      A                      A                      A
 Frequencies --    851.8561              1007.8705              1067.4697
 Red. masses --      1.6755                 1.1768                 1.3724
 Frc consts  --      0.7163                 0.7043                 0.9214
 IR Inten    --     15.2730                 2.4392                24.0484

                     13                     14                     15
                      A                      A                      A
 Frequencies --   1110.0924              1170.3856              1253.3891
 Red. masses --      1.4152                 2.0402                 1.1272
 Frc consts  --      1.0275                 1.6465                 1.0433
 IR Inten    --    299.7789               147.6568               156.3758

                     16                     17                     18
                      A                      A                      A
 Frequencies --   1314.7954              1966.0026              2468.2416
 Red. masses --      4.0708                11.4569                 1.0892
 Frc consts  --      4.1461                26.0908                 3.9097
 IR Inten    --    151.6318                96.6853               400.6410

                     19                     20                     21
                      A                      A                      A
 Frequencies --   2472.0822              2739.3776              2819.4829
 Red. masses --      1.0544                 1.0444                 1.1136
 Frc consts  --      3.7966                 4.6178                 5.2156
 IR Inten    --    680.0863              1160.2748               364.8519

 - Thermochemistry -
 -------------------
 Temperature   298.150 Kelvin.  Pressure   1.00000 Atm.
 Atom     1 has atomic number  6 and mass  12.00000

 Molecular mass:    64.03130 amu.
 Principal axes and moments of inertia in atomic units:
                           1         2         3
     Eigenvalues --    43.18603 813.92152 844.92363
           X            0.99979  -0.02062  -0.00006
           Y            0.02062   0.99979   0.00016
           Z            0.00005  -0.00016   1.00000
 This molecule is an asymmetric top.
 Rotational symmetry number  1.
 Rotational temperatures (Kelvin)      2.00560     0.10642     0.10251
 Rotational constants (GHZ):          41.78993     2.21734     2.13598
 Zero-point vibrational energy     143621.6 (Joules/Mol)
                                   34.32639 (Kcal/Mol)
 Warning -- explicit consideration of   7 degrees of freedom as
           vibrations may cause significant error
 Vibrational temperatures:    168.84   226.99   291.48   467.68   588.53
          (Kelvin)            680.44   856.26   976.47  1168.38  1225.63
                             1450.10  1535.85  1597.17  1683.92  1803.35
                             1891.69  2828.64  3551.24  3556.77  3941.35
                             4056.60

 Zero-point correction=                           0.054703 (Hartree/Particle)
 Thermal correction to Energy=                    0.060915
 Thermal correction to Enthalpy=                  0.061859
 Thermal correction to Gibbs Free Energy=         0.025309
 Sum of electronic and zero-point Energies=           -191.030935
 Sum of electronic and thermal Energies=              -191.024722
 Sum of electronic and thermal Enthalpies=            -191.023778
 Sum of electronic and thermal Free Energies=         -191.060328

                     E (Thermal)             CV                S
                      KCal/Mol        Cal/Mol-Kelvin    Cal/Mol-Kelvin
 Total                   38.225             20.632             76.926
 Electronic               0.000              0.000              1.377
 Translational            0.889              2.981             38.389
 Rotational               0.889              2.981             24.899
 Vibrational             36.447             14.670             12.260
 Vibration     1          0.608              1.935              3.144
 Vibration     2          0.621              1.894              2.576
 Vibration     3          0.639              1.836              2.109
 Vibration     4          0.709              1.625              1.285
 Vibration     5          0.773              1.451              0.930
 Vibration     6          0.830              1.310              0.729
 Vibration     7          0.953              1.042              0.458

 Optimization completed.
    -- Stationary point found.
 Normal termination of Gaussian 09 at Wed Jul 20 00:25:51 2016.
