 Gaussian 09, Revision E.01,
 Gaussian 09:  EM64L-G09RevE.01 30-Nov-2015

 ---------------------------------------------
 #p b3lyp/6-311++G(3df,2p) freq symmetry=Loose
 ---------------------------------------------

 ---------
 b3lyp opt
 ---------
 Symbolic Z-matrix:
 Charge =  0 Multiplicity = 3

                         Standard orientation:
 ---------------------------------------------------------------------
 Center     Atomic      Atomic             Coordinates (Angstroms)
 Number     Number       Type             X           Y           Z
 ---------------------------------------------------------------------
      1          6           0       -1.614154   -0.582339   -0.427134
      2          6           0       -0.326945   -0.326431    0.328099
      3          1           0       -0.220701   -0.789215    1.312134
      4          6           0        0.891124    0.072373   -0.282397
      5          6           0        2.181402    0.099875   -0.022609
      6          1           0        2.577727   -0.253970    0.930852
      7          1           0        2.908971    0.469911   -0.735197
      8          6           0       -1.677196    0.573391    0.088317
      9          1           0       -1.991384    1.552066    0.386559
 ---------------------------------------------------------------------

 SCF Done:  E(UB3LYP) =  -192.727724453     A.U. after   17 cycles

 The electronic state is 3-A.
 Alpha  occ. eigenvalues --  -10.24290 -10.21189 -10.20940 -10.20933 -10.19100
 Alpha  occ. eigenvalues --   -0.89755  -0.79429  -0.67240  -0.58228  -0.54084
 Alpha  occ. eigenvalues --   -0.48255  -0.46434  -0.42224  -0.39533  -0.31774
 Alpha  occ. eigenvalues --   -0.29371  -0.23892  -0.23129
 Alpha virt. eigenvalues --   -0.02754  -0.00469  -0.00137   0.01101   0.01581
 Alpha virt. eigenvalues --    0.03275   0.04052   0.05566   0.06922   0.08194
 Alpha virt. eigenvalues --    0.08988   0.09318   0.10132   0.10425   0.10877

  Beta  occ. eigenvalues --  -10.23759 -10.21082 -10.19953 -10.19620 -10.18842
  Beta  occ. eigenvalues --   -0.88448  -0.77213  -0.65665  -0.57475  -0.51903
  Beta  occ. eigenvalues --   -0.47018  -0.44488  -0.39414  -0.37489  -0.28701
  Beta  occ. eigenvalues --   -0.27998
  Beta virt. eigenvalues --   -0.13211  -0.09105  -0.01307  -0.00159   0.00446
  Beta virt. eigenvalues --    0.01674   0.01787   0.03537   0.04293   0.05803
  Beta virt. eigenvalues --    0.07199   0.08911   0.09052   0.09911   0.10520

 Mulliken charges and spin densities:
               1          2
     1  C   -0.456077   0.578390
     2  C    0.141165   0.204666
     3  H    0.162919   0.049291
     4  C    0.116846   0.950050
     5  C   -0.638876   0.089498
     6  H    0.121337   0.077002
     7  H    0.179039   0.021618
     8  C    0.097941   0.026948
     9  H    0.275707   0.002537
 Sum of Mulliken charges =  -0.00000   2.00000

 Dipole moment (field-independent basis, Debye):
    X=              0.9402    Y=              1.3206    Z=              1.5555  Tot=              2.2466
 Quadrupole moment (field-independent basis, Debye-Ang):
   XX=            -28.5477   YY=            -30.3269   ZZ=            -30.4395
   XY=             -3.4394   XZ=             -1.2417   YZ=             -0.8886

  Exact polarizability: 105.729   4.848  50.704   5.809   1.447  47.999
 Approx polarizability: 159.324  11.045  83.386  13.346   7.565  72.174

                      1                      2                      3
                      A                      A                      A
 Frequencies --    169.5339               217.9832               314.1821
 Red. masses --      3.6598                 3.0112                 2.0463
 Frc consts  --      0.0620                 0.0843                 0.1190
 IR Inten    --      4.1444                 0.5322                14.6514

                      4                      5                      6
                      A                      A                      A
 Frequencies --    441.6642               539.3556               604.9725
 Red. masses --      4.5703                 4.5774                 1.6590
 Frc consts  --      0.5253                 0.7846                 0.3577
 IR Inten    --      3.5011                 7.9347                 3.1898

                      7                      8                      9
                      A                      A                      A
 Frequencies --    638.2212               842.1302               857.7110
 Red. masses --      1.4169                 1.3930                 1.8841
 Frc consts  --      0.3400                 0.5820                 0.8167
 IR Inten    --     51.1460                68.3915                 2.6658

                     10                     11                     12
                      A                      A                      A
 Frequencies --    882.6934               939.1170               996.4875
 Red. masses --      1.3447                 1.3379                 2.4922
 Frc consts  --      0.6173                 0.6952                 1.4580
 IR Inten    --     45.9161                 1.6669                28.1808

                     13                     14                     15
                      A                      A                      A
 Frequencies --   1086.9228              1304.7674              1418.6209
 Red. masses --      3.6804                 1.1715                 1.1512
 Frc consts  --      2.5618                 1.1750                 1.3651
 IR Inten    --     13.8078                 5.6398                17.0524

                     16                     17                     18
                      A                      A                      A
 Frequencies --   1637.8282              1772.2817              3020.3189
 Red. masses --      7.3511                 6.6068                 1.0811
 Frc consts  --     11.6182                12.2267                 5.8105
 IR Inten    --      4.3088                61.9163                18.4271

                     19                     20                     21
                      A                      A                      A
 Frequencies --   3041.2561              3160.1748              3337.5390
 Red. masses --      1.0642                 1.1002                 1.1258
 Frc consts  --      5.7995                 6.4736                 7.3884
 IR Inten    --     11.0156                 1.6021                28.1369

 - Thermochemistry -
 -------------------
 Temperature   298.150 Kelvin.  Pressure   1.00000 Atm.
 Atom     1 has atomic number  6 and mass  12.00000

 Molecular mass:    64.03130 amu.
 Principal axes and moments of inertia in atomic units:
                           1         2         3
     Eigenvalues --    73.40111 570.22387 589.33856
           X            0.99987  -0.01603  -0.00201
           Y            0.01538   0.98272  -0.18447
           Z            0.00493   0.18441   0.98284
 This molecule is an asymmetric top.
 Rotational symmetry number  1.
 Rotational temperatures (Kelvin)      1.18001     0.15189     0.14697
 Rotational constants (GHZ):          24.58738     3.16497     3.06232
 Zero-point vibrational energy     162834.3 (Joules/Mol)
                                   38.91832 (Kcal/Mol)
 Warning -- explicit consideration of   6 degrees of freedom as
           vibrations may cause significant error
 Vibrational temperatures:    243.92   313.63   452.04   635.46   776.01
          (Kelvin)            870.42   918.26  1211.64  1234.05  1270.00
                             1351.18  1433.72  1563.84  1877.27  2041.08
                             2356.47  2549.91  4345.56  4375.68  4546.78
                             4801.97

 Zero-point correction=                           0.062020 (Hartree/Particle)
 Thermal correction to Energy=                    0.067484
 Thermal correction to Enthalpy=                  0.068428
 Thermal correction to Gibbs Free Energy=         0.033228
 Sum of electronic and zero-point Energies=           -192.665704
 Sum of electronic and thermal Energies=              -192.660240
 Sum of electronic and thermal Enthalpies=            -192.659296
 Sum of electronic and thermal Free Energies=         -192.694497

                     E (Thermal)             CV                S
                      KCal/Mol        Cal/Mol-Kelvin    Cal/Mol-Kelvin
 Total                   42.347             18.926             74.086
 Electronic               0.000              0.000              2.183
 Translational            0.889              2.981             38.389
 Rotational               0.889              2.981             24.715
 Vibrational             40.569             12.965              8.798
 Vibration     1          0.625              1.880              2.441
 Vibration     2          0.646              1.814              1.976
 Vibration     3          0.702              1.647              1.340
 Vibration     4          0.801              1.379              0.821
 Vibration     5          0.894              1.163              0.567
 Vibration     6          0.964              1.021              0.441

 Optimization completed.
    -- Stationary point found.
 Normal termination of Gaussian 09 at Mon Jun 20 03:23:24 2016.
