 Gaussian 09, Revision E.01,
 Gaussian 09:  EM64L-G09RevE.01 30-Nov-2015

 ---------------------------------------------
 #p b3lyp/6-311++G(3df,2p) freq symmetry=Loose
 ---------------------------------------------

 ---------
 b3lyp opt
 ---------
 Symbolic Z-matrix:
 Charge =  0 Multiplicity = 3

                         Standard orientation:
 ---------------------------------------------------------------------
 Center     Atomic      Atomic             Coordinates (Angstroms)
 Number     Number       Type             X           Y           Z
 ---------------------------------------------------------------------
      1          6           0        1.005171   -0.549704    0.000573
      2          1           0        1.151137   -1.209377   -0.869769
      3          1           0        1.150608   -1.208325    0.871660
      4          6           0        1.960362    0.563310   -0.000021
      5          1           0        3.037177    0.636082   -0.003218
      6          6           0       -0.422145   -0.155718    0.000092
      7          6           0       -1.761882   -0.607317   -0.000804
      8          6           0       -1.387183    0.749708    0.000248
      9          1           0       -1.704854    1.779939    0.000796
 ---------------------------------------------------------------------

 SCF Done:  E(UB3LYP) =  -192.705150865     A.U. after   14 cycles

 The electronic state is 3-A.
 Alpha  occ. eigenvalues --  -10.23394 -10.22692 -10.22612 -10.22255 -10.18803
 Alpha  occ. eigenvalues --   -0.93080  -0.81514  -0.65559  -0.58808  -0.53590
 Alpha  occ. eigenvalues --   -0.48166  -0.47740  -0.43848  -0.37279  -0.33233
 Alpha  occ. eigenvalues --   -0.28035  -0.23920  -0.23509
 Alpha virt. eigenvalues --   -0.03299  -0.01995  -0.01151   0.00640   0.01308
 Alpha virt. eigenvalues --    0.02462   0.04878   0.05810   0.06975   0.07191
 Alpha virt. eigenvalues --    0.08543   0.08751   0.09612   0.10228   0.11084

  Beta  occ. eigenvalues --  -10.23305 -10.22747 -10.22256 -10.19768 -10.18806
  Beta  occ. eigenvalues --   -0.93017  -0.79596  -0.60950  -0.58320  -0.52422
  Beta  occ. eigenvalues --   -0.46880  -0.46310  -0.43056  -0.36902  -0.32925
  Beta  occ. eigenvalues --   -0.23451
  Beta virt. eigenvalues --   -0.10311  -0.07322  -0.03049  -0.01859  -0.00912
  Beta virt. eigenvalues --    0.00700   0.01489   0.02694   0.05411   0.05820
  Beta virt. eigenvalues --    0.07187   0.07280   0.08864   0.09990   0.10060

 Mulliken charges and spin densities:
               1          2
     1  C   -0.069209  -0.104455
     2  H    0.149987   0.064141
     3  H    0.150193   0.064141
     4  C   -0.492799   2.014483
     5  H    0.227153   0.003235
     6  C    0.157052   0.001859
     7  C   -0.674407  -0.022623
     8  C    0.298985  -0.018187
     9  H    0.253044  -0.002593
 Sum of Mulliken charges =  -0.00000   2.00000

 Dipole moment (field-independent basis, Debye):
    X=              3.0964    Y=              1.4785    Z=              0.0010  Tot=              3.4313
 Quadrupole moment (field-independent basis, Debye-Ang):
   XX=            -34.0515   YY=            -30.5386   ZZ=            -30.1853
   XY=             -7.8784   XZ=             -0.0146   YZ=             -0.0038

  Exact polarizability:  69.279   1.428  56.060   0.001   0.004  42.181
 Approx polarizability:  88.310  -2.469  82.669   0.000   0.007  62.373

                      1                      2                      3
                      A                      A                      A
 Frequencies --     73.8019               120.2557               203.4389
 Red. masses --      2.6436                 1.1812                 3.7973
 Frc consts  --      0.0085                 0.0101                 0.0926
 IR Inten    --     20.2060                43.1783                 9.1611

                      4                      5                      6
                      A                      A                      A
 Frequencies --    359.6619               474.0319               702.6841
 Red. masses --      2.7039                 4.9955                 2.1989
 Frc consts  --      0.2061                 0.6614                 0.6397
 IR Inten    --      0.3710                 7.3192                 1.1503

                      7                      8                      9
                      A                      A                      A
 Frequencies --    835.6033               875.7458               930.4793
 Red. masses --      1.5824                 1.3089                 1.6031
 Frc consts  --      0.6510                 0.5914                 0.8178
 IR Inten    --      0.4612                10.5755                 9.8621

                     10                     11                     12
                      A                      A                      A
 Frequencies --    963.7142              1091.9082              1129.4040
 Red. masses --      1.6062                 5.0506                 3.7296
 Frc consts  --      0.8789                 3.5479                 2.8029
 IR Inten    --      2.4144                 1.2291                17.5649

                     13                     14                     15
                      A                      A                      A
 Frequencies --   1179.8590              1286.5021              1340.7717
 Red. masses --      1.0933                 3.0463                 2.6284
 Frc consts  --      0.8967                 2.9706                 2.7839
 IR Inten    --      0.0003                17.2612                28.0441

                     16                     17                     18
                      A                      A                      A
 Frequencies --   1407.4336              1765.8101              2929.6862
 Red. masses --      1.0828                 7.8954                 1.0563
 Frc consts  --      1.2638                14.5047                 5.3419
 IR Inten    --     14.8972                12.6931                 6.0730

                     19                     20                     21
                      A                      A                      A
 Frequencies --   2944.1515              3221.4214              3230.7981
 Red. masses --      1.0957                 1.0915                 1.1133
 Frc consts  --      5.5959                 6.6740                 6.8467
 IR Inten    --      1.7331                 2.3277                 0.0811

 - Thermochemistry -
 -------------------
 Temperature   298.150 Kelvin.  Pressure   1.00000 Atm.
 Atom     1 has atomic number  6 and mass  12.00000

 Molecular mass:    64.03130 amu.
 Principal axes and moments of inertia in atomic units:
                           1         2         3
     Eigenvalues --    95.82993 489.51061 574.42611
           X            0.99939  -0.03499  -0.00007
           Y            0.03499   0.99939  -0.00007
           Z            0.00007   0.00007   1.00000
 This molecule is an asymmetric top.
 Rotational symmetry number  1.
 Rotational temperatures (Kelvin)      0.90383     0.17694     0.15078
 Rotational constants (GHZ):          18.83275     3.68683     3.14182
 Zero-point vibrational energy     161897.6 (Joules/Mol)
                                   38.69445 (Kcal/Mol)
 Warning -- explicit consideration of   5 degrees of freedom as
           vibrations may cause significant error
 Vibrational temperatures:    106.18   173.02   292.70   517.47   682.03
          (Kelvin)           1011.00  1202.25  1260.00  1338.75  1386.57
                             1571.01  1624.96  1697.55  1850.99  1929.07
                             2024.98  2540.60  4215.16  4235.97  4634.90
                             4648.39

 Zero-point correction=                           0.061664 (Hartree/Particle)
 Thermal correction to Energy=                    0.067555
 Thermal correction to Enthalpy=                  0.068499
 Thermal correction to Gibbs Free Energy=         0.031639
 Sum of electronic and zero-point Energies=           -192.643487
 Sum of electronic and thermal Energies=              -192.637596
 Sum of electronic and thermal Enthalpies=            -192.636652
 Sum of electronic and thermal Free Energies=         -192.673512

                     E (Thermal)             CV                S
                      KCal/Mol        Cal/Mol-Kelvin    Cal/Mol-Kelvin
 Total                   42.391             18.567             77.579
 Electronic               0.000              0.000              2.183
 Translational            0.889              2.981             38.389
 Rotational               0.889              2.981             24.803
 Vibrational             40.614             12.605             12.204
 Vibration     1          0.599              1.966              4.049
 Vibration     2          0.609              1.932              3.096
 Vibration     3          0.639              1.835              2.102
 Vibration     4          0.734              1.555              1.124
 Vibration     5          0.831              1.308              0.726

 Normal termination of Gaussian 09 at Mon Jun 20 03:42:23 2016.
