 Gaussian 09, Revision E.01,
 Gaussian 09:  EM64L-G09RevE.01 30-Nov-2015

 ------------------------------------------------------
 #p b3lyp/6-311++G(3df,2p) freq IOp(2/17=3) IOp(2/18=3)
 ------------------------------------------------------

 ---------
 b3lyp opt
 ---------
 Symbolic Z-matrix:
 Charge =  1 Multiplicity = 4

                         Standard orientation:
 ---------------------------------------------------------------------
 Center     Atomic      Atomic             Coordinates (Angstroms)
 Number     Number       Type             X           Y           Z
 ---------------------------------------------------------------------
      1          6           0       -1.439053   -1.257679    0.000000
      2          6           0       -0.442122   -0.311976    0.000000
      3          6           0        0.000000    0.986487    0.000000
      4          6           0        1.216793    1.750327    0.000000
      5          1           0        1.251338    2.407218    0.878088
      6          1           0        2.108319    1.110334    0.000000
      7          1           0        1.251338    2.407218   -0.878088
      8          6           0       -0.192582   -1.732171    0.000000
      9          1           0        0.530716   -2.534710    0.000000
 ---------------------------------------------------------------------

 SCF Done:  E(UB3LYP) =  -192.420514818     A.U. after   15 cycles

 The electronic state is 4-A".
 Alpha  occ. eigenvalues --  -10.50417 -10.49987 -10.49250 -10.47118 -10.38328
 Alpha  occ. eigenvalues --   -1.19975  -1.02850  -0.91311  -0.83289  -0.73679
 Alpha  occ. eigenvalues --   -0.69567  -0.67060  -0.65813  -0.62549  -0.62372
 Alpha  occ. eigenvalues --   -0.55716  -0.47810  -0.45455
 Alpha virt. eigenvalues --   -0.27601  -0.21415  -0.15313  -0.13100  -0.12014
 Alpha virt. eigenvalues --   -0.10614  -0.10337  -0.08727  -0.07699  -0.07583
 Alpha virt. eigenvalues --   -0.06737  -0.06263  -0.05659  -0.04563  -0.02825

  Beta  occ. eigenvalues --  -10.49623 -10.48670 -10.48589 -10.44733 -10.38320
  Beta  occ. eigenvalues --   -1.17974  -0.98771  -0.89057  -0.81634  -0.68506
  Beta  occ. eigenvalues --   -0.66854  -0.63746  -0.63286  -0.60779  -0.60379
  Beta virt. eigenvalues --   -0.39349  -0.36351  -0.29310  -0.24227  -0.16251
  Beta virt. eigenvalues --   -0.14935  -0.12529  -0.11432  -0.10067  -0.09979
  Beta virt. eigenvalues --   -0.08285  -0.07265  -0.06714  -0.05994  -0.05316

 Mulliken charges and spin densities:
               1          2
     1  C    0.029696   1.000361
     2  C    0.355059   0.130080
     3  C   -0.136438   1.417845
     4  C   -0.374291  -0.058029
     5  H    0.214674   0.049002
     6  H    0.184588   0.072019
     7  H    0.214674   0.049002
     8  C    0.199587   0.334556
     9  H    0.312452   0.005165
 Sum of Mulliken charges =   1.00000   3.00000

 Dipole moment (field-independent basis, Debye):
    X=              1.1952    Y=             -1.3311    Z=             -0.0000  Tot=              1.7889
 Quadrupole moment (field-independent basis, Debye-Ang):
   XX=            -21.4622   YY=            -10.6021   ZZ=            -26.3234
   XY=              4.5774   XZ=             -0.0000   YZ=             -0.0000

  Exact polarizability:  52.430  15.243  71.055  -0.000  -0.000  32.172
 Approx polarizability:  80.309  15.312 100.222   0.000  -0.000  47.405

                      1                      2                      3
                     A"                     A'                     A"
 Frequencies --     79.6275               168.6725               220.5149
 Red. masses --      1.1061                 3.1701                 4.2824
 Frc consts  --      0.0041                 0.0531                 0.1227
 IR Inten    --      2.7704                 1.3482                 0.1323

                      4                      5                      6
                     A"                     A'                     A'
 Frequencies --    453.1842               485.5087               698.6600
 Red. masses --      5.3223                 4.2297                 4.0271
 Frc consts  --      0.6440                 0.5874                 1.1582
 IR Inten    --      0.4177                 4.0133                 3.1094

                      7                      8                      9
                     A"                     A'                     A"
 Frequencies --    843.9627               887.0209               942.5718
 Red. masses --      1.3648                 1.6953                 1.4144
 Frc consts  --      0.5728                 0.7859                 0.7404
 IR Inten    --     23.5371                 9.2798                 5.6473

                     10                     11                     12
                     A'                     A'                     A'
 Frequencies --   1003.3535              1047.2843              1221.0187
 Red. masses --      1.7363                 2.6015                 6.6389
 Frc consts  --      1.0299                 1.6811                 5.8317
 IR Inten    --     40.0306                70.7357                92.9783

                     13                     14                     15
                     A'                     A"                     A'
 Frequencies --   1368.8920              1390.4089              1409.7448
 Red. masses --      1.1867                 1.0397                 1.0763
 Frc consts  --      1.3101                 1.1843                 1.2602
 IR Inten    --     46.8617                12.3260                23.3071

                     16                     17                     18
                     A'                     A'                     A'
 Frequencies --   1530.0882              1755.6319              2961.8504
 Red. masses --      8.2046                10.2845                 1.0330
 Frc consts  --     11.3172                18.6766                 5.3392
 IR Inten    --     12.0238                15.1462                56.7144

                     19                     20                     21
                     A"                     A'                     A'
 Frequencies --   3025.5748              3029.9868              3240.7155
 Red. masses --      1.0949                 1.0984                 1.1144
 Frc consts  --      5.9051                 5.9413                 6.8958
 IR Inten    --     11.0070                17.7218                81.4064

 - Thermochemistry -
 -------------------
 Temperature   298.150 Kelvin.  Pressure   1.00000 Atm.
 Atom     1 has atomic number  6 and mass  12.00000

 Molecular mass:    64.03130 amu.
 Principal axes and moments of inertia in atomic units:
                           1         2         3
     Eigenvalues --    73.05396 569.18952 631.14358
           X            0.49483   0.86899   0.00000
           Y            0.86899  -0.49483   0.00000
           Z            0.00000  -0.00000   1.00000
 This molecule is an asymmetric top.
 Rotational symmetry number  1.
 Rotational temperatures (Kelvin)      1.18561     0.15217     0.13723
 Rotational constants (GHZ):          24.70422     3.17072     2.85948
 Zero-point vibrational energy     166067.2 (Joules/Mol)
                                   39.69102 (Kcal/Mol)
 Warning -- explicit consideration of   5 degrees of freedom as
           vibrations may cause significant error
 Vibrational temperatures:    114.57   242.68   317.27   652.03   698.54
          (Kelvin)           1005.21  1214.27  1276.22  1356.15  1443.60
                             1506.81  1756.77  1969.53  2000.49  2028.31
                             2201.45  2525.96  4261.44  4353.12  4359.47
                             4662.66

 Zero-point correction=                           0.063252 (Hartree/Particle)
 Thermal correction to Energy=                    0.068890
 Thermal correction to Enthalpy=                  0.069834
 Thermal correction to Gibbs Free Energy=         0.033376
 Sum of electronic and zero-point Energies=           -192.357263
 Sum of electronic and thermal Energies=              -192.351625
 Sum of electronic and thermal Enthalpies=            -192.350681
 Sum of electronic and thermal Free Energies=         -192.387139

                     E (Thermal)             CV                S
                      KCal/Mol        Cal/Mol-Kelvin    Cal/Mol-Kelvin
 Total                   43.229             17.947             76.732
 Electronic               0.000              0.000              2.755
 Translational            0.889              2.981             38.389
 Rotational               0.889              2.981             24.777
 Vibrational             41.452             11.986             10.812
 Vibration     1          0.600              1.963              3.900
 Vibration     2          0.625              1.881              2.450
 Vibration     3          0.647              1.810              1.955
 Vibration     4          0.812              1.354              0.786
 Vibration     5          0.842              1.282              0.695

 Optimization completed.
    -- Stationary point found.
 Normal termination of Gaussian 09 at Thu Jan 31 07:28:55 2019.
