 Gaussian 09, Revision E.01,
 Gaussian 09:  EM64L-G09RevE.01 30-Nov-2015

 ---------------------------------------------
 #p b3lyp/6-311++G(3df,2p) freq symmetry=Loose
 ---------------------------------------------

 ---------
 b3lyp opt
 ---------
 Symbolic Z-matrix:
 Charge =  2 Multiplicity = 3

                         Standard orientation:
 ---------------------------------------------------------------------
 Center     Atomic      Atomic             Coordinates (Angstroms)
 Number     Number       Type             X           Y           Z
 ---------------------------------------------------------------------
      1          6           0        1.362172    0.532964    0.000000
      2          6           0        2.593201    0.391754    0.000000
      3          6           0       -0.000000    0.774744    0.000000
      4          1           0       -0.397392    1.808360   -0.000000
      5          6           0       -0.889917   -0.206939   -0.000000
      6          6           0       -1.880457   -1.137953   -0.000000
      7          1           0       -1.953783   -1.733704    0.932520
      8          1           0       -2.805035   -0.468374   -0.000000
      9          1           0       -1.953783   -1.733704   -0.932520
 ---------------------------------------------------------------------

 SCF Done:  E(UB3LYP) =  -191.871142295     A.U. after   19 cycles

 The electronic state is 3-A".
 Alpha  occ. eigenvalues --  -10.79077 -10.74638 -10.70197 -10.69494 -10.64582
 Alpha  occ. eigenvalues --   -1.33325  -1.26545  -1.21577  -1.06402  -0.96969
 Alpha  occ. eigenvalues --   -0.93853  -0.90767  -0.87283  -0.84673  -0.82859
 Alpha  occ. eigenvalues --   -0.76104  -0.74619
 Alpha virt. eigenvalues --   -0.58356  -0.52653  -0.43158  -0.36625  -0.34476
 Alpha virt. eigenvalues --   -0.28904  -0.28063  -0.26855  -0.26024  -0.24442
 Alpha virt. eigenvalues --   -0.24166  -0.22631  -0.21841  -0.21054  -0.19136

  Beta  occ. eigenvalues --  -10.78569 -10.71482 -10.70189 -10.69073 -10.64589
  Beta  occ. eigenvalues --   -1.32328  -1.24786  -1.18576  -1.05200  -0.96778
  Beta  occ. eigenvalues --   -0.93516  -0.89185  -0.87111  -0.79310  -0.73849
  Beta virt. eigenvalues --   -0.63623  -0.60623  -0.57457  -0.47870  -0.39937
  Beta virt. eigenvalues --   -0.34271  -0.31508  -0.28772  -0.27919  -0.26588
  Beta virt. eigenvalues --   -0.25886  -0.24313  -0.23867  -0.22481  -0.21362

 Mulliken charges and spin densities:
               1          2
     1  C    0.576877   0.174124
     2  C    0.324115   1.421527
     3  C   -0.459257   0.046622
     4  H    0.268986  -0.010922
     5  C    0.626287   0.301107
     6  C   -0.206690   0.009416
     7  H    0.284467   0.030494
     8  H    0.300747  -0.002862
     9  H    0.284467   0.030494
 Sum of Mulliken charges =   2.00000   2.00000

 Dipole moment (field-independent basis, Debye):
    X=             -2.0363    Y=             -0.6267    Z=             -0.0000  Tot=              2.1305
 Quadrupole moment (field-independent basis, Debye-Ang):
   XX=             14.1606   YY=            -13.4203   ZZ=            -23.2479
   XY=             10.9441   XZ=              0.0000   YZ=              0.0000

  Exact polarizability:  93.628  19.691  46.239  -0.000  -0.000  28.513
 Approx polarizability: 160.245  30.514  70.764   0.000   0.000  40.864

                      1                      2                      3
                     A'                     A"                     A'
 Frequencies --    106.6288               116.4052               291.5362
 Red. masses --      5.2140                 1.1316                 3.9391
 Frc consts  --      0.0349                 0.0090                 0.1973
 IR Inten    --      2.3733                13.8439                 1.8554

                      4                      5                      6
                     A"                     A"                     A'
 Frequencies --    338.6240               367.5511               391.6564
 Red. masses --      2.1600                 4.8493                 1.8589
 Frc consts  --      0.1459                 0.3860                 0.1680
 IR Inten    --      6.7162                 1.0830                 7.9094

                      7                      8                      9
                     A"                     A'                     A'
 Frequencies --    735.6966               757.4162               910.2108
 Red. masses --      1.7736                 3.0086                 4.1845
 Frc consts  --      0.5656                 1.0169                 2.0426
 IR Inten    --      2.0769                 5.5979                11.4174

                     10                     11                     12
                     A"                     A'                     A"
 Frequencies --    924.8641              1064.0357              1163.5010
 Red. masses --      1.5957                 1.8389                 1.0344
 Frc consts  --      0.8042                 1.2267                 0.8250
 IR Inten    --     40.2458                23.9058                48.3070

                     13                     14                     15
                     A'                     A'                     A'
 Frequencies --   1178.9655              1285.0600              1340.4568
 Red. masses --      1.1184                 1.7716                 1.3405
 Frc consts  --      0.9159                 1.7237                 1.4191
 IR Inten    --     93.7448                10.4360                47.8655

                     16                     17                     18
                     A'                     A'                     A'
 Frequencies --   1741.4525              2115.2702              2655.4918
 Red. masses --     10.7685                11.8539                 1.0660
 Frc consts  --     19.2411                31.2494                 4.4290
 IR Inten    --    851.6651                23.5633               458.0023

                     19                     20                     21
                     A'                     A'                     A"
 Frequencies --   2873.1075              2931.8960              2938.8541
 Red. masses --      1.0493                 1.0820                 1.1037
 Frc consts  --      5.1035                 5.4800                 5.6164
 IR Inten    --    519.0114               216.6292               163.6211

 - Thermochemistry -
 -------------------
 Temperature   298.150 Kelvin.  Pressure   1.00000 Atm.
 Atom     1 has atomic number  6 and mass  12.00000

 Molecular mass:    64.03130 amu.
 Principal axes and moments of inertia in atomic units:
                           1         2         3
     Eigenvalues --    68.58174 686.42294 742.48599
           X            0.93870  -0.34472   0.00000
           Y            0.34472   0.93870   0.00000
           Z            0.00000  -0.00000   1.00000
 This molecule is an asymmetric top.
 Rotational symmetry number  1.
 Rotational temperatures (Kelvin)      1.26293     0.12618     0.11665
 Rotational constants (GHZ):          26.31519     2.62920     2.43067
 Zero-point vibrational energy     156882.3 (Joules/Mol)
                                   37.49578 (Kcal/Mol)
 Warning -- explicit consideration of   6 degrees of freedom as
           vibrations may cause significant error
 Vibrational temperatures:    153.41   167.48   419.46   487.20   528.82
          (Kelvin)            563.51  1058.50  1089.75  1309.59  1330.67
                             1530.91  1674.02  1696.27  1848.91  1928.62
                             2505.56  3043.40  3820.66  4133.76  4218.34
                             4228.35

 Zero-point correction=                           0.059753 (Hartree/Particle)
 Thermal correction to Energy=                    0.065858
 Thermal correction to Enthalpy=                  0.066802
 Thermal correction to Gibbs Free Energy=         0.029797
 Sum of electronic and zero-point Energies=           -191.811389
 Sum of electronic and thermal Energies=              -191.805284
 Sum of electronic and thermal Enthalpies=            -191.804340
 Sum of electronic and thermal Free Energies=         -191.841345

                     E (Thermal)             CV                S
                      KCal/Mol        Cal/Mol-Kelvin    Cal/Mol-Kelvin
 Total                   41.327             19.682             77.884
 Electronic               0.000              0.000              2.183
 Translational            0.889              2.981             38.389
 Rotational               0.889              2.981             25.061
 Vibrational             39.549             13.721             12.251
 Vibration     1          0.606              1.944              3.329
 Vibration     2          0.608              1.936              3.159
 Vibration     3          0.687              1.689              1.465
 Vibration     4          0.719              1.598              1.219
 Vibration     5          0.740              1.539              1.090
 Vibration     6          0.759              1.488              0.994

 Optimization completed.
    -- Stationary point found.
 Normal termination of Gaussian 09 at Wed Jul 20 02:28:58 2016.
