 Gaussian 09, Revision E.01,
 Gaussian 09:  EM64L-G09RevE.01 30-Nov-2015

 ---------------------------------------------
 #p b3lyp/6-311++G(3df,2p) freq symmetry=Loose
 ---------------------------------------------

 ---------
 b3lyp opt
 ---------
 Symbolic Z-matrix:
 Charge =  3 Multiplicity = 2

                         Standard orientation:
 ---------------------------------------------------------------------
 Center     Atomic      Atomic             Coordinates (Angstroms)
 Number     Number       Type             X           Y           Z
 ---------------------------------------------------------------------
      1          6           0        0.502411   -0.030511   -0.058054
      2          1           0        2.389447   -0.125755    1.162490
      3          6           0       -0.547839   -0.960833   -0.342086
      4          6           0       -0.621924    0.898346   -0.097227
      5          1           0       -0.720551    1.959627   -0.421512
      6          1           0       -2.560660   -0.259311    0.715405
      7          6           0       -1.561809   -0.154870    0.238600
      8          6           0        1.939435   -0.027236    0.139704
      9          1           0        2.630121    0.076067   -0.742009
 ---------------------------------------------------------------------

 SCF Done:  E(UB3LYP) =  -191.128094879     A.U. after   15 cycles

 The electronic state is 2-A.
 Alpha  occ. eigenvalues --  -11.03763 -11.03216 -11.02711 -11.00510 -10.99769
 Alpha  occ. eigenvalues --   -1.70188  -1.50322  -1.36769  -1.35967  -1.22548
 Alpha  occ. eigenvalues --   -1.19834  -1.17052  -1.16167  -1.14726  -1.09472
 Alpha  occ. eigenvalues --   -1.01198
 Alpha virt. eigenvalues --   -0.86117  -0.83354  -0.79537  -0.70108  -0.54542
 Alpha virt. eigenvalues --   -0.51929  -0.51368  -0.48661  -0.46254  -0.45745
 Alpha virt. eigenvalues --   -0.45253  -0.44610  -0.42568  -0.41613  -0.40104

  Beta  occ. eigenvalues --  -11.03179 -11.02658 -11.01948 -11.00312 -10.99690
  Beta  occ. eigenvalues --   -1.69321  -1.50043  -1.35607  -1.34856  -1.22405
  Beta  occ. eigenvalues --   -1.18013  -1.16226  -1.15080  -1.14467  -1.08677
  Beta virt. eigenvalues --   -0.86752  -0.83551  -0.83378  -0.76566  -0.68314
  Beta virt. eigenvalues --   -0.54275  -0.51328  -0.50867  -0.48479  -0.45928
  Beta virt. eigenvalues --   -0.45443  -0.44411  -0.43688  -0.42365  -0.41306

 Mulliken charges and spin densities:
               1          2
     1  C    0.556606  -0.004139
     2  H    0.386216  -0.001900
     3  C    0.545484   0.835847
     4  C    0.259620   0.084602
     5  H    0.384524   0.018181
     6  H    0.412555   0.003773
     7  C    0.175245   0.004631
     8  C   -0.094029   0.059392
     9  H    0.373780  -0.000386
 Sum of Mulliken charges =   3.00000   1.00000

 Dipole moment (field-independent basis, Debye):
    X=              2.4960    Y=              0.9129    Z=              0.6991  Tot=              2.7481
 Quadrupole moment (field-independent basis, Debye-Ang):
   XX=             21.7318   YY=            -12.1093   ZZ=            -17.9665
   XY=             -0.4764   XZ=             -0.6757   YZ=             -1.1661

  Exact polarizability:  59.063   0.233  34.938  -0.318   0.100  25.244
 Approx polarizability:  97.194   1.281  66.677  -1.137   3.030  38.441

                      1                      2                      3
                      A                      A                      A
 Frequencies --    240.6864               312.8831               372.9119
 Red. masses --      2.6181                 2.7242                 1.1535
 Frc consts  --      0.0894                 0.1571                 0.0945
 IR Inten    --     15.1872                13.4700                 1.1563

                      4                      5                      6
                      A                      A                      A
 Frequencies --    468.8132               577.4733               778.5707
 Red. masses --      2.8024                 3.2176                 2.8607
 Frc consts  --      0.3629                 0.6322                 1.0217
 IR Inten    --      5.5348                 1.1570                29.6466

                      7                      8                      9
                      A                      A                      A
 Frequencies --    885.4528               923.2496               947.2627
 Red. masses --      2.1811                 1.6596                 1.6748
 Frc consts  --      1.0075                 0.8335                 0.8854
 IR Inten    --     23.7934                16.4203                12.6700

                     10                     11                     12
                      A                      A                      A
 Frequencies --    979.9889              1013.6376              1101.5176
 Red. masses --      2.4048                 1.7117                 1.5096
 Frc consts  --      1.3607                 1.0362                 1.0792
 IR Inten    --     11.1045                11.4472                35.6789

                     13                     14                     15
                      A                      A                      A
 Frequencies --   1139.3511              1227.0081              1286.1787
 Red. masses --      1.5668                 2.2468                 3.4318
 Frc consts  --      1.1983                 1.9930                 3.3448
 IR Inten    --     67.7247                22.9181               157.5646

                     16                     17                     18
                      A                      A                      A
 Frequencies --   1316.7293              1369.9718              2761.1121
 Red. masses --      1.3733                 4.3880                 1.0474
 Frc consts  --      1.4029                 4.8522                 4.7047
 IR Inten    --      5.1236                84.2734               646.0601

                     19                     20                     21
                      A                      A                      A
 Frequencies --   2866.5312              2904.4141              2954.1057
 Red. masses --      1.1229                 1.1032                 1.1194
 Frc consts  --      5.4366                 5.4828                 5.7553
 IR Inten    --    311.5412               389.2745               369.7536

 - Thermochemistry -
 -------------------
 Temperature   298.150 Kelvin.  Pressure   1.00000 Atm.
 Atom     1 has atomic number  6 and mass  12.00000

 Molecular mass:    64.03130 amu.
 Principal axes and moments of inertia in atomic units:
                           1         2         3
     Eigenvalues --   107.32898 394.63257 466.21532
           X            0.99993  -0.01039  -0.00626
           Y            0.01001   0.99821  -0.05902
           Z            0.00686   0.05895   0.99824
 This molecule is an asymmetric top.
 Rotational symmetry number  1.
 Rotational temperatures (Kelvin)      0.80699     0.21948     0.18578
 Rotational constants (GHZ):          16.81504     4.57322     3.87105
 Zero-point vibrational energy     158073.6 (Joules/Mol)
                                   37.78051 (Kcal/Mol)
 Warning -- explicit consideration of   5 degrees of freedom as
           vibrations may cause significant error
 Vibrational temperatures:    346.29   450.17   536.54   674.52   830.85
          (Kelvin)           1120.19  1273.97  1328.35  1362.90  1409.98
                             1458.40  1584.84  1639.27  1765.39  1850.52
                             1894.48  1971.08  3972.62  4124.29  4178.80
                             4250.29

 Zero-point correction=                           0.060207 (Hartree/Particle)
 Thermal correction to Energy=                    0.065104
 Thermal correction to Enthalpy=                  0.066049
 Thermal correction to Gibbs Free Energy=         0.032439
 Sum of electronic and zero-point Energies=           -191.067888
 Sum of electronic and thermal Energies=              -191.062991
 Sum of electronic and thermal Enthalpies=            -191.062046
 Sum of electronic and thermal Free Energies=         -191.095656

                     E (Thermal)             CV                S
                      KCal/Mol        Cal/Mol-Kelvin    Cal/Mol-Kelvin
 Total                   40.854             17.321             70.737
 Electronic               0.000              0.000              1.377
 Translational            0.889              2.981             38.389
 Rotational               0.889              2.981             24.494
 Vibrational             39.076             11.359              6.477
 Vibration     1          0.658              1.778              1.798
 Vibration     2          0.701              1.649              1.347
 Vibration     3          0.744              1.528              1.068
 Vibration     4          0.826              1.319              0.741
 Vibration     5          0.934              1.080              0.490

 Optimization completed.
    -- Stationary point found.
 Normal termination of Gaussian 09 at Mon Jun 20 11:08:10 2016.
