 Gaussian 09, Revision E.01,
 Gaussian 09:  EM64L-G09RevE.01 30-Nov-2015

 ---------------------------------------------
 #p b3lyp/6-311++G(3df,2p) freq symmetry=Loose
 ---------------------------------------------

 ---------
 b3lyp opt
 ---------
 Symbolic Z-matrix:
 Charge =  3 Multiplicity = 4

                         Standard orientation:
 ---------------------------------------------------------------------
 Center     Atomic      Atomic             Coordinates (Angstroms)
 Number     Number       Type             X           Y           Z
 ---------------------------------------------------------------------
      1          6           0       -1.922911    0.480353    0.000234
      2          6           0       -1.579853   -0.882761   -0.000026
      3          6           0       -0.534774    0.103695    0.000060
      4          6           0        0.847124    0.470931    0.000013
      5          1           0        1.059004    1.555541   -0.545896
      6          1           0        1.059091    1.555355    0.546259
      7          6           0        2.015229   -0.433074   -0.000233
      8          1           0        3.040049   -0.016312   -0.000243
      9          1           0        1.892961   -1.529448   -0.000411
 ---------------------------------------------------------------------

 SCF Done:  E(UB3LYP) =  -190.964950840     A.U. after   15 cycles

 The electronic state is 4-A.
 Alpha  occ. eigenvalues --  -11.02117 -11.02057 -11.00114 -10.98969 -10.97935
 Alpha  occ. eigenvalues --   -1.66346  -1.54871  -1.38028  -1.30982  -1.23262
 Alpha  occ. eigenvalues --   -1.17081  -1.14723  -1.12928  -1.10196  -1.05346
 Alpha  occ. eigenvalues --   -1.03834  -0.97873
 Alpha virt. eigenvalues --   -0.80939  -0.73712  -0.72915  -0.62975  -0.56078
 Alpha virt. eigenvalues --   -0.54616  -0.53442  -0.49282  -0.48174  -0.44305
 Alpha virt. eigenvalues --   -0.42608  -0.41818  -0.41428  -0.40943  -0.37774

  Beta  occ. eigenvalues --  -10.99682 -10.99640 -10.99476 -10.98720 -10.97789
  Beta  occ. eigenvalues --   -1.62967  -1.52599  -1.37070  -1.29410  -1.18013
  Beta  occ. eigenvalues --   -1.13643  -1.11445  -1.08912  -1.08504
  Beta virt. eigenvalues --   -0.95015  -0.83837  -0.80256  -0.78687  -0.70267
  Beta virt. eigenvalues --   -0.65996  -0.61159  -0.53154  -0.52191  -0.51744
  Beta virt. eigenvalues --   -0.48082  -0.46775  -0.43024  -0.41708  -0.41519

 Mulliken charges and spin densities:
               1          2
     1  C    0.507143   1.124218
     2  C    0.503267   1.132261
     3  C    0.537250   0.069276
     4  C    0.157787   0.482868
     5  H    0.282081   0.064002
     6  H    0.282081   0.064002
     7  C    0.076300   0.063384
     8  H    0.343916   0.000117
     9  H    0.310176  -0.000126
 Sum of Mulliken charges =   3.00000   3.00000

 Dipole moment (field-independent basis, Debye):
    X=              4.3236    Y=              1.9760    Z=             -0.0000  Tot=              4.7537
 Quadrupole moment (field-independent basis, Debye-Ang):
   XX=             22.8687   YY=             -7.1553   ZZ=            -21.0066
   XY=              1.8020   XZ=             -0.0032   YZ=              0.0022

  Exact polarizability:  79.339   4.831  39.774  -0.004   0.002  24.241
 Approx polarizability: 128.122  12.371  70.139  -0.005   0.005  37.543

                      1                      2                      3
                      A                      A                      A
 Frequencies --    145.3263               196.3963               229.2555
 Red. masses --      1.1062                 3.4484                 4.1022
 Frc consts  --      0.0138                 0.0784                 0.1270
 IR Inten    --      0.0769                 0.8939                 0.0062

                      4                      5                      6
                      A                      A                      A
 Frequencies --    343.8255               489.7706               639.2182
 Red. masses --      3.2322                 4.6906                 2.0074
 Frc consts  --      0.2251                 0.6629                 0.4833
 IR Inten    --     31.8883                30.3169                79.9302

                      7                      8                      9
                      A                      A                      A
 Frequencies --    667.8658               779.8159               842.6283
 Red. masses --      2.5946                 1.3691                 1.0221
 Frc consts  --      0.6819                 0.4905                 0.4276
 IR Inten    --    230.2534               350.1885                 0.3521

                     10                     11                     12
                      A                      A                      A
 Frequencies --    899.4771              1009.0135              1112.6962
 Red. masses --      1.4514                 5.5408                 2.1793
 Frc consts  --      0.6918                 3.3237                 1.5897
 IR Inten    --     41.1249               307.4401               238.2540

                     13                     14                     15
                      A                      A                      A
 Frequencies --   1160.3425              1182.6715              1308.6178
 Red. masses --      2.5460                 1.3739                 5.1153
 Frc consts  --      2.0196                 1.1322                 5.1611
 IR Inten    --    211.2374                 7.2426                91.6117

                     16                     17                     18
                      A                      A                      A
 Frequencies --   1435.4075              1461.5289              1877.1403
 Red. masses --      1.3829                 2.9628                 1.0318
 Frc consts  --      1.6788                 3.7288                 2.1421
 IR Inten    --     36.6071                61.5773               253.0196

                     19                     20                     21
                      A                      A                      A
 Frequencies --   2276.1766              2950.8208              3068.1411
 Red. masses --      1.1027                 1.0557                 1.1306
 Frc consts  --      3.3661                 5.4160                 6.2707
 IR Inten    --    361.9046               219.9449               171.2342

 - Thermochemistry -
 -------------------
 Temperature   298.150 Kelvin.  Pressure   1.00000 Atm.
 Atom     1 has atomic number  6 and mass  12.00000

 Molecular mass:    64.03130 amu.
 Principal axes and moments of inertia in atomic units:
                           1         2         3
     Eigenvalues --    89.12239 536.10390 620.93338
           X            0.99999   0.00413   0.00008
           Y           -0.00413   0.99999  -0.00017
           Z           -0.00008   0.00017   1.00000
 This molecule is an asymmetric top.
 Rotational symmetry number  1.
 Rotational temperatures (Kelvin)      0.97185     0.16156     0.13949
 Rotational constants (GHZ):          20.25014     3.36640     2.90650
 Zero-point vibrational energy     144007.3 (Joules/Mol)
                                   34.41856 (Kcal/Mol)
 Warning -- explicit consideration of   5 degrees of freedom as
           vibrations may cause significant error
 Vibrational temperatures:    209.09   282.57   329.85   494.69   704.67
          (Kelvin)            919.69   960.91  1121.98  1212.35  1294.15
                             1451.74  1600.92  1669.47  1701.60  1882.81
                             2065.23  2102.81  2700.78  3274.91  4245.57
                             4414.37

 Zero-point correction=                           0.054849 (Hartree/Particle)
 Thermal correction to Energy=                    0.060609
 Thermal correction to Enthalpy=                  0.061553
 Thermal correction to Gibbs Free Energy=         0.025310
 Sum of electronic and zero-point Energies=           -190.910101
 Sum of electronic and thermal Energies=              -190.904342
 Sum of electronic and thermal Enthalpies=            -190.903398
 Sum of electronic and thermal Free Energies=         -190.939641

                     E (Thermal)             CV                S
                      KCal/Mol        Cal/Mol-Kelvin    Cal/Mol-Kelvin
 Total                   38.032             19.414             76.279
 Electronic               0.000              0.000              2.755
 Translational            0.889              2.981             38.389
 Rotational               0.889              2.981             24.898
 Vibrational             36.255             13.452             10.236
 Vibration     1          0.617              1.908              2.733
 Vibration     2          0.636              1.845              2.167
 Vibration     3          0.652              1.796              1.885
 Vibration     4          0.723              1.588              1.194
 Vibration     5          0.846              1.273              0.684

 Optimization completed.
    -- Stationary point found.
 Normal termination of Gaussian 09 at Wed Jul 20 11:48:48 2016.
