 Gaussian 09, Revision E.01,
 Gaussian 09:  EM64L-G09RevE.01 30-Nov-2015

 ---------------------------------------------
 #p b3lyp/6-311++G(3df,2p) freq symmetry=Loose
 ---------------------------------------------

 ---------
 b3lyp opt
 ---------
 Symbolic Z-matrix:
 Charge =  0 Multiplicity = 1

                         Standard orientation:
 ---------------------------------------------------------------------
 Center     Atomic      Atomic             Coordinates (Angstroms)
 Number     Number       Type             X           Y           Z
 ---------------------------------------------------------------------
      1          6           0       -1.773692   -0.474756    0.000094
      2          1           0       -2.599300    0.235316    0.000176
      3          1           0       -1.848203   -1.116863    0.879068
      4          1           0       -1.848315   -1.116790   -0.878924
      5          6           0        0.979953   -0.081150   -0.000066
      6          6           0        1.928077   -0.947547   -0.000163
      7          6           0       -0.484734    0.223980    0.000040
      8          6           0        0.309787    1.232407    0.000032
      9          1           0        0.539471    2.280729    0.000061
 ---------------------------------------------------------------------

 SCF Done:  E(RB3LYP) =  -192.770487271     A.U. after   13 cycles

 The electronic state is 1-A.
 Alpha  occ. eigenvalues --  -10.26072 -10.24500 -10.21872 -10.19007 -10.18216
 Alpha  occ. eigenvalues --   -0.93558  -0.78156  -0.70953  -0.59974  -0.53140
 Alpha  occ. eigenvalues --   -0.48385  -0.47254  -0.41994  -0.38716  -0.34920
 Alpha  occ. eigenvalues --   -0.26580  -0.22565
 Alpha virt. eigenvalues --   -0.08136  -0.03835  -0.02004   0.00332   0.02114
 Alpha virt. eigenvalues --    0.02710   0.03983   0.04443   0.05503   0.07137
 Alpha virt. eigenvalues --    0.07634   0.08694   0.08936   0.09369   0.09789

 Mulliken charges:
               1
     1  C   -0.431269
     2  H    0.153547
     3  H    0.166619
     4  H    0.166619
     5  C    0.671317
     6  C   -0.929352
     7  C   -0.183325
     8  C    0.107806
     9  H    0.278038
 Sum of Mulliken charges =  -0.00000

 Dipole moment (field-independent basis, Debye):
    X=             -4.9315    Y=              2.9190    Z=              0.0004  Tot=              5.7306
 Quadrupole moment (field-independent basis, Debye-Ang):
   XX=            -35.3300   YY=            -28.5375   ZZ=            -31.4877
   XY=              7.6664   XZ=              0.0006   YZ=             -0.0004

  Exact polarizability:  74.134  -6.315  61.492  -0.002   0.001  41.121
 Approx polarizability: 109.855 -12.664 100.434  -0.004   0.003  59.224

                      1                      2                      3
                      A                      A                      A
 Frequencies --    132.1270               160.8760               294.0785
 Red. masses --      5.8257                 1.0698                 2.6912
 Frc consts  --      0.0599                 0.0163                 0.1371
 IR Inten    --      9.7190                 1.3682                 6.6391

                      4                      5                      6
                      A                      A                      A
 Frequencies --    359.3359               423.2866               633.0033
 Red. masses --      3.1259                 6.6816                 5.4601
 Frc consts  --      0.2378                 0.7053                 1.2890
 IR Inten    --      1.2317                 0.0647                 5.4513

                      7                      8                      9
                      A                      A                      A
 Frequencies --    715.5706               830.8040               933.2377
 Red. masses --      1.4028                 3.5095                 3.0344
 Frc consts  --      0.4232                 1.4272                 1.5570
 IR Inten    --     24.9609                 3.8244                10.8582

                     10                     11                     12
                      A                      A                      A
 Frequencies --   1009.2685              1049.4581              1084.7874
 Red. masses --      1.6596                 1.4621                 1.6050
 Frc consts  --      0.9960                 0.9488                 1.1128
 IR Inten    --      8.6572                 1.9110                18.5711

                     13                     14                     15
                      A                      A                      A
 Frequencies --   1408.7805              1468.9451              1477.9307
 Red. masses --      1.2255                 1.0409                 1.0452
 Frc consts  --      1.4330                 1.3234                 1.3451
 IR Inten    --      3.1763                10.7932                10.6045

                     16                     17                     18
                      A                      A                      A
 Frequencies --   1670.9381              1941.0362              3031.5393
 Red. masses --     10.2630                 7.9276                 1.0337
 Frc consts  --     16.8828                17.5979                 5.5974
 IR Inten    --     91.6982                16.7998                 7.0301

                     19                     20                     21
                      A                      A                      A
 Frequencies --   3088.3765              3114.0952              3295.5766
 Red. masses --      1.0999                 1.1032                 1.1206
 Frc consts  --      6.1809                 6.3033                 7.1706
 IR Inten    --      1.9106                 3.8896                20.0271

 - Thermochemistry -
 -------------------
 Temperature   298.150 Kelvin.  Pressure   1.00000 Atm.
 Atom     1 has atomic number  6 and mass  12.00000

 Molecular mass:    64.03130 amu.
 Principal axes and moments of inertia in atomic units:
                           1         2         3
     Eigenvalues --   148.01027 404.24366 541.13107
           X            0.99786   0.06543   0.00006
           Y           -0.06543   0.99786  -0.00004
           Z           -0.00007   0.00004   1.00000
 This molecule is an asymmetric top.
 Rotational symmetry number  1.
 Rotational temperatures (Kelvin)      0.58519     0.21426     0.16006
 Rotational constants (GHZ):          12.19335     4.46449     3.33513
 Zero-point vibrational energy     168213.2 (Joules/Mol)
                                   40.20392 (Kcal/Mol)
 Warning -- explicit consideration of   5 degrees of freedom as
           vibrations may cause significant error
 Vibrational temperatures:    190.10   231.46   423.11   517.00   609.01
          (Kelvin)            910.75  1029.55  1195.34  1342.72  1452.11
                             1509.93  1560.77  2026.92  2113.48  2126.41
                             2404.10  2792.71  4361.70  4443.48  4480.48
                             4741.59

 Zero-point correction=                           0.064069 (Hartree/Particle)
 Thermal correction to Energy=                    0.069748
 Thermal correction to Enthalpy=                  0.070692
 Thermal correction to Gibbs Free Energy=         0.035741
 Sum of electronic and zero-point Energies=           -192.706418
 Sum of electronic and thermal Energies=              -192.700739
 Sum of electronic and thermal Enthalpies=            -192.699795
 Sum of electronic and thermal Free Energies=         -192.734746

                     E (Thermal)             CV                S
                      KCal/Mol        Cal/Mol-Kelvin    Cal/Mol-Kelvin
 Total                   43.767             18.563             73.560
 Electronic               0.000              0.000              0.000
 Translational            0.889              2.981             38.389
 Rotational               0.889              2.981             24.985
 Vibrational             41.990             12.602             10.185
 Vibration     1          0.612              1.921              2.915
 Vibration     2          0.622              1.890              2.539
 Vibration     3          0.689              1.685              1.450
 Vibration     4          0.734              1.556              1.125
 Vibration     5          0.785              1.420              0.881

 Normal termination of Gaussian 09 at Tue Jul 19 22:24:49 2016.
