 Gaussian 09, Revision E.01,
 Gaussian 09:  EM64L-G09RevE.01 30-Nov-2015

 ---------------------------------------------
 #p b3lyp/6-311++G(3df,2p) freq symmetry=Loose
 ---------------------------------------------

 ---------
 b3lyp opt
 ---------
 Symbolic Z-matrix:
 Charge =  0 Multiplicity = 3

                         Standard orientation:
 ---------------------------------------------------------------------
 Center     Atomic      Atomic             Coordinates (Angstroms)
 Number     Number       Type             X           Y           Z
 ---------------------------------------------------------------------
      1          6           0       -1.890554   -0.788212    0.000000
      2          1           0       -1.334738   -1.725469    0.000000
      3          1           0       -2.970677   -0.862924    0.000000
      4          6           0       -1.263840    0.389947    0.000000
      5          6           0        0.000000    0.954677    0.000000
      6          1           0        0.098862    2.034953   -0.000000
      7          6           0        1.169231    0.192677   -0.000000
      8          6           0        2.175767   -0.479682   -0.000000
      9          1           0        3.062926   -1.063008   -0.000000
 ---------------------------------------------------------------------

 SCF Done:  E(UB3LYP) =  -192.803230790     A.U. after   17 cycles

 The electronic state is 3-A".
 Alpha  occ. eigenvalues --  -10.22000 -10.21065 -10.19374 -10.19292 -10.18748
 Alpha  occ. eigenvalues --   -0.83808  -0.77275  -0.72021  -0.58983  -0.53856
 Alpha  occ. eigenvalues --   -0.50278  -0.47948  -0.43745  -0.37862  -0.30692
 Alpha  occ. eigenvalues --   -0.29907  -0.23860  -0.21530
 Alpha virt. eigenvalues --   -0.00714  -0.00623   0.00646   0.01029   0.02504
 Alpha virt. eigenvalues --    0.03496   0.04696   0.06154   0.06319   0.08194
 Alpha virt. eigenvalues --    0.09430   0.09561   0.09988   0.11008   0.11081

  Beta  occ. eigenvalues --  -10.21177 -10.19849 -10.19394 -10.18752 -10.18267
  Beta  occ. eigenvalues --   -0.81520  -0.75586  -0.69900  -0.57178  -0.52840
  Beta  occ. eigenvalues --   -0.48911  -0.46098  -0.42391  -0.34818  -0.29421
  Beta  occ. eigenvalues --   -0.27895
  Beta virt. eigenvalues --   -0.12043  -0.08964  -0.00468   0.00778   0.01156
  Beta virt. eigenvalues --    0.01401   0.02701   0.03643   0.04886   0.06340
  Beta virt. eigenvalues --    0.06541   0.09158   0.09624   0.10292   0.10385

 Mulliken charges and spin densities:
               1          2
     1  C   -0.375857   0.350739
     2  H    0.153671   0.064604
     3  H    0.181471   0.011181
     4  C    0.154257   0.774081
     5  C   -0.812882   0.555916
     6  H    0.164269   0.000424
     7  C   -0.298510  -0.086021
     8  C    0.514658   0.338786
     9  H    0.318923  -0.009709
 Sum of Mulliken charges =  -0.00000   2.00000

 Dipole moment (field-independent basis, Debye):
    X=              0.2444    Y=             -0.5204    Z=              0.0000  Tot=              0.5750
 Quadrupole moment (field-independent basis, Debye-Ang):
   XX=            -25.6618   YY=            -27.0143   ZZ=            -32.8643
   XY=             -0.7465   XZ=              0.0000   YZ=              0.0000

  Exact polarizability: 102.898   2.365  61.063  -0.000   0.000  39.993
 Approx polarizability: 158.108  -0.855  97.818  -0.000   0.000  55.806

                      1                      2                      3
                     A'                     A"                     A'
 Frequencies --    129.0836               283.7593               324.0851
 Red. masses --      3.4229                 3.0744                 3.5677
 Frc consts  --      0.0336                 0.1459                 0.2208
 IR Inten    --      0.2958                 0.0923                 2.2045

                      4                      5                      6
                     A"                     A"                     A"
 Frequencies --    445.6754               556.9181               579.6536
 Red. masses --      1.9652                 1.5829                 1.2883
 Frc consts  --      0.2300                 0.2893                 0.2550
 IR Inten    --     21.7280                 0.0849                45.8786

                      7                      8                      9
                     A'                     A'                     A"
 Frequencies --    597.8338               666.4263               763.3254
 Red. masses --      4.0617                 1.2605                 1.3773
 Frc consts  --      0.8553                 0.3298                 0.4728
 IR Inten    --      9.9222                42.9115                10.1612

                     10                     11                     12
                     A"                     A'                     A'
 Frequencies --    827.1390               946.0992              1003.1668
 Red. masses --      1.3561                 5.6448                 1.6446
 Frc consts  --      0.5466                 2.9769                 0.9751
 IR Inten    --     42.3783                 0.9427                 2.5026

                     13                     14                     15
                     A'                     A'                     A'
 Frequencies --   1108.0493              1357.6131              1404.8069
 Red. masses --      2.0644                 1.5675                 1.6117
 Frc consts  --      1.4933                 1.7022                 1.8740
 IR Inten    --     13.0573                 3.5256                20.3278

                     16                     17                     18
                     A'                     A'                     A'
 Frequencies --   1499.1906              2091.3906              3060.6505
 Red. masses --      3.0837                 6.4265                 1.0600
 Frc consts  --      4.0835                16.5614                 5.8503
 IR Inten    --      5.7930                 1.3142                 2.9694

                     19                     20                     21
                     A'                     A'                     A'
 Frequencies --   3132.6117              3174.1247              3455.6712
 Red. masses --      1.0839                 1.1031                 1.1463
 Frc consts  --      6.2670                 6.5481                 8.0655
 IR Inten    --      0.1628                 0.6526                70.7174

 - Thermochemistry -
 -------------------
 Temperature   298.150 Kelvin.  Pressure   1.00000 Atm.
 Atom     1 has atomic number  6 and mass  12.00000

 Molecular mass:    64.03130 amu.
 Principal axes and moments of inertia in atomic units:
                           1         2         3
     Eigenvalues --   115.41773 555.41166 670.82939
           X            0.99949  -0.03203   0.00000
           Y            0.03203   0.99949   0.00000
           Z           -0.00000   0.00000   1.00000
 This molecule is an asymmetric top.
 Rotational symmetry number  1.
 Rotational temperatures (Kelvin)      0.75044     0.15595     0.12911
 Rotational constants (GHZ):          15.63660     3.24938     2.69031
 Zero-point vibrational energy     163931.9 (Joules/Mol)
                                   39.18067 (Kcal/Mol)
 Warning -- explicit consideration of   7 degrees of freedom as
           vibrations may cause significant error
 Vibrational temperatures:    185.72   408.27   466.29   641.23   801.28
          (Kelvin)            833.99   860.15   958.84  1098.25  1190.07
                             1361.22  1443.33  1594.23  1953.30  2021.20
                             2157.00  3009.04  4403.59  4507.12  4566.85
                             4971.93

 Zero-point correction=                           0.062438 (Hartree/Particle)
 Thermal correction to Energy=                    0.067983
 Thermal correction to Enthalpy=                  0.068928
 Thermal correction to Gibbs Free Energy=         0.033306
 Sum of electronic and zero-point Energies=           -192.740792
 Sum of electronic and thermal Energies=              -192.735247
 Sum of electronic and thermal Enthalpies=            -192.734303
 Sum of electronic and thermal Free Energies=         -192.769925

                     E (Thermal)             CV                S
                      KCal/Mol        Cal/Mol-Kelvin    Cal/Mol-Kelvin
 Total                   42.660             19.436             74.973
 Electronic               0.000              0.000              2.183
 Translational            0.889              2.981             38.389
 Rotational               0.889              2.981             25.267
 Vibrational             40.883             13.474              9.133
 Vibration     1          0.612              1.924              2.960
 Vibration     2          0.682              1.704              1.511
 Vibration     3          0.709              1.627              1.289
 Vibration     4          0.805              1.370              0.809
 Vibration     5          0.912              1.125              0.530
 Vibration     6          0.936              1.075              0.486
 Vibration     7          0.956              1.036              0.453

 Optimization completed.
    -- Stationary point found.
 Normal termination of Gaussian 09 at Wed Jun 22 03:47:09 2016.
