 Gaussian 09, Revision E.01,
 Gaussian 09:  EM64L-G09RevE.01 30-Nov-2015

 ---------------------------------------------
 #p b3lyp/6-311++G(3df,2p) freq symmetry=Loose
 ---------------------------------------------

 ---------
 b3lyp opt
 ---------
 Symbolic Z-matrix:
 Charge =  1 Multiplicity = 2

                         Standard orientation:
 ---------------------------------------------------------------------
 Center     Atomic      Atomic             Coordinates (Angstroms)
 Number     Number       Type             X           Y           Z
 ---------------------------------------------------------------------
      1          6           0        0.647993   -0.900798    0.158097
      2          1           0        0.844130   -1.773599    0.772257
      3          6           0       -0.490444    0.000008    0.057874
      4          6           0        1.524959   -0.000065   -0.470382
      5          6           0       -1.821615   -0.000015   -0.105855
      6          1           0       -2.370785    0.929152   -0.164883
      7          1           0       -2.370785   -0.929197   -0.164624
      8          6           0        0.647993    0.900841    0.157847
      9          1           0        0.844130    1.773813    0.771763
 ---------------------------------------------------------------------

 SCF Done:  E(UB3LYP) =  -192.494580335     A.U. after   17 cycles

 The electronic state is 2-A.
 Alpha  occ. eigenvalues --  -10.49996 -10.49993 -10.48042 -10.45775 -10.41834
 Alpha  occ. eigenvalues --   -1.20651  -0.99486  -0.89930  -0.84873  -0.79197
 Alpha  occ. eigenvalues --   -0.70424  -0.69334  -0.64414  -0.63226  -0.59522
 Alpha  occ. eigenvalues --   -0.54254  -0.48353
 Alpha virt. eigenvalues --   -0.30062  -0.28770  -0.20631  -0.14868  -0.12844
 Alpha virt. eigenvalues --   -0.12310  -0.10586  -0.10570  -0.09410  -0.08581
 Alpha virt. eigenvalues --   -0.06508  -0.05850  -0.04856  -0.04855  -0.02667

  Beta  occ. eigenvalues --  -10.49854 -10.49852 -10.46949 -10.45801 -10.41307
  Beta  occ. eigenvalues --   -1.19826  -0.98184  -0.89541  -0.83324  -0.78926
  Beta  occ. eigenvalues --   -0.69595  -0.68992  -0.63664  -0.62597  -0.59325
  Beta  occ. eigenvalues --   -0.49571
  Beta virt. eigenvalues --   -0.37415  -0.29560  -0.26483  -0.19554  -0.14707
  Beta virt. eigenvalues --   -0.12724  -0.12115  -0.10503  -0.10129  -0.09264
  Beta virt. eigenvalues --   -0.08482  -0.06399  -0.05410  -0.04764  -0.04505

 Mulliken charges and spin densities:
               1          2
     1  C    0.108233   0.054251
     2  H    0.279057   0.001503
     3  C    0.283002  -0.056444
     4  C   -0.157195   0.636034
     5  C   -0.344644   0.329354
     6  H    0.222129  -0.010226
     7  H    0.222129  -0.010226
     8  C    0.108234   0.054251
     9  H    0.279057   0.001503
 Sum of Mulliken charges =   1.00000   1.00000

 Dipole moment (field-independent basis, Debye):
    X=             -0.4476    Y=              0.0002    Z=              1.4150  Tot=              1.4841
 Quadrupole moment (field-independent basis, Debye-Ang):
   XX=            -17.8467   YY=            -18.1936   ZZ=            -27.0082
   XY=              0.0004   XZ=              2.6717   YZ=             -0.0012

  Exact polarizability:  90.198  -0.001  45.001  -6.277  -0.002  33.488
 Approx polarizability: 164.780  -0.003  75.104 -18.989  -0.003  52.881

                      1                      2                      3
                      A                      A                      A
 Frequencies --    251.2830               359.0043               435.2958
 Red. masses --      5.0064                 2.4178                 2.6143
 Frc consts  --      0.1863                 0.1836                 0.2919
 IR Inten    --      0.0971                 0.4336                39.1594

                      4                      5                      6
                      A                      A                      A
 Frequencies --    620.1742               705.6555               812.7609
 Red. masses --      1.0323                 5.0303                 4.1317
 Frc consts  --      0.2339                 1.4758                 1.6081
 IR Inten    --      0.0431                12.1574                 0.4031

                      7                      8                      9
                      A                      A                      A
 Frequencies --    906.5472               942.1847               982.7833
 Red. masses --      2.0878                 1.6530                 1.4379
 Frc consts  --      1.0109                 0.8646                 0.8183
 IR Inten    --      0.7599               132.2215                41.9417

                     10                     11                     12
                      A                      A                      A
 Frequencies --   1004.3847              1043.2449              1115.1934
 Red. masses --      1.6905                 1.4368                 1.2628
 Frc consts  --      1.0048                 0.9214                 0.9253
 IR Inten    --      0.5982                 0.0062                 1.2564

                     13                     14                     15
                      A                      A                      A
 Frequencies --   1152.0203              1265.2676              1329.2006
 Red. masses --      1.8635                 4.7073                 3.7892
 Frc consts  --      1.4572                 4.4400                 3.9444
 IR Inten    --     44.4619                16.4328                77.3689

                     16                     17                     18
                      A                      A                      A
 Frequencies --   1461.3438              1635.7807              3157.1539
 Red. masses --      1.1963                 6.4931                 1.0567
 Frc consts  --      1.5053                10.2365                 6.2056
 IR Inten    --     31.0862               119.2642                11.0132

                     19                     20                     21
                      A                      A                      A
 Frequencies --   3184.0695              3186.1717              3258.6098
 Red. masses --      1.0970                 1.1008                 1.1206
 Frc consts  --      6.5530                 6.5838                 7.0107
 IR Inten    --     60.9133                22.6698                10.3581

 - Thermochemistry -
 -------------------
 Temperature   298.150 Kelvin.  Pressure   1.00000 Atm.
 Atom     1 has atomic number  6 and mass  12.00000

 Molecular mass:    64.03130 amu.
 Principal axes and moments of inertia in atomic units:
                           1         2         3
     Eigenvalues --   114.89194 349.86966 431.79313
           X            0.99974   0.00000   0.02277
           Y           -0.00000   1.00000   0.00014
           Z           -0.02277  -0.00014   0.99974
 This molecule is an asymmetric top.
 Rotational symmetry number  1.
 Rotational temperatures (Kelvin)      0.75387     0.24756     0.20059
 Rotational constants (GHZ):          15.70816     5.15832     4.17964
 Zero-point vibrational energy     172310.9 (Joules/Mol)
                                   41.18329 (Kcal/Mol)
 Warning -- explicit consideration of   4 degrees of freedom as
           vibrations may cause significant error
 Vibrational temperatures:    361.54   516.53   626.29   892.29  1015.28
          (Kelvin)           1169.38  1304.32  1355.59  1414.00  1445.08
                             1500.99  1604.51  1657.50  1820.44  1912.42
                             2102.55  2353.52  4542.43  4581.16  4584.18
                             4688.41

 Zero-point correction=                           0.065630 (Hartree/Particle)
 Thermal correction to Energy=                    0.070190
 Thermal correction to Enthalpy=                  0.071134
 Thermal correction to Gibbs Free Energy=         0.038139
 Sum of electronic and zero-point Energies=           -192.428951
 Sum of electronic and thermal Energies=              -192.424390
 Sum of electronic and thermal Enthalpies=            -192.423446
 Sum of electronic and thermal Free Energies=         -192.456442

                     E (Thermal)             CV                S
                      KCal/Mol        Cal/Mol-Kelvin    Cal/Mol-Kelvin
 Total                   44.045             16.085             69.445
 Electronic               0.000              0.000              1.377
 Translational            0.889              2.981             38.389
 Rotational               0.889              2.981             24.366
 Vibrational             42.267             10.124              5.312
 Vibration     1          0.663              1.761              1.722
 Vibration     2          0.734              1.557              1.126
 Vibration     3          0.796              1.393              0.842
 Vibration     4          0.980              0.989              0.416

 Optimization completed.
    -- Stationary point found.
 Normal termination of Gaussian 09 at Wed Jul 20 06:35:49 2016.
