 Gaussian 09, Revision E.01,
 Gaussian 09:  EM64L-G09RevE.01 30-Nov-2015

 ---------------------------------------------
 #p b3lyp/6-311++G(3df,2p) freq symmetry=Loose
 ---------------------------------------------

 ---------
 b3lyp opt
 ---------
 Symbolic Z-matrix:
 Charge =  1 Multiplicity = 2

                         Standard orientation:
 ---------------------------------------------------------------------
 Center     Atomic      Atomic             Coordinates (Angstroms)
 Number     Number       Type             X           Y           Z
 ---------------------------------------------------------------------
      1          1           0       -0.540879    1.837239    0.697148
      2          6           0       -0.480028    0.924421    0.109729
      3          6           0        0.664100   -0.029899   -0.028496
      4          6           0        1.950621   -0.090004   -0.082558
      5          1           0        2.887416    0.426900   -0.170930
      6          6           0       -0.518431   -0.915391    0.101691
      7          1           0       -0.626174   -1.828622    0.681928
      8          6           0       -1.477571    0.029465   -0.249807
      9          1           0       -2.552516    0.052938   -0.311500
 ---------------------------------------------------------------------

 SCF Done:  E(UB3LYP) =  -192.505572388     A.U. after   17 cycles

 The electronic state is 2-A.
 Alpha  occ. eigenvalues --  -10.49471 -10.49373 -10.45083 -10.43247 -10.41800
 Alpha  occ. eigenvalues --   -1.17817  -0.98276  -0.89528  -0.85306  -0.77705
 Alpha  occ. eigenvalues --   -0.73038  -0.67261  -0.66102  -0.62675  -0.61527
 Alpha  occ. eigenvalues --   -0.48662  -0.45049
 Alpha virt. eigenvalues --   -0.31800  -0.27912  -0.17480  -0.13732  -0.12803
 Alpha virt. eigenvalues --   -0.12672  -0.10883  -0.09939  -0.09419  -0.08139
 Alpha virt. eigenvalues --   -0.08012  -0.06132  -0.05116  -0.03628  -0.02981

  Beta  occ. eigenvalues --  -10.49194 -10.49158 -10.45192 -10.43467 -10.40236
  Beta  occ. eigenvalues --   -1.17622  -0.96436  -0.89050  -0.84105  -0.77578
  Beta  occ. eigenvalues --   -0.71981  -0.66581  -0.65507  -0.62478  -0.60510
  Beta  occ. eigenvalues --   -0.47865
  Beta virt. eigenvalues --   -0.31907  -0.28928  -0.27398  -0.17074  -0.13627
  Beta virt. eigenvalues --   -0.12718  -0.12294  -0.10747  -0.09789  -0.09175
  Beta virt. eigenvalues --   -0.07965  -0.07879  -0.05854  -0.04964  -0.03187

 Mulliken charges and spin densities:
               1          2
     1  H    0.264424   0.000489
     2  C    0.163047   0.131359
     3  C    0.140953  -0.166034
     4  C   -0.319600   1.002084
     5  H    0.292459  -0.001337
     6  C    0.186144   0.103358
     7  H    0.263044   0.001387
     8  C   -0.269033  -0.071626
     9  H    0.278563   0.000320
 Sum of Mulliken charges =   1.00000   1.00000

 Dipole moment (field-independent basis, Debye):
    X=             -1.5236    Y=              0.4926    Z=              0.7669  Tot=              1.7754
 Quadrupole moment (field-independent basis, Debye-Ang):
   XX=            -12.4983   YY=            -19.5846   ZZ=            -27.2545
   XY=              1.5492   XZ=             -0.3929   YZ=             -0.0554

  Exact polarizability:  74.495  -0.541  45.230   1.203  -0.016  30.917
 Approx polarizability: 131.250  -2.375  77.433   6.765  -0.070  46.152

                      1                      2                      3
                      A                      A                      A
 Frequencies --    238.8718               345.1986               388.0663
 Red. masses --      3.1551                 1.9630                 2.1927
 Frc consts  --      0.1061                 0.1378                 0.1946
 IR Inten    --     11.0202                12.9071                23.0225

                      4                      5                      6
                      A                      A                      A
 Frequencies --    559.4440               692.4128               734.1141
 Red. masses --      1.7051                 1.6310                 2.4509
 Frc consts  --      0.3144                 0.4607                 0.7782
 IR Inten    --     42.5541                31.3213                 2.6669

                      7                      8                      9
                      A                      A                      A
 Frequencies --    808.4450               864.2791               944.8844
 Red. masses --      3.5869                 2.0765                 1.8854
 Frc consts  --      1.3812                 0.9139                 0.9918
 IR Inten    --     11.9414                30.5961                11.4163

                     10                     11                     12
                      A                      A                      A
 Frequencies --    986.5338               994.4921              1030.5537
 Red. masses --      1.5670                 1.5908                 1.1339
 Frc consts  --      0.8986                 0.9270                 0.7095
 IR Inten    --      3.3205                 4.6211                 1.4838

                     13                     14                     15
                      A                      A                      A
 Frequencies --   1174.2189              1181.4156              1350.5211
 Red. masses --      1.5495                 1.5440                 3.1830
 Frc consts  --      1.2588                 1.2697                 3.4205
 IR Inten    --     12.2903                11.5054                55.3523

                     16                     17                     18
                      A                      A                      A
 Frequencies --   1462.5999              1732.3793              3160.0091
 Red. masses --      4.4523                 7.3746                 1.0960
 Frc consts  --      5.6116                13.0398                 6.4483
 IR Inten    --      3.1523                 5.6743                13.8203

                     19                     20                     21
                      A                      A                      A
 Frequencies --   3161.8350              3270.4005              3313.2088
 Red. masses --      1.0961                 1.1101                 1.1125
 Frc consts  --      6.4564                 6.9952                 7.1955
 IR Inten    --     32.8016                56.5631                84.0588

 - Thermochemistry -
 -------------------
 Temperature   298.150 Kelvin.  Pressure   1.00000 Atm.
 Atom     1 has atomic number  1 and mass   1.00783

 Molecular mass:    64.03130 amu.
 Principal axes and moments of inertia in atomic units:
                           1         2         3
     Eigenvalues --   105.49411 360.64872 450.57653
           X            0.99984   0.01724  -0.00531
           Y           -0.01725   0.99985  -0.00218
           Z            0.00527   0.00227   0.99998
 This molecule is an asymmetric top.
 Rotational symmetry number  1.
 Rotational temperatures (Kelvin)      0.82103     0.24016     0.19223
 Rotational constants (GHZ):          17.10751     5.00415     4.00540
 Zero-point vibrational energy     169833.1 (Joules/Mol)
                                   40.59109 (Kcal/Mol)
 Warning -- explicit consideration of   4 degrees of freedom as
           vibrations may cause significant error
 Vibrational temperatures:    343.68   496.66   558.34   804.91   996.23
          (Kelvin)           1056.23  1163.17  1243.50  1359.48  1419.40
                             1430.85  1482.74  1689.44  1699.79  1943.10
                             2104.35  2492.50  4546.54  4549.17  4705.37
                             4766.96

 Zero-point correction=                           0.064686 (Hartree/Particle)
 Thermal correction to Energy=                    0.069454
 Thermal correction to Enthalpy=                  0.070398
 Thermal correction to Gibbs Free Energy=         0.037081
 Sum of electronic and zero-point Energies=           -192.440886
 Sum of electronic and thermal Energies=              -192.436119
 Sum of electronic and thermal Enthalpies=            -192.435175
 Sum of electronic and thermal Free Energies=         -192.468492

                     E (Thermal)             CV                S
                      KCal/Mol        Cal/Mol-Kelvin    Cal/Mol-Kelvin
 Total                   43.583             16.984             70.121
 Electronic               0.000              0.000              1.377
 Translational            0.889              2.981             38.389
 Rotational               0.889              2.981             24.353
 Vibrational             41.805             11.022              6.001
 Vibration     1          0.657              1.781              1.811
 Vibration     2          0.724              1.585              1.188
 Vibration     3          0.756              1.496              1.008
 Vibration     4          0.915              1.119              0.525

 Optimization completed.
    -- Stationary point found.
 Normal termination of Gaussian 09 at Mon Jun 20 04:57:03 2016.
