 Gaussian 09, Revision E.01,
 Gaussian 09:  EM64L-G09RevE.01 30-Nov-2015

 ---------------------------------------------
 #p b3lyp/6-311++G(3df,2p) freq symmetry=Loose
 ---------------------------------------------

 ---------
 b3lyp opt
 ---------
 Symbolic Z-matrix:
 Charge =  3 Multiplicity = 4

                         Standard orientation:
 ---------------------------------------------------------------------
 Center     Atomic      Atomic             Coordinates (Angstroms)
 Number     Number       Type             X           Y           Z
 ---------------------------------------------------------------------
      1          6           0       -0.376678   -1.044905   -0.164247
      2          6           0       -1.472937   -0.137396    0.092498
      3          1           0       -2.326428   -0.261771    0.918240
      4          1           0       -0.568113    2.024518   -0.285316
      5          1           0       -2.546855   -0.175400   -0.452319
      6          6           0       -0.488236    0.941681   -0.040424
      7          6           0        0.652855   -0.008936   -0.009223
      8          6           0        2.088203    0.074194    0.083757
      9          1           0        3.022150   -0.535177    0.045229
 ---------------------------------------------------------------------

 SCF Done:  E(UB3LYP) =  -190.996840442     A.U. after   18 cycles

 The electronic state is 4-A.
 Alpha  occ. eigenvalues --  -11.03453 -11.00745 -11.00234 -10.99818 -10.95984
 Alpha  occ. eigenvalues --   -1.66245  -1.48306  -1.37367  -1.36287  -1.22423
 Alpha  occ. eigenvalues --   -1.18417  -1.16930  -1.14362  -1.13785  -1.02847
 Alpha  occ. eigenvalues --   -1.00781  -0.96089
 Alpha virt. eigenvalues --   -0.84713  -0.81962  -0.68854  -0.56267  -0.54809
 Alpha virt. eigenvalues --   -0.53716  -0.51915  -0.50193  -0.47669  -0.45322
 Alpha virt. eigenvalues --   -0.43298  -0.41458  -0.40723  -0.39177  -0.38610

  Beta  occ. eigenvalues --  -11.01620 -11.00129 -10.98983 -10.98716 -10.95409
  Beta  occ. eigenvalues --   -1.64155  -1.44058  -1.34341  -1.33733  -1.19897
  Beta  occ. eigenvalues --   -1.15088  -1.14530  -1.12832  -1.10113
  Beta virt. eigenvalues --   -0.91993  -0.83195  -0.80156  -0.79542  -0.76995
  Beta virt. eigenvalues --   -0.63479  -0.54129  -0.53105  -0.51591  -0.49880
  Beta virt. eigenvalues --   -0.48909  -0.45915  -0.44660  -0.41072  -0.40582

 Mulliken charges and spin densities:
               1          2
     1  C    0.722408   0.813675
     2  C   -0.283988   0.328936
     3  H    0.324704   0.078076
     4  H    0.398464   0.036189
     5  H    0.345162   0.114918
     6  C    0.506402  -0.015879
     7  C    0.465257   0.526253
     8  C    0.114021   1.117122
     9  H    0.407569   0.000710
 Sum of Mulliken charges =   3.00000   3.00000

 Dipole moment (field-independent basis, Debye):
    X=             -1.3501    Y=              0.2778    Z=              0.3871  Tot=              1.4317
 Quadrupole moment (field-independent basis, Debye-Ang):
   XX=             27.7394   YY=            -12.0036   ZZ=            -19.9057
   XY=             -1.5501   XZ=             -0.9807   YZ=             -1.0056

  Exact polarizability:  75.051   0.728  36.668  -0.983  -0.241  25.392
 Approx polarizability: 132.091   3.755  64.788  -2.706   0.850  39.286

                      1                      2                      3
                      A                      A                      A
 Frequencies --    149.1058               330.5653               354.7531
 Red. masses --      2.3150                 2.1253                 2.5182
 Frc consts  --      0.0303                 0.1368                 0.1867
 IR Inten    --     33.0920                51.6577                33.6673

                      4                      5                      6
                      A                      A                      A
 Frequencies --    523.0357               549.5913               611.4457
 Red. masses --      1.3178                 1.4916                 1.9309
 Frc consts  --      0.2124                 0.2654                 0.4253
 IR Inten    --     78.0728                96.5286               581.7257

                      7                      8                      9
                      A                      A                      A
 Frequencies --    642.6314               665.7501               746.2435
 Red. masses --      1.4031                 1.4039                 1.5367
 Frc consts  --      0.3414                 0.3666                 0.5042
 IR Inten    --     79.2061                14.6322               373.3216

                     10                     11                     12
                      A                      A                      A
 Frequencies --    820.9326               892.8671               969.7055
 Red. masses --      1.6062                 3.2409                 1.8362
 Frc consts  --      0.6378                 1.5223                 1.0173
 IR Inten    --     32.6135                14.1265                 3.1972

                     13                     14                     15
                      A                      A                      A
 Frequencies --   1007.3343              1083.7618              1157.3814
 Red. masses --      8.6914                 2.1616                 3.5302
 Frc consts  --      5.1962                 1.4959                 2.7862
 IR Inten    --      6.5855                12.3793               153.1941

                     16                     17                     18
                      A                      A                      A
 Frequencies --   1208.4411              1300.3996              1967.6779
 Red. masses --      1.9784                 7.3286                 1.0442
 Frc consts  --      1.7022                 7.3017                 2.3820
 IR Inten    --     39.1101               226.2247               450.0473

                     19                     20                     21
                      A                      A                      A
 Frequencies --   2351.3669              2914.8293              2921.7324
 Red. masses --      1.1345                 1.1054                 1.1030
 Frc consts  --      3.6957                 5.5333                 5.5478
 IR Inten    --   1446.7726               517.3675               192.4070

 - Thermochemistry -
 -------------------
 Temperature   298.150 Kelvin.  Pressure   1.00000 Atm.
 Atom     1 has atomic number  6 and mass  12.00000

 Molecular mass:    64.03130 amu.
 Principal axes and moments of inertia in atomic units:
                           1         2         3
     Eigenvalues --   107.73069 396.95552 492.93322
           X            0.99975  -0.02169  -0.00594
           Y            0.02151   0.99939  -0.02761
           Z            0.00653   0.02748   0.99960
 This molecule is an asymmetric top.
 Rotational symmetry number  1.
 Rotational temperatures (Kelvin)      0.80398     0.21820     0.17571
 Rotational constants (GHZ):          16.75234     4.54646     3.66123
 Zero-point vibrational energy     138584.7 (Joules/Mol)
                                   33.12254 (Kcal/Mol)
 Warning -- explicit consideration of   6 degrees of freedom as
           vibrations may cause significant error
 Vibrational temperatures:    214.53   475.61   510.41   752.53   790.74
          (Kelvin)            879.73   924.60   957.86  1073.68  1181.14
                             1284.63  1395.19  1449.33  1559.29  1665.21
                             1738.68  1870.98  2831.05  3383.09  4193.78
                             4203.72

 Zero-point correction=                           0.052784 (Hartree/Particle)
 Thermal correction to Energy=                    0.058193
 Thermal correction to Enthalpy=                  0.059137
 Thermal correction to Gibbs Free Energy=         0.023944
 Sum of electronic and zero-point Energies=           -190.944056
 Sum of electronic and thermal Energies=              -190.938648
 Sum of electronic and thermal Enthalpies=            -190.937704
 Sum of electronic and thermal Free Energies=         -190.972897

                     E (Thermal)             CV                S
                      KCal/Mol        Cal/Mol-Kelvin    Cal/Mol-Kelvin
 Total                   36.516             19.775             74.070
 Electronic               0.000              0.000              2.755
 Translational            0.889              2.981             38.389
 Rotational               0.889              2.981             24.559
 Vibrational             34.739             13.814              8.367
 Vibration     1          0.618              1.904              2.684
 Vibration     2          0.713              1.614              1.257
 Vibration     3          0.731              1.566              1.145
 Vibration     4          0.878              1.199              0.603
 Vibration     5          0.905              1.141              0.545
 Vibration     6          0.971              1.008              0.430

 Optimization completed.
    -- Stationary point found.
 Normal termination of Gaussian 09 at Mon Jun 20 12:56:21 2016.
