 Gaussian 09, Revision E.01,
 Gaussian 09:  EM64L-G09RevE.01 30-Nov-2015

 ---------------------------------------------
 #p b3lyp/6-311++G(3df,2p) freq symmetry=Loose
 ---------------------------------------------

 ---------
 b3lyp opt
 ---------
 Symbolic Z-matrix:
 Charge =  1 Multiplicity = 2

                         Standard orientation:
 ---------------------------------------------------------------------
 Center     Atomic      Atomic             Coordinates (Angstroms)
 Number     Number       Type             X           Y           Z
 ---------------------------------------------------------------------
      1          6           0       -0.000000    1.158288   -0.492747
      2          1           0        0.000066    1.172443   -1.578514
      3          1           0       -0.000219    2.117123    0.006821
      4          1           0       -0.000066   -1.172443   -1.578514
      5          6           0        0.818110    0.000051    0.116722
      6          6           0       -0.818110   -0.000051    0.116722
      7          6           0        0.000000   -0.000000    1.275947
      8          6           0       -0.000000   -1.158288   -0.492747
      9          1           0        0.000219   -2.117123    0.006821
 ---------------------------------------------------------------------

 SCF Done:  E(UB3LYP) =  -192.384603837     A.U. after   14 cycles

 The electronic state is 2-A.
 Alpha  occ. eigenvalues --  -10.56190 -10.50797 -10.50783 -10.47200 -10.47198
 Alpha  occ. eigenvalues --   -1.28347  -0.96892  -0.94985  -0.84238  -0.78666
 Alpha  occ. eigenvalues --   -0.71864  -0.68537  -0.64176  -0.62834  -0.60341
 Alpha  occ. eigenvalues --   -0.59162  -0.54270
 Alpha virt. eigenvalues --   -0.37581  -0.28774  -0.15370  -0.14343  -0.12617
 Alpha virt. eigenvalues --   -0.12427  -0.11371  -0.10575  -0.09265  -0.08495
 Alpha virt. eigenvalues --   -0.07984  -0.06815  -0.06452  -0.05909  -0.04390

  Beta  occ. eigenvalues --  -10.55108 -10.50216 -10.50204 -10.47174 -10.47172
  Beta  occ. eigenvalues --   -1.27764  -0.96704  -0.94102  -0.82250  -0.77803
  Beta  occ. eigenvalues --   -0.71543  -0.66642  -0.64027  -0.62191  -0.60061
  Beta  occ. eigenvalues --   -0.55281
  Beta virt. eigenvalues --   -0.42379  -0.35783  -0.26050  -0.15288  -0.14268
  Beta virt. eigenvalues --   -0.12522  -0.12298  -0.10922  -0.10094  -0.09180
  Beta virt. eigenvalues --   -0.07832  -0.07596  -0.06484  -0.06430  -0.05603

 Mulliken charges and spin densities:
               1          2
     1  C   -0.504738   0.025992
     2  H    0.253311   0.005495
     3  H    0.234309   0.004278
     4  H    0.253311   0.005495
     5  C    0.598221   0.217158
     6  C    0.598221   0.217158
     7  C   -0.162206   0.494155
     8  C   -0.504738   0.025992
     9  H    0.234309   0.004278
 Sum of Mulliken charges =   1.00000   1.00000

 Dipole moment (field-independent basis, Debye):
    X=              0.0000    Y=              0.0000    Z=             -0.6045  Tot=              0.6045
 Quadrupole moment (field-independent basis, Debye-Ang):
   XX=            -28.1111   YY=            -17.8038   ZZ=            -21.8953
   XY=             -0.0006   XZ=              0.0000   YZ=             -0.0000

  Exact polarizability:  38.304  -0.000  44.935   0.000   0.000  48.895
 Approx polarizability:  81.092   0.002  68.086  -0.000   0.000  83.648

                      1                      2                      3
                      B                      B                      A
 Frequencies --    151.4488               175.3537               466.1485
 Red. masses --      8.2530                 3.9430                 2.1065
 Frc consts  --      0.1115                 0.0714                 0.2697
 IR Inten    --      0.0364                 5.8951                 0.7713

                      4                      5                      6
                      A                      A                      B
 Frequencies --    627.5937               705.1976               797.4839
 Red. masses --      8.0978                 6.9292                 4.0121
 Frc consts  --      1.8792                 2.0303                 1.5034
 IR Inten    --      0.0000                24.9646                75.4385

                      7                      8                      9
                      A                      B                      A
 Frequencies --    935.7555               939.3590              1004.7203
 Red. masses --      1.0396                 1.2011                 3.2947
 Frc consts  --      0.5363                 0.6244                 1.9596
 IR Inten    --      0.0000                 0.6100                 6.3389

                     10                     11                     12
                      B                      A                      B
 Frequencies --   1087.5351              1099.7420              1107.7292
 Red. masses --      7.2888                 1.2441                 1.1544
 Frc consts  --      5.0792                 0.8865                 0.8346
 IR Inten    --     17.2177                 0.0000                20.5844

                     13                     14                     15
                      A                      B                      A
 Frequencies --   1130.0995              1165.8972              1322.4038
 Red. masses --      2.1084                 1.6111                 5.8809
 Frc consts  --      1.5865                 1.2903                 6.0593
 IR Inten    --      1.4508                 1.7627                 9.0787

                     16                     17                     18
                      B                      A                      A
 Frequencies --   1450.2974              1491.5695              3103.9061
 Red. masses --      1.0707                 1.1941                 1.0549
 Frc consts  --      1.3268                 1.5652                 5.9881
 IR Inten    --     12.9759                11.5129                27.0541

                     19                     20                     21
                      B                      A                      B
 Frequencies --   3113.7721              3230.0169              3231.4077
 Red. masses --      1.0552                 1.1201                 1.1151
 Frc consts  --      6.0276                 6.8853                 6.8607
 IR Inten    --     24.6559                24.8688                10.3147

 - Thermochemistry -
 -------------------
 Temperature   298.150 Kelvin.  Pressure   1.00000 Atm.
 Atom     1 has atomic number  6 and mass  12.00000

 Molecular mass:    64.03130 amu.
 Principal axes and moments of inertia in atomic units:
                           1         2         3
     Eigenvalues --   166.49923 214.50598 266.27903
           X            0.00001   0.00000   1.00000
           Y            1.00000   0.00000  -0.00001
           Z           -0.00000   1.00000  -0.00000
 This molecule is an asymmetric top.
 Rotational symmetry number  2.
 Rotational temperatures (Kelvin)      0.52021     0.40378     0.32527
 Rotational constants (GHZ):          10.83934     8.41348     6.77763
 Zero-point vibrational energy     169495.5 (Joules/Mol)
                                   40.51040 (Kcal/Mol)
 Warning -- explicit consideration of   3 degrees of freedom as
           vibrations may cause significant error
 Vibrational temperatures:    217.90   252.29   670.68   902.97  1014.62
          (Kelvin)           1147.40  1346.34  1351.53  1445.57  1564.72
                             1582.28  1593.77  1625.96  1677.46  1902.64
                             2086.65  2146.03  4465.82  4480.02  4647.27
                             4649.27

 Zero-point correction=                           0.064557 (Hartree/Particle)
 Thermal correction to Energy=                    0.069485
 Thermal correction to Enthalpy=                  0.070429
 Thermal correction to Gibbs Free Energy=         0.037395
 Sum of electronic and zero-point Energies=           -192.320046
 Sum of electronic and thermal Energies=              -192.315119
 Sum of electronic and thermal Enthalpies=            -192.314175
 Sum of electronic and thermal Free Energies=         -192.347209

                     E (Thermal)             CV                S
                      KCal/Mol        Cal/Mol-Kelvin    Cal/Mol-Kelvin
 Total                   43.602             16.414             69.526
 Electronic               0.000              0.000              1.377
 Translational            0.889              2.981             38.389
 Rotational               0.889              2.981             22.391
 Vibrational             41.825             10.453              7.369
 Vibration     1          0.619              1.901              2.654
 Vibration     2          0.627              1.873              2.377
 Vibration     3          0.824              1.325              0.748

 Optimization completed.
    -- Stationary point found.
 Normal termination of Gaussian 09 at Wed Jul 20 10:49:16 2016.
