 Gaussian 09, Revision E.01,
 Gaussian 09:  EM64L-G09RevE.01 30-Nov-2015

 ---------------------------------------------
 #p b3lyp/6-311++G(3df,2p) freq symmetry=Loose
 ---------------------------------------------

 ---------
 b3lyp opt
 ---------
 Symbolic Z-matrix:
 Charge =  0 Multiplicity = 3

                         Standard orientation:
 ---------------------------------------------------------------------
 Center     Atomic      Atomic             Coordinates (Angstroms)
 Number     Number       Type             X           Y           Z
 ---------------------------------------------------------------------
      1          6           0        0.937850   -0.737580    0.000618
      2          1           0        1.458799   -1.112908    0.885489
      3          1           0        1.462853   -1.113397   -0.881779
      4          6           0       -0.507459   -1.074126   -0.001210
      5          6           0       -0.395600    1.137077    0.000437
      6          6           0       -1.308542   -0.007924   -0.000123
      7          1           0       -2.385664    0.033908    0.001497
      8          6           0        0.888708    0.810451   -0.000173
      9          1           0        1.774273    1.425008   -0.002498
 ---------------------------------------------------------------------

 SCF Done:  E(UB3LYP) =  -192.778808259     A.U. after   17 cycles

 The electronic state is 3-A.
 Alpha  occ. eigenvalues --  -10.21332 -10.20995 -10.20586 -10.18976 -10.18483
 Alpha  occ. eigenvalues --   -0.88853  -0.72931  -0.71548  -0.55668  -0.54704
 Alpha  occ. eigenvalues --   -0.46540  -0.46131  -0.41966  -0.40789  -0.32853
 Alpha  occ. eigenvalues --   -0.28766  -0.24707  -0.24506
 Alpha virt. eigenvalues --   -0.04028  -0.00583   0.01453   0.02165   0.02370
 Alpha virt. eigenvalues --    0.04812   0.05187   0.05662   0.06746   0.08106
 Alpha virt. eigenvalues --    0.09283   0.10883   0.11304   0.11927   0.12441

  Beta  occ. eigenvalues --  -10.20313 -10.19625 -10.19278 -10.18955 -10.18496
  Beta  occ. eigenvalues --   -0.86854  -0.72120  -0.69145  -0.54366  -0.52842
  Beta  occ. eigenvalues --   -0.45760  -0.42753  -0.40618  -0.39663  -0.32063
  Beta  occ. eigenvalues --   -0.23578
  Beta virt. eigenvalues --   -0.13092  -0.08241  -0.02595  -0.00481   0.01540
  Beta virt. eigenvalues --    0.02431   0.02563   0.05557   0.05966   0.06518
  Beta virt. eigenvalues --    0.07029   0.08076   0.09300   0.11255   0.11710

 Mulliken charges and spin densities:
               1          2
     1  C   -0.302707   0.067787
     2  H    0.139310   0.000015
     3  H    0.139010   0.000081
     4  C    0.004289   1.175155
     5  C    0.157384   1.132558
     6  C   -0.261237  -0.246226
     7  H    0.180083   0.016525
     8  C   -0.241451  -0.169672
     9  H    0.185320   0.023777
 Sum of Mulliken charges =  -0.00000   2.00000

 Dipole moment (field-independent basis, Debye):
    X=              0.9782    Y=             -0.4364    Z=              0.0020  Tot=              1.0711
 Quadrupole moment (field-independent basis, Debye-Ang):
   XX=            -25.4365   YY=            -31.8665   ZZ=            -31.5032
   XY=             -0.8488   XZ=             -0.0097   YZ=             -0.0134

  Exact polarizability:  64.371  -1.423  59.892  -0.003   0.030  41.044
 Approx polarizability: 102.914  -6.776  93.830  -0.021   0.051  59.868

                      1                      2                      3
                      A                      A                      A
 Frequencies --    197.5437               488.8582               580.0423
 Red. masses --      1.7196                 3.4290                 1.1932
 Frc consts  --      0.0395                 0.4828                 0.2365
 IR Inten    --      4.8570                 1.9291                36.5721

                      4                      5                      6
                      A                      A                      A
 Frequencies --    769.6033               807.2632               808.3833
 Red. masses --      6.5690                 1.6177                 7.8497
 Frc consts  --      2.2924                 0.6211                 3.0223
 IR Inten    --      1.0462                15.1445                 8.7505

                      7                      8                      9
                      A                      A                      A
 Frequencies --    866.0778               885.8048               951.5781
 Red. masses --      2.9028                 1.7103                 2.1943
 Frc consts  --      1.2829                 0.7907                 1.1707
 IR Inten    --      3.7333                26.7622                15.8896

                     10                     11                     12
                      A                      A                      A
 Frequencies --   1023.1954              1090.6358              1155.3648
 Red. masses --      3.8039                 1.1007                 1.5225
 Frc consts  --      2.3463                 0.7714                 1.1974
 IR Inten    --      3.7006                 0.1792                 7.7038

                     13                     14                     15
                      A                      A                      A
 Frequencies --   1197.0959              1256.5768              1414.2828
 Red. masses --      1.2778                 1.7902                 1.1350
 Frc consts  --      1.0788                 1.6654                 1.3376
 IR Inten    --      0.5974                 7.6818                12.4649

                     16                     17                     18
                      A                      A                      A
 Frequencies --   1535.4929              1598.4240              3031.6570
 Red. masses --      7.3095                 7.5504                 1.0575
 Frc consts  --     10.1539                11.3659                 5.7268
 IR Inten    --      4.5132                 4.5751                 3.3627

                     19                     20                     21
                      A                      A                      A
 Frequencies --   3066.3598              3224.0651              3225.8794
 Red. masses --      1.1006                 1.0943                 1.0953
 Frc consts  --      6.0971                 6.7020                 6.7152
 IR Inten    --      1.5433                 0.0041                 0.6342

 - Thermochemistry -
 -------------------
 Temperature   298.150 Kelvin.  Pressure   1.00000 Atm.
 Atom     1 has atomic number  6 and mass  12.00000

 Molecular mass:    64.03130 amu.
 Principal axes and moments of inertia in atomic units:
                           1         2         3
     Eigenvalues --   177.89648 215.38928 382.04493
           X            0.99688  -0.07890  -0.00010
           Y            0.07890   0.99688  -0.00015
           Z            0.00011   0.00014   1.00000
 This molecule is an asymmetric top.
 Rotational symmetry number  1.
 Rotational temperatures (Kelvin)      0.48688     0.40213     0.22671
 Rotational constants (GHZ):          10.14490     8.37897     4.72390
 Zero-point vibrational energy     174500.4 (Joules/Mol)
                                   41.70659 (Kcal/Mol)
 Warning -- explicit consideration of   3 degrees of freedom as
           vibrations may cause significant error
 Vibrational temperatures:    284.22   703.36   834.55  1107.29  1161.47
          (Kelvin)           1163.08  1246.09  1274.47  1369.11  1472.15
                             1569.18  1662.31  1722.35  1807.93  2034.83
                             2209.23  2299.77  4361.87  4411.80  4638.70
                             4641.32

 Zero-point correction=                           0.066464 (Hartree/Particle)
 Thermal correction to Energy=                    0.070792
 Thermal correction to Enthalpy=                  0.071736
 Thermal correction to Gibbs Free Energy=         0.038732
 Sum of electronic and zero-point Energies=           -192.712345
 Sum of electronic and thermal Energies=              -192.708017
 Sum of electronic and thermal Enthalpies=            -192.707072
 Sum of electronic and thermal Free Energies=         -192.740076

                     E (Thermal)             CV                S
                      KCal/Mol        Cal/Mol-Kelvin    Cal/Mol-Kelvin
 Total                   44.422             15.107             69.462
 Electronic               0.000              0.000              2.183
 Translational            0.889              2.981             38.389
 Rotational               0.889              2.981             24.197
 Vibrational             42.645              9.146              4.693
 Vibration     1          0.637              1.843              2.156
 Vibration     2          0.845              1.275              0.687
 Vibration     3          0.937              1.074              0.485

 Normal termination of Gaussian 09 at Mon Jun 20 03:26:08 2016.
