 Gaussian 09, Revision E.01,
 Gaussian 09:  EM64L-G09RevE.01 30-Nov-2015

 ---------------------------------------------
 #p b3lyp/6-311++G(3df,2p) freq symmetry=Loose
 ---------------------------------------------

 ---------
 b3lyp opt
 ---------
 Symbolic Z-matrix:
 Charge =  1 Multiplicity = 4

                         Standard orientation:
 ---------------------------------------------------------------------
 Center     Atomic      Atomic             Coordinates (Angstroms)
 Number     Number       Type             X           Y           Z
 ---------------------------------------------------------------------
      1          6           0        0.802252   -0.000000   -0.836310
      2          6           0       -0.802252    0.000000   -0.836310
      3          6           0       -1.107168    0.000000    0.579474
      4          6           0       -0.000000    0.000000    1.408292
      5          6           0        1.107168   -0.000000    0.579474
      6          1           0        1.198469    0.887698   -1.341919
      7          1           0       -1.198469   -0.887698   -1.341919
      8          1           0       -1.198469    0.887698   -1.341919
      9          1           0        1.198469   -0.887698   -1.341919
 ---------------------------------------------------------------------

 SCF Done:  E(UB3LYP) =  -192.388671326     A.U. after   13 cycles

 The electronic state is 4-B1.
 Alpha  occ. eigenvalues --  -10.51331 -10.51327 -10.47765 -10.44230 -10.44215
 Alpha  occ. eigenvalues --   -1.15611  -0.98503  -0.97906  -0.82417  -0.75519
 Alpha  occ. eigenvalues --   -0.72343  -0.70505  -0.65698  -0.63094  -0.56718
 Alpha  occ. eigenvalues --   -0.56708  -0.51343  -0.50301
 Alpha virt. eigenvalues --   -0.36251  -0.21806  -0.16941  -0.13246  -0.12607
 Alpha virt. eigenvalues --   -0.11582  -0.09018  -0.08176  -0.08079  -0.07979
 Alpha virt. eigenvalues --   -0.07548  -0.06728  -0.03539  -0.02976  -0.02479

  Beta  occ. eigenvalues --  -10.49560 -10.49558 -10.45875 -10.43891 -10.43879
  Beta  occ. eigenvalues --   -1.12371  -0.95939  -0.95188  -0.79372  -0.72653
  Beta  occ. eigenvalues --   -0.71848  -0.64901  -0.64021  -0.62715  -0.54804
  Beta virt. eigenvalues --   -0.40842  -0.33794  -0.33038  -0.31307  -0.18824
  Beta virt. eigenvalues --   -0.16792  -0.12884  -0.11933  -0.11089  -0.08544
  Beta virt. eigenvalues --   -0.08110  -0.07315  -0.07211  -0.06558  -0.05816

 Mulliken charges and spin densities:
               1          2
     1  C   -0.166926   0.097048
     2  C   -0.166926   0.097048
     3  C    0.204604   0.942950
     4  C    0.075933   0.905313
     5  C    0.204604   0.942950
     6  H    0.212178   0.003673
     7  H    0.212178   0.003673
     8  H    0.212178   0.003673
     9  H    0.212178   0.003673
 Sum of Mulliken charges =   1.00000   3.00000

 Dipole moment (field-independent basis, Debye):
    X=              0.0000    Y=              0.0000    Z=             -1.8229  Tot=              1.8229
 Quadrupole moment (field-independent basis, Debye-Ang):
   XX=            -21.4260   YY=            -24.8509   ZZ=            -20.7578
   XY=             -0.0000   XZ=             -0.0000   YZ=             -0.0000

  Exact polarizability:  53.550   0.000  35.526   0.000   0.000  52.661
 Approx polarizability: 101.870  -0.000  53.731   0.000  -0.000  86.423

                      1                      2                      3
                     A2                     B2                     B2
 Frequencies --    216.7773               356.7000               662.1726
 Red. masses --      1.7425                 4.3620                 1.2701
 Frc consts  --      0.0482                 0.3270                 0.3281
 IR Inten    --      0.0000                 2.3057                11.9362

                      4                      5                      6
                     B1                     A1                     A1
 Frequencies --    681.0576               742.6924               821.3288
 Red. masses --      6.2479                10.4696                 5.2430
 Frc consts  --      1.7075                 3.4025                 2.0838
 IR Inten    --      0.0717                14.4023                 2.1055

                      7                      8                      9
                     A2                     B1                     A2
 Frequencies --    862.4891               982.9498              1032.1333
 Red. masses --      1.9531                 2.4368                 1.0921
 Frc consts  --      0.8560                 1.3872                 0.6855
 IR Inten    --      0.0000                18.2616                 0.0000

                     10                     11                     12
                     A1                     B2                     A1
 Frequencies --   1046.3770              1088.5880              1139.8380
 Red. masses --      3.3494                 1.1082                 1.3630
 Frc consts  --      2.1607                 0.7738                 1.0434
 IR Inten    --      2.1540                 0.0107                30.2768

                     13                     14                     15
                     B1                     B1                     A1
 Frequencies --   1267.0850              1343.1800              1372.8337
 Red. masses --      1.8698                 1.3777                 1.5152
 Frc consts  --      1.7687                 1.4644                 1.6825
 IR Inten    --     62.5719                44.4102                53.7677

                     16                     17                     18
                     A1                     B1                     B1
 Frequencies --   1430.7637              1446.4057              3011.7477
 Red. masses --      3.0476                 3.6664                 1.0572
 Frc consts  --      3.6757                 4.5193                 5.6499
 IR Inten    --      2.1754                65.0522                38.5713

                     19                     20                     21
                     A1                     A2                     B2
 Frequencies --   3016.9041              3053.4912              3060.2683
 Red. masses --      1.0568                 1.1024                 1.1016
 Frc consts  --      5.6672                 6.0562                 6.0786
 IR Inten    --     81.4367                 0.0000                60.4813

 - Thermochemistry -
 -------------------
 Temperature   298.150 Kelvin.  Pressure   1.00000 Atm.
 Atom     1 has atomic number  6 and mass  12.00000

 Molecular mass:    64.03130 amu.
 Principal axes and moments of inertia in atomic units:
                           1         2         3
     Eigenvalues --   192.24216 209.39805 378.95186
           X            0.00000   1.00000   0.00000
           Y            0.00000  -0.00000   1.00000
           Z            1.00000   0.00000  -0.00000
 This molecule is an asymmetric top.
 Rotational symmetry number  2.
 Rotational temperatures (Kelvin)      0.45055     0.41363     0.22856
 Rotational constants (GHZ):           9.38785     8.61871     4.76246
 Zero-point vibrational energy     171280.0 (Joules/Mol)
                                   40.93691 (Kcal/Mol)
 Warning -- explicit consideration of   2 degrees of freedom as
           vibrations may cause significant error
 Vibrational temperatures:    311.89   513.21   952.72   979.89  1068.57
          (Kelvin)           1181.71  1240.93  1414.24  1485.01  1505.50
                             1566.23  1639.97  1823.05  1932.53  1975.20
                             2058.55  2081.05  4333.23  4340.65  4393.29
                             4403.04

 Zero-point correction=                           0.065237 (Hartree/Particle)
 Thermal correction to Energy=                    0.069632
 Thermal correction to Enthalpy=                  0.070577
 Thermal correction to Gibbs Free Energy=         0.037838
 Sum of electronic and zero-point Energies=           -192.323434
 Sum of electronic and thermal Energies=              -192.319039
 Sum of electronic and thermal Enthalpies=            -192.318095
 Sum of electronic and thermal Free Energies=         -192.350834

                     E (Thermal)             CV                S
                      KCal/Mol        Cal/Mol-Kelvin    Cal/Mol-Kelvin
 Total                   43.695             15.229             68.905
 Electronic               0.000              0.000              2.755
 Translational            0.889              2.981             38.389
 Rotational               0.889              2.981             22.860
 Vibrational             41.917              9.267              4.901
 Vibration     1          0.646              1.815              1.986
 Vibration     2          0.732              1.561              1.136

 Optimization completed.
    -- Stationary point found.
 Normal termination of Gaussian 09 at Wed Jul 20 22:21:35 2016.
