 Gaussian 09, Revision E.01,
 Gaussian 09:  EM64L-G09RevE.01 30-Nov-2015

 ---------------------------------------------
 #p b3lyp/6-311++G(3df,2p) freq symmetry=Loose
 ---------------------------------------------

 ---------
 b3lyp opt
 ---------
 Symbolic Z-matrix:
 Charge =  3 Multiplicity = 2

                         Standard orientation:
 ---------------------------------------------------------------------
 Center     Atomic      Atomic             Coordinates (Angstroms)
 Number     Number       Type             X           Y           Z
 ---------------------------------------------------------------------
      1          6           0       -1.096385   -0.290934    0.000152
      2          1           0       -1.060421   -1.443039    0.000073
      3          6           0        1.438338   -0.021320   -0.000225
      4          6           0        2.665060   -0.337625   -0.000435
      5          6           0       -2.396223   -0.090084    0.000366
      6          1           0       -3.517872   -0.069592    0.000541
      7          6           0        0.130220    0.533361    0.000014
      8          1           0        0.066236    1.376072    0.791910
      9          1           0        0.065990    1.376173   -0.791756
 ---------------------------------------------------------------------

 SCF Done:  E(UB3LYP) =  -191.016477344     A.U. after   24 cycles

 The electronic state is 2-A.
 Alpha  occ. eigenvalues --  -11.02697 -10.99496 -10.95362 -10.93235 -10.92955
 Alpha  occ. eigenvalues --   -1.54050  -1.49095  -1.41975  -1.26039  -1.21695
 Alpha  occ. eigenvalues --   -1.18518  -1.11606  -1.09965  -1.05555  -0.98988
 Alpha  occ. eigenvalues --   -0.97500
 Alpha virt. eigenvalues --   -0.90318  -0.80765  -0.67882  -0.66448  -0.65914
 Alpha virt. eigenvalues --   -0.52766  -0.51592  -0.50789  -0.45932  -0.44768
 Alpha virt. eigenvalues --   -0.43710  -0.41348  -0.40200  -0.38905  -0.36864

  Beta  occ. eigenvalues --  -11.03557 -10.96330 -10.95540 -10.93103 -10.92517
  Beta  occ. eigenvalues --   -1.55269  -1.47834  -1.39595  -1.26740  -1.21345
  Beta  occ. eigenvalues --   -1.19012  -1.11912  -1.11209  -1.01885  -0.95197
  Beta virt. eigenvalues --   -0.84592  -0.81906  -0.80751  -0.71697  -0.62507
  Beta virt. eigenvalues --   -0.59264  -0.52877  -0.52138  -0.50771  -0.45894
  Beta virt. eigenvalues --   -0.44803  -0.43651  -0.41207  -0.40209  -0.38932

 Mulliken charges and spin densities:
               1          2
     1  C    0.022594  -0.158639
     2  H    0.296715   0.010782
     3  C    0.681030   0.282654
     4  C    0.493416   1.471238
     5  C    0.409447  -0.456221
     6  H    0.505844   0.011770
     7  C   -0.100093  -0.065432
     8  H    0.345523  -0.048076
     9  H    0.345523  -0.048076
 Sum of Mulliken charges =   3.00000   1.00000

 Dipole moment (field-independent basis, Debye):
    X=             -3.8721    Y=              0.1718    Z=              0.0006  Tot=              3.8759
 Quadrupole moment (field-independent basis, Debye-Ang):
   XX=             46.4376   YY=            -13.3038   ZZ=            -20.9178
   XY=             -0.1017   XZ=             -0.0105   YZ=              0.0005

  Exact polarizability: 122.433   3.473  35.611  -0.015   0.000  25.689
 Approx polarizability: 271.731  -0.511  55.918  -0.036   0.001  38.107

                      1                      2                      3
                      A                      A                      A
 Frequencies --    156.4948               171.7789               287.1015
 Red. masses --      2.5473                 4.9106                 3.1846
 Frc consts  --      0.0368                 0.0854                 0.1547
 IR Inten    --      1.6617                 7.5417                10.6246

                      4                      5                      6
                      A                      A                      A
 Frequencies --    332.9758               473.0434               520.6245
 Red. masses --      2.3971                 5.9216                 1.5915
 Frc consts  --      0.1566                 0.7807                 0.2542
 IR Inten    --     47.6923                22.3996               114.9220

                      7                      8                      9
                      A                      A                      A
 Frequencies --    646.4336               671.5332               695.3547
 Red. masses --      2.2273                 1.3556                 1.6973
 Frc consts  --      0.5484                 0.3602                 0.4835
 IR Inten    --    257.4207                27.1222                 0.7730

                     10                     11                     12
                      A                      A                      A
 Frequencies --    834.2631               920.3472               956.8009
 Red. masses --      1.1742                 1.2686                 1.8910
 Frc consts  --      0.4815                 0.6331                 1.0200
 IR Inten    --    300.7821                 0.6863                15.3796

                     13                     14                     15
                      A                      A                      A
 Frequencies --   1020.2003              1032.0257              1224.0008
 Red. masses --      1.5225                 1.5353                 2.0882
 Frc consts  --      0.9337                 0.9634                 1.8433
 IR Inten    --     29.4377                16.5904               235.9453

                     16                     17                     18
                      A                      A                      A
 Frequencies --   1562.8776              1932.0841              2342.3633
 Red. masses --      4.9336                11.2301                 1.0601
 Frc consts  --      7.1000                24.6994                 3.4270
 IR Inten    --   1052.5513               431.8554               351.3332

                     19                     20                     21
                      A                      A                      A
 Frequencies --   2512.7632              2555.6152              2881.6735
 Red. masses --      1.0760                 1.0771                 1.1389
 Frc consts  --      4.0027                 4.1448                 5.5723
 IR Inten    --    861.6668               127.0415               634.7400

 - Thermochemistry -
 -------------------
 Temperature   298.150 Kelvin.  Pressure   1.00000 Atm.
 Atom     1 has atomic number  6 and mass  12.00000

 Molecular mass:    64.03130 amu.
 Principal axes and moments of inertia in atomic units:
                           1         2         3
     Eigenvalues --    46.57825 743.42105 780.97300
           X            0.99995   0.00952   0.00016
           Y           -0.00952   0.99995  -0.00006
           Z           -0.00016   0.00006   1.00000
 This molecule is an asymmetric top.
 Rotational symmetry number  1.
 Rotational temperatures (Kelvin)      1.85953     0.11651     0.11091
 Rotational constants (GHZ):          38.74643     2.42762     2.31089
 Zero-point vibrational energy     141939.0 (Joules/Mol)
                                   33.92425 (Kcal/Mol)
 Warning -- explicit consideration of   6 degrees of freedom as
           vibrations may cause significant error
 Vibrational temperatures:    225.16   247.15   413.07   479.08   680.60
          (Kelvin)            749.06   930.07   966.19  1000.46  1200.32
                             1324.17  1376.62  1467.84  1484.85  1761.06
                             2248.63  2779.83  3370.13  3615.30  3676.96
                             4146.08

 Zero-point correction=                           0.054062 (Hartree/Particle)
 Thermal correction to Energy=                    0.060028
 Thermal correction to Enthalpy=                  0.060973
 Thermal correction to Gibbs Free Energy=         0.025184
 Sum of electronic and zero-point Energies=           -190.962416
 Sum of electronic and thermal Energies=              -190.956449
 Sum of electronic and thermal Enthalpies=            -190.955505
 Sum of electronic and thermal Free Energies=         -190.991293

                     E (Thermal)             CV                S
                      KCal/Mol        Cal/Mol-Kelvin    Cal/Mol-Kelvin
 Total                   37.668             20.680             75.323
 Electronic               0.000              0.000              1.377
 Translational            0.889              2.981             38.389
 Rotational               0.889              2.981             24.806
 Vibrational             35.891             14.718             10.750
 Vibration     1          0.620              1.895              2.592
 Vibration     2          0.626              1.877              2.416
 Vibration     3          0.684              1.698              1.491
 Vibration     4          0.715              1.610              1.246
 Vibration     5          0.830              1.310              0.729
 Vibration     6          0.876              1.204              0.609

 Optimization completed.
    -- Stationary point found.
 Normal termination of Gaussian 09 at Wed Jul 20 04:33:54 2016.
