 Gaussian 09, Revision E.01,
 Gaussian 09:  EM64L-G09RevE.01 30-Nov-2015

 ---------------------------------------------
 #p b3lyp/6-311++G(3df,2p) freq symmetry=Loose
 ---------------------------------------------

 ---------
 b3lyp opt
 ---------
 Symbolic Z-matrix:
 Charge =  0 Multiplicity = 3

                         Standard orientation:
 ---------------------------------------------------------------------
 Center     Atomic      Atomic             Coordinates (Angstroms)
 Number     Number       Type             X           Y           Z
 ---------------------------------------------------------------------
      1          6           0       -1.553545   -0.822145    0.000024
      2          6           0       -1.671600    0.621651    0.000080
      3          1           0       -1.869942    1.170319   -0.918094
      4          6           0       -0.316378   -0.294951    0.000000
      5          1           0       -1.869879    1.170253    0.918307
      6          6           0        0.968007   -0.092597   -0.000037
      7          6           0        2.256512    0.125302   -0.000073
      8          1           0        2.820891    0.217971   -0.923323
      9          1           0        2.820955    0.217905    0.923145
 ---------------------------------------------------------------------

 SCF Done:  E(UB3LYP) =  -192.756482390     A.U. after   17 cycles

 The electronic state is 3-A.
 Alpha  occ. eigenvalues --  -10.22661 -10.22316 -10.21732 -10.21004 -10.20094
 Alpha  occ. eigenvalues --   -0.89867  -0.79879  -0.68939  -0.61902  -0.50864
 Alpha  occ. eigenvalues --   -0.48249  -0.46267  -0.43329  -0.40519  -0.32313
 Alpha  occ. eigenvalues --   -0.32110  -0.23657  -0.20467
 Alpha virt. eigenvalues --   -0.03732  -0.00710   0.00807   0.01861   0.02713
 Alpha virt. eigenvalues --    0.03996   0.04840   0.05289   0.07307   0.07848
 Alpha virt. eigenvalues --    0.08461   0.09610   0.09899   0.11033   0.11973

  Beta  occ. eigenvalues --  -10.22367 -10.22351 -10.20398 -10.19928 -10.19692
  Beta  occ. eigenvalues --   -0.88002  -0.78340  -0.68014  -0.60039  -0.49948
  Beta  occ. eigenvalues --   -0.46827  -0.45121  -0.40082  -0.37769  -0.29748
  Beta  occ. eigenvalues --   -0.28764
  Beta virt. eigenvalues --   -0.12779  -0.08950  -0.02103  -0.00565   0.00943
  Beta virt. eigenvalues --    0.02008   0.03503   0.04394   0.04972   0.06622
  Beta virt. eigenvalues --    0.07465   0.08085   0.08796   0.09907   0.11111

 Mulliken charges and spin densities:
               1          2
     1  C   -0.087175   1.313327
     2  C   -0.478332   0.166079
     3  H    0.161201   0.024832
     4  C    0.016493  -0.096811
     5  H    0.161201   0.024832
     6  C    0.230554   0.379313
     7  C   -0.354629   0.127817
     8  H    0.175344   0.030306
     9  H    0.175344   0.030306
 Sum of Mulliken charges =  -0.00000   2.00000

 Dipole moment (field-independent basis, Debye):
    X=              0.9957    Y=              1.7229    Z=              0.0000  Tot=              1.9899
 Quadrupole moment (field-independent basis, Debye-Ang):
   XX=            -27.1221   YY=            -31.8964   ZZ=            -29.2508
   XY=             -2.6979   XZ=             -0.0002   YZ=             -0.0000

  Exact polarizability: 115.855   6.685  52.706  -0.002   0.000  42.183
 Approx polarizability: 201.822  21.840  80.816  -0.004   0.000  59.286

                      1                      2                      3
                      A                      A                      A
 Frequencies --    174.1008               184.8314               349.7741
 Red. masses --      3.1122                 3.9212                 4.6882
 Frc consts  --      0.0556                 0.0789                 0.3379
 IR Inten    --      2.0845                 4.3720                 0.3626

                      4                      5                      6
                      A                      A                      A
 Frequencies --    461.6503               505.7814               575.8982
 Red. masses --      5.3470                 1.0454                 9.6354
 Frc consts  --      0.6714                 0.1576                 1.8828
 IR Inten    --      9.0780                 0.1351                 4.8137

                      7                      8                      9
                      A                      A                      A
 Frequencies --    863.9131               877.7157               893.2725
 Red. masses --      1.1920                 6.5837                 1.3315
 Frc consts  --      0.5242                 2.9883                 0.6260
 IR Inten    --      0.3745                 3.1406                42.9777

                     10                     11                     12
                      A                      A                      A
 Frequencies --    999.0512              1009.6548              1010.5867
 Red. masses --      1.3712                 1.3110                 1.2861
 Frc consts  --      0.8063                 0.7874                 0.7739
 IR Inten    --      0.3382                 0.0003                30.4483

                     13                     14                     15
                      A                      A                      A
 Frequencies --   1089.1158              1400.6333              1473.5969
 Red. masses --      6.2573                 1.4920                 1.1333
 Frc consts  --      4.3730                 1.7245                 1.4499
 IR Inten    --     28.3610                 5.1223                 6.1582

                     16                     17                     18
                      A                      A                      A
 Frequencies --   1530.4611              1895.0704              3048.9369
 Red. masses --      2.8539                10.7539                 1.0467
 Frc consts  --      3.9385                22.7545                 5.7327
 IR Inten    --      9.3051                32.0840                20.0358

                     19                     20                     21
                      A                      A                      A
 Frequencies --   3083.4926              3125.3955              3148.2271
 Red. masses --      1.0539                 1.1172                 1.1143
 Frc consts  --      5.9041                 6.4297                 6.5071
 IR Inten    --      5.8402                10.0099                 2.1589

 - Thermochemistry -
 -------------------
 Temperature   298.150 Kelvin.  Pressure   1.00000 Atm.
 Atom     1 has atomic number  6 and mass  12.00000

 Molecular mass:    64.03130 amu.
 Principal axes and moments of inertia in atomic units:
                           1         2         3
     Eigenvalues --    72.04255 580.49497 628.12973
           X            0.99977  -0.02136   0.00003
           Y            0.02136   0.99977  -0.00004
           Z           -0.00003   0.00004   1.00000
 This molecule is an asymmetric top.
 Rotational symmetry number  1.
 Rotational temperatures (Kelvin)      1.20226     0.14921     0.13789
 Rotational constants (GHZ):          25.05104     3.10897     2.87320
 Zero-point vibrational energy     165689.7 (Joules/Mol)
                                   39.60080 (Kcal/Mol)
 Warning -- explicit consideration of   6 degrees of freedom as
           vibrations may cause significant error
 Vibrational temperatures:    250.49   265.93   503.25   664.21   727.71
          (Kelvin)            828.59  1242.98  1262.84  1285.22  1437.41
                             1452.67  1454.01  1566.99  2015.20  2120.17
                             2201.99  2726.58  4386.73  4436.45  4496.74
                             4529.59

 Zero-point correction=                           0.063108 (Hartree/Particle)
 Thermal correction to Energy=                    0.068465
 Thermal correction to Enthalpy=                  0.069409
 Thermal correction to Gibbs Free Energy=         0.034285
 Sum of electronic and zero-point Energies=           -192.693375
 Sum of electronic and thermal Energies=              -192.688017
 Sum of electronic and thermal Enthalpies=            -192.687073
 Sum of electronic and thermal Free Energies=         -192.722197

                     E (Thermal)             CV                S
                      KCal/Mol        Cal/Mol-Kelvin    Cal/Mol-Kelvin
 Total                   42.962             18.193             73.925
 Electronic               0.000              0.000              2.183
 Translational            0.889              2.981             38.389
 Rotational               0.889              2.981             24.778
 Vibrational             41.185             12.231              8.575
 Vibration     1          0.627              1.874              2.391
 Vibration     2          0.631              1.861              2.279
 Vibration     3          0.727              1.576              1.167
 Vibration     4          0.819              1.335              0.761
 Vibration     5          0.861              1.237              0.644
 Vibration     6          0.932              1.083              0.493

 Optimization completed.
    -- Stationary point found.
 Normal termination of Gaussian 09 at Wed Jul 20 04:19:17 2016.
