 Gaussian 09, Revision E.01,
 Gaussian 09:  EM64L-G09RevE.01 30-Nov-2015

 ---------------------------------------------
 #p b3lyp/6-311++G(3df,2p) freq symmetry=Loose
 ---------------------------------------------

 ---------
 b3lyp opt
 ---------
 Symbolic Z-matrix:
 Charge =  1 Multiplicity = 4

                         Standard orientation:
 ---------------------------------------------------------------------
 Center     Atomic      Atomic             Coordinates (Angstroms)
 Number     Number       Type             X           Y           Z
 ---------------------------------------------------------------------
      1          6           0        0.970796    0.320997    0.430161
      2          1           0        1.767420    0.637614    1.092879
      3          6           0        0.898660   -0.561336   -0.694050
      4          6           0       -0.074517   -1.021321    0.279945
      5          1           0       -1.785352    0.162933    0.999238
      6          6           0       -0.182563    0.959056   -0.206991
      7          1           0       -0.244790    1.928871   -0.690514
      8          6           0       -1.244641   -0.092777    0.076521
      9          1           0       -1.943691   -0.357128   -0.715116
 ---------------------------------------------------------------------

 SCF Done:  E(UB3LYP) =  -192.352251844     A.U. after   16 cycles

 The electronic state is 4-A.
 Alpha  occ. eigenvalues --  -10.51540 -10.50658 -10.49980 -10.48323 -10.43869
 Alpha  occ. eigenvalues --   -1.22829  -0.98857  -0.93615  -0.82317  -0.77552
 Alpha  occ. eigenvalues --   -0.74310  -0.69781  -0.67049  -0.63089  -0.61196
 Alpha  occ. eigenvalues --   -0.54352  -0.49561  -0.47735
 Alpha virt. eigenvalues --   -0.28899  -0.21677  -0.14808  -0.14146  -0.12721
 Alpha virt. eigenvalues --   -0.12178  -0.10036  -0.08977  -0.08646  -0.08156
 Alpha virt. eigenvalues --   -0.06796  -0.06298  -0.05534  -0.04228  -0.02904

  Beta  occ. eigenvalues --  -10.49706 -10.49104 -10.48631 -10.47913 -10.43697
  Beta  occ. eigenvalues --   -1.19941  -0.96972  -0.90351  -0.79892  -0.74643
  Beta  occ. eigenvalues --   -0.70777  -0.67441  -0.64742  -0.59166  -0.57705
  Beta virt. eigenvalues --   -0.39878  -0.35682  -0.33934  -0.23227  -0.18245
  Beta virt. eigenvalues --   -0.14331  -0.13421  -0.11739  -0.11469  -0.09254
  Beta virt. eigenvalues --   -0.08518  -0.07925  -0.07590  -0.06068  -0.05686

 Mulliken charges and spin densities:
               1          2
     1  C    0.214951   0.190170
     2  H    0.336328   0.024594
     3  C    0.033347   1.001502
     4  C    0.220821   1.122949
     5  H    0.241097   0.066392
     6  C    0.011531   0.532496
     7  H    0.258736   0.025074
     8  C   -0.516520   0.017267
     9  H    0.199708   0.019556
 Sum of Mulliken charges =   1.00000   3.00000

 Dipole moment (field-independent basis, Debye):
    X=             -0.2005    Y=              1.6037    Z=              0.6514  Tot=              1.7426
 Quadrupole moment (field-independent basis, Debye-Ang):
   XX=            -18.4971   YY=            -22.2440   ZZ=            -25.3733
   XY=              0.5224   XZ=              1.6512   YZ=             -0.1907

  Exact polarizability:  51.266  -1.678  46.181  -2.142   0.686  39.996
 Approx polarizability:  82.008  -6.410  84.511  -8.004   4.254  67.427

                      1                      2                      3
                      A                      A                      A
 Frequencies --    252.5453               387.4033               465.5795
 Red. masses --      5.2407                 3.6179                 2.9208
 Frc consts  --      0.1969                 0.3199                 0.3730
 IR Inten    --      3.0883                10.3843                 1.2449

                      4                      5                      6
                      A                      A                      A
 Frequencies --    636.5189               739.9128               811.3662
 Red. masses --      4.4978                 1.2701                 1.3836
 Frc consts  --      1.0737                 0.4097                 0.5367
 IR Inten    --      7.9799                19.3415                25.7510

                      7                      8                      9
                      A                      A                      A
 Frequencies --    856.7397               933.6812               940.2780
 Red. masses --      2.2695                 1.6113                 2.7870
 Frc consts  --      0.9815                 0.8276                 1.4518
 IR Inten    --     24.5551                 0.7369                 0.8338

                     10                     11                     12
                      A                      A                      A
 Frequencies --    994.9915              1024.1613              1064.0621
 Red. masses --      2.1238                 1.8971                 1.2584
 Frc consts  --      1.2388                 1.1724                 0.8394
 IR Inten    --      7.9986                 4.3172                13.7808

                     13                     14                     15
                      A                      A                      A
 Frequencies --   1135.2962              1170.1655              1230.4990
 Red. masses --      4.1495                 1.8971                 1.6741
 Frc consts  --      3.1511                 1.5305                 1.4935
 IR Inten    --      7.8450                20.8748                24.5564

                     16                     17                     18
                      A                      A                      A
 Frequencies --   1305.0798              1422.7621              2976.0612
 Red. masses --      3.7914                 1.1012                 1.0665
 Frc consts  --      3.8047                 1.3133                 5.5653
 IR Inten    --      3.3576                27.7219                56.4065

                     19                     20                     21
                      A                      A                      A
 Frequencies --   3113.1760              3164.7576              3184.3428
 Red. masses --      1.0939                 1.0914                 1.0991
 Frc consts  --      6.2464                 6.4407                 6.5666
 IR Inten    --      5.2780                49.8066                76.1934

 - Thermochemistry -
 -------------------
 Temperature   298.150 Kelvin.  Pressure   1.00000 Atm.
 Atom     1 has atomic number  6 and mass  12.00000

 Molecular mass:    64.03130 amu.
 Principal axes and moments of inertia in atomic units:
                           1         2         3
     Eigenvalues --   162.48068 224.93563 297.07436
           X            0.99744   0.05620   0.04423
           Y           -0.05594   0.99841  -0.00726
           Z           -0.04456   0.00477   0.99900
 This molecule is an asymmetric top.
 Rotational symmetry number  1.
 Rotational temperatures (Kelvin)      0.53307     0.38506     0.29156
 Rotational constants (GHZ):          11.10742     8.02337     6.07505
 Zero-point vibrational energy     166337.0 (Joules/Mol)
                                   39.75550 (Kcal/Mol)
 Warning -- explicit consideration of   3 degrees of freedom as
           vibrations may cause significant error
 Vibrational temperatures:    363.36   557.39   669.86   915.81  1064.57
          (Kelvin)           1167.37  1232.66  1343.36  1352.85  1431.57
                             1473.54  1530.95  1633.44  1683.61  1770.41
                             1877.72  2047.03  4281.88  4479.16  4553.37
                             4581.55

 Zero-point correction=                           0.063354 (Hartree/Particle)
 Thermal correction to Energy=                    0.067887
 Thermal correction to Enthalpy=                  0.068831
 Thermal correction to Gibbs Free Energy=         0.035473
 Sum of electronic and zero-point Energies=           -192.288897
 Sum of electronic and thermal Energies=              -192.284365
 Sum of electronic and thermal Enthalpies=            -192.283421
 Sum of electronic and thermal Free Energies=         -192.316779

                     E (Thermal)             CV                S
                      KCal/Mol        Cal/Mol-Kelvin    Cal/Mol-Kelvin
 Total                   42.600             16.303             70.207
 Electronic               0.000              0.000              2.755
 Translational            0.889              2.981             38.389
 Rotational               0.889              2.981             23.900
 Vibrational             40.822             10.342              5.164
 Vibration     1          0.664              1.758              1.713
 Vibration     2          0.756              1.497              1.010
 Vibration     3          0.823              1.326              0.750

 Optimization completed.
    -- Stationary point found.
 Normal termination of Gaussian 09 at Mon Jun 20 07:41:06 2016.
