 Gaussian 09, Revision E.01,
 Gaussian 09:  EM64L-G09RevE.01 30-Nov-2015

 ---------------------------------------------
 #p b3lyp/6-311++G(3df,2p) freq symmetry=Loose
 ---------------------------------------------

 ---------
 b3lyp opt
 ---------
 Symbolic Z-matrix:
 Charge =  0 Multiplicity = 1

                         Standard orientation:
 ---------------------------------------------------------------------
 Center     Atomic      Atomic             Coordinates (Angstroms)
 Number     Number       Type             X           Y           Z
 ---------------------------------------------------------------------
      1          6           0        2.094593   -0.000537    0.281705
      2          6           0        0.834670    0.000616    0.026712
      3          6           0       -1.370852   -0.000730    0.506494
      4          1           0       -2.400887   -0.000564    0.168036
      5          1           0       -1.235679   -0.001384    1.581303
      6          6           0       -0.393006   -0.735449   -0.363592
      7          1           0       -0.497412   -1.470222   -1.142680
      8          6           0       -0.393347    0.736122   -0.362378
      9          1           0       -0.498365    1.472038   -1.140306
 ---------------------------------------------------------------------

 SCF Done:  E(RB3LYP) =  -192.759535992     A.U. after   12 cycles

 The electronic state is 1-A.
 Alpha  occ. eigenvalues --  -10.24598 -10.24566 -10.22287 -10.21033 -10.19685
 Alpha  occ. eigenvalues --   -0.97592  -0.75747  -0.66873  -0.62407  -0.57431
 Alpha  occ. eigenvalues --   -0.50557  -0.44869  -0.37871  -0.36475  -0.35044
 Alpha  occ. eigenvalues --   -0.28526  -0.25482
 Alpha virt. eigenvalues --   -0.10294  -0.01764   0.00442   0.00790   0.02018
 Alpha virt. eigenvalues --    0.03250   0.04484   0.05938   0.06014   0.06451
 Alpha virt. eigenvalues --    0.07237   0.08074   0.08753   0.10006   0.11256

 Mulliken charges:
               1
     1  C   -0.649567
     2  C    0.669057
     3  C   -0.595334
     4  H    0.133325
     5  H    0.192745
     6  C   -0.100231
     7  H    0.225237
     8  C   -0.100427
     9  H    0.225194
 Sum of Mulliken charges =  -0.00000

 Dipole moment (field-independent basis, Debye):
    X=             -4.4376    Y=              0.0024    Z=             -1.4059  Tot=              4.6550
 Quadrupole moment (field-independent basis, Debye-Ang):
   XX=            -38.0526   YY=            -28.2901   ZZ=            -29.4075
   XY=              0.0056   XZ=             -1.0819   YZ=              0.0019

  Exact polarizability:  73.993  -0.003  46.995   2.158   0.000  45.779
 Approx polarizability: 113.168  -0.002  75.826   6.897   0.009  66.241

                      1                      2                      3
                      A                      A                      A
 Frequencies --     99.5001               216.7050               545.9445
 Red. masses --      6.4089                 4.3589                 3.8810
 Frc consts  --      0.0374                 0.1206                 0.6815
 IR Inten    --      9.1266                 0.7941                 0.7930

                      4                      5                      6
                      A                      A                      A
 Frequencies --    714.7488               756.4665               763.9153
 Red. masses --      4.9613                 3.0232                 1.1453
 Frc consts  --      1.4933                 1.0193                 0.3938
 IR Inten    --      8.4636                23.3281                 6.6811

                      7                      8                      9
                      A                      A                      A
 Frequencies --    813.9333               987.3971               996.4863
 Red. masses --      4.4203                 1.1077                 1.6634
 Frc consts  --      1.7254                 0.6363                 0.9732
 IR Inten    --     14.4541                 5.4145                 2.9457

                     10                     11                     12
                      A                      A                      A
 Frequencies --   1041.0457              1057.8310              1114.6736
 Red. masses --      1.6700                 1.6242                 1.1909
 Frc consts  --      1.0664                 1.0709                 0.8718
 IR Inten    --      0.6811                 8.3676                10.5446

                     13                     14                     15
                      A                      A                      A
 Frequencies --   1140.8082              1234.6687              1270.9457
 Red. masses --      1.3032                 2.0716                 3.5688
 Frc consts  --      0.9993                 1.8606                 3.3965
 IR Inten    --      6.5158                 6.5359                 8.4479

                     16                     17                     18
                      A                      A                      A
 Frequencies --   1514.0003              1824.6726              3096.8279
 Red. masses --      1.1778                11.0065                 1.0521
 Frc consts  --      1.5907                21.5908                 5.9451
 IR Inten    --      1.0472               148.2779                28.2244

                     19                     20                     21
                      A                      A                      A
 Frequencies --   3182.0324              3234.5176              3246.9121
 Red. masses --      1.1187                 1.0892                 1.1039
 Frc consts  --      6.6740                 6.7140                 6.8565
 IR Inten    --      8.2158                 0.3959                 0.7222

 - Thermochemistry -
 -------------------
 Temperature   298.150 Kelvin.  Pressure   1.00000 Atm.
 Atom     1 has atomic number  6 and mass  12.00000

 Molecular mass:    64.03130 amu.
 Principal axes and moments of inertia in atomic units:
                           1         2         3
     Eigenvalues --   106.09931 382.67137 400.52705
           X            0.99990   0.00001  -0.01423
           Y           -0.00001   1.00000  -0.00017
           Z            0.01423   0.00017   0.99990
 This molecule is an asymmetric top.
 Rotational symmetry number  1.
 Rotational temperatures (Kelvin)      0.81635     0.22634     0.21625
 Rotational constants (GHZ):          17.00992     4.71616     4.50592
 Zero-point vibrational energy     172585.4 (Joules/Mol)
                                   41.24891 (Kcal/Mol)
 Warning -- explicit consideration of   3 degrees of freedom as
           vibrations may cause significant error
 Vibrational temperatures:    143.16   311.79   785.49  1028.36  1088.39
          (Kelvin)           1099.10  1171.07  1420.64  1433.72  1497.83
                             1521.98  1603.76  1641.37  1776.41  1828.61
                             2178.31  2625.29  4455.64  4578.23  4653.74
                             4671.58

 Zero-point correction=                           0.065734 (Hartree/Particle)
 Thermal correction to Energy=                    0.070607
 Thermal correction to Enthalpy=                  0.071551
 Thermal correction to Gibbs Free Energy=         0.038196
 Sum of electronic and zero-point Energies=           -192.693802
 Sum of electronic and thermal Energies=              -192.688929
 Sum of electronic and thermal Enthalpies=            -192.687985
 Sum of electronic and thermal Free Energies=         -192.721340

                     E (Thermal)             CV                S
                      KCal/Mol        Cal/Mol-Kelvin    Cal/Mol-Kelvin
 Total                   44.307             16.122             70.202
 Electronic               0.000              0.000              0.000
 Translational            0.889              2.981             38.389
 Rotational               0.889              2.981             24.301
 Vibrational             42.529             10.160              7.512
 Vibration     1          0.604              1.949              3.464
 Vibration     2          0.646              1.816              1.986
 Vibration     3          0.901              1.149              0.553

 Optimization completed.
    -- Stationary point found.
 Normal termination of Gaussian 09 at Wed Jun 22 02:09:34 2016.
