 Gaussian 09, Revision E.01,
 Gaussian 09:  EM64L-G09RevE.01 30-Nov-2015

 ---------------------------------------------
 #p b3lyp/6-311++G(3df,2p) freq symmetry=Loose
 ---------------------------------------------

 ---------
 b3lyp opt
 ---------
 Symbolic Z-matrix:
 Charge =  0 Multiplicity = 3

                         Standard orientation:
 ---------------------------------------------------------------------
 Center     Atomic      Atomic             Coordinates (Angstroms)
 Number     Number       Type             X           Y           Z
 ---------------------------------------------------------------------
      1          6           0        1.541219    0.000000   -0.000071
      2          6           0        0.620490   -1.046819   -0.000121
      3          1           0        0.644909   -2.121519   -0.000217
      4          6           0       -0.444713    0.000000    0.000021
      5          6           0       -1.774843    0.000000    0.000082
      6          1           0       -2.332841   -0.925622    0.000026
      7          1           0       -2.332841    0.925622    0.000190
      8          6           0        0.620490    1.046819    0.000063
      9          1           0        0.644909    2.121519    0.000157
 ---------------------------------------------------------------------

 SCF Done:  E(UB3LYP) =  -192.780641336     A.U. after   15 cycles

 The electronic state is 3-A.
 Alpha  occ. eigenvalues --  -10.22721 -10.21399 -10.20808 -10.20802 -10.17155
 Alpha  occ. eigenvalues --   -0.91638  -0.74935  -0.67938  -0.57352  -0.54614
 Alpha  occ. eigenvalues --   -0.46521  -0.46022  -0.41847  -0.40796  -0.36368
 Alpha  occ. eigenvalues --   -0.26994  -0.25466  -0.21269
 Alpha virt. eigenvalues --   -0.03852  -0.00262   0.01196   0.01606   0.03654
 Alpha virt. eigenvalues --    0.03669   0.04852   0.06120   0.07830   0.08723
 Alpha virt. eigenvalues --    0.09233   0.09311   0.10968   0.11005   0.11347

  Beta  occ. eigenvalues --  -10.21493 -10.21307 -10.19765 -10.19761 -10.17080
  Beta  occ. eigenvalues --   -0.89298  -0.74273  -0.64980  -0.55552  -0.53155
  Beta  occ. eigenvalues --   -0.45952  -0.43788  -0.40564  -0.37373  -0.35462
  Beta  occ. eigenvalues --   -0.24555
  Beta virt. eigenvalues --   -0.11580  -0.09304  -0.02569  -0.00116   0.01249
  Beta virt. eigenvalues --    0.01738   0.03701   0.04362   0.05343   0.06511
  Beta virt. eigenvalues --    0.08595   0.09189   0.09327   0.10159   0.11262

 Mulliken charges and spin densities:
               1          2
     1  C   -0.102296   0.744589
     2  C   -0.182615   0.664411
     3  H    0.248235  -0.024041
     4  C    0.432484  -0.011731
     5  C   -0.783659  -0.016763
     6  H    0.161115   0.001582
     7  H    0.161115   0.001582
     8  C   -0.182615   0.664411
     9  H    0.248235  -0.024041
 Sum of Mulliken charges =  -0.00000   2.00000

 Dipole moment (field-independent basis, Debye):
    X=             -0.5923    Y=              0.0000    Z=              0.0000  Tot=              0.5923
 Quadrupole moment (field-independent basis, Debye-Ang):
   XX=            -30.7246   YY=            -25.0314   ZZ=            -32.9628
   XY=              0.0000   XZ=             -0.0001   YZ=              0.0007

  Exact polarizability:  80.379   0.000  60.369  -0.002   0.002  40.031
 Approx polarizability: 133.799   0.000  94.816  -0.004   0.003  57.688

                      1                      2                      3
                      A                      A                      A
 Frequencies --    240.2089               349.1868               497.0755
 Red. masses --      6.1970                 2.3415                 1.3727
 Frc consts  --      0.2107                 0.1682                 0.1998
 IR Inten    --      0.0102                 0.1622                64.4618

                      4                      5                      6
                      A                      A                      A
 Frequencies --    563.2880               643.1030               719.8402
 Red. masses --      1.2061                 2.8632                 4.0213
 Frc consts  --      0.2255                 0.6977                 1.2277
 IR Inten    --      0.0000                 5.9457                 0.3145

                      7                      8                      9
                      A                      A                      A
 Frequencies --    731.6143               809.8629               881.4669
 Red. masses --      1.1226                 3.6761                 1.3676
 Frc consts  --      0.3540                 1.4206                 0.6261
 IR Inten    --      0.0000                 0.0642                54.9734

                     10                     11                     12
                      A                      A                      A
 Frequencies --    900.2365              1010.6646              1106.7315
 Red. masses --      2.5702                 2.3192                 1.3996
 Frc consts  --      1.2272                 1.3958                 1.0100
 IR Inten    --      0.7000                 3.0718                 1.0673

                     13                     14                     15
                      A                      A                      A
 Frequencies --   1136.5867              1186.8360              1373.7794
 Red. masses --      1.9369                 2.9284                 4.2909
 Frc consts  --      1.4743                 2.4303                 4.7713
 IR Inten    --     11.7911                 0.0196                 1.4921

                     16                     17                     18
                      A                      A                      A
 Frequencies --   1447.6773              1706.1138              3144.5422
 Red. masses --      1.1633                 6.8818                 1.0579
 Frc consts  --      1.4364                11.8023                 6.1632
 IR Inten    --      0.0200                39.0819                 2.3389

                     19                     20                     21
                      A                      A                      A
 Frequencies --   3230.5640              3264.5509              3269.2830
 Red. masses --      1.1170                 1.0925                 1.1016
 Frc consts  --      6.8687                 6.8596                 6.9373
 IR Inten    --      5.1184                 0.5001                 0.0167

 - Thermochemistry -
 -------------------
 Temperature   298.150 Kelvin.  Pressure   1.00000 Atm.
 Atom     1 has atomic number  6 and mass  12.00000

 Molecular mass:    64.03130 amu.
 Principal axes and moments of inertia in atomic units:
                           1         2         3
     Eigenvalues --   132.48294 319.79279 452.27573
           X            1.00000   0.00000   0.00005
           Y           -0.00000   1.00000  -0.00009
           Z           -0.00005   0.00009   1.00000
 This molecule is an asymmetric top.
 Rotational symmetry number  1.
 Rotational temperatures (Kelvin)      0.65377     0.27084     0.19151
 Rotational constants (GHZ):          13.62244     5.64347     3.99036
 Zero-point vibrational energy     168752.5 (Joules/Mol)
                                   40.33281 (Kcal/Mol)
 Warning -- explicit consideration of   4 degrees of freedom as
           vibrations may cause significant error
 Vibrational temperatures:    345.61   502.40   715.18   810.44   925.28
          (Kelvin)           1035.69  1052.63  1165.21  1268.23  1295.24
                             1454.12  1592.34  1635.29  1707.59  1976.56
                             2082.88  2454.71  4524.29  4648.06  4696.95
                             4703.76

 Zero-point correction=                           0.064274 (Hartree/Particle)
 Thermal correction to Energy=                    0.069023
 Thermal correction to Enthalpy=                  0.069967
 Thermal correction to Gibbs Free Energy=         0.036279
 Sum of electronic and zero-point Energies=           -192.716367
 Sum of electronic and thermal Energies=              -192.711618
 Sum of electronic and thermal Enthalpies=            -192.710674
 Sum of electronic and thermal Free Energies=         -192.744362

                     E (Thermal)             CV                S
                      KCal/Mol        Cal/Mol-Kelvin    Cal/Mol-Kelvin
 Total                   43.313             17.194             70.902
 Electronic               0.000              0.000              2.183
 Translational            0.889              2.981             38.389
 Rotational               0.889              2.981             24.464
 Vibrational             41.535             11.232              5.866
 Vibration     1          0.657              1.779              1.801
 Vibration     2          0.726              1.577              1.170
 Vibration     3          0.853              1.257              0.665
 Vibration     4          0.919              1.111              0.517

 Optimization completed.
    -- Stationary point found.
 Normal termination of Gaussian 09 at Wed Jul 20 08:08:03 2016.
