 Gaussian 09, Revision E.01,
 Gaussian 09:  EM64L-G09RevE.01 30-Nov-2015

 ---------------------------------------------
 #p b3lyp/6-311++G(3df,2p) freq symmetry=Loose
 ---------------------------------------------

 ---------
 b3lyp opt
 ---------
 Symbolic Z-matrix:
 Charge =  0 Multiplicity = 1

                         Standard orientation:
 ---------------------------------------------------------------------
 Center     Atomic      Atomic             Coordinates (Angstroms)
 Number     Number       Type             X           Y           Z
 ---------------------------------------------------------------------
      1          6           0        0.573425   -0.957770    0.302426
      2          6           0       -0.557792   -0.000949    0.041859
      3          6           0       -1.870109   -0.028420   -0.110146
      4          1           0       -2.429269    0.867465   -0.338877
      5          1           0       -2.410132   -0.961890   -0.040103
      6          6           0        0.592375    0.880258    0.067888
      7          1           0        0.757893    1.701396    0.765135
      8          6           0        1.515293   -0.130287   -0.279427
      9          1           0        2.562355   -0.183963   -0.521751
 ---------------------------------------------------------------------

 SCF Done:  E(RB3LYP) =  -192.810247208     A.U. after   13 cycles

 The electronic state is 1-A.
 Alpha  occ. eigenvalues --  -10.23607 -10.21867 -10.21351 -10.21001 -10.17758
 Alpha  occ. eigenvalues --   -0.93575  -0.76028  -0.63887  -0.62422  -0.51508
 Alpha  occ. eigenvalues --   -0.48131  -0.45716  -0.42740  -0.38071  -0.36295
 Alpha  occ. eigenvalues --   -0.26030  -0.23377
 Alpha virt. eigenvalues --   -0.06711  -0.04721  -0.00444   0.00710   0.01623
 Alpha virt. eigenvalues --    0.03064   0.03850   0.05594   0.05991   0.07365
 Alpha virt. eigenvalues --    0.08560   0.08781   0.10036   0.11243   0.11642

 Mulliken charges:
               1
     1  C   -0.353854
     2  C    0.474319
     3  C   -0.526294
     4  H    0.169813
     5  H    0.173441
     6  C   -0.335895
     7  H    0.172181
     8  C   -0.007929
     9  H    0.234217
 Sum of Mulliken charges =  -0.00000

 Dipole moment (field-independent basis, Debye):
    X=              0.5219    Y=              2.0203    Z=             -0.7222  Tot=              2.2081
 Quadrupole moment (field-independent basis, Debye-Ang):
   XX=            -24.8835   YY=            -31.1834   ZZ=            -32.3053
   XY=              1.5294   XZ=             -0.8152   YZ=              2.5931

  Exact polarizability:  83.996  -0.289  61.265  -1.016  -2.777  41.248
 Approx polarizability: 136.815   1.373 117.137  -7.773  -8.147  62.593

                      1                      2                      3
                      A                      A                      A
 Frequencies --    271.3618               349.2829               539.2932
 Red. masses --      3.2164                 2.5473                 2.2433
 Frc consts  --      0.1395                 0.1831                 0.3844
 IR Inten    --      9.5077                10.5400                34.8626

                      4                      5                      6
                      A                      A                      A
 Frequencies --    654.6129               707.1217               779.4788
 Red. masses --      1.5672                 4.3933                 2.1299
 Frc consts  --      0.3957                 1.2943                 0.7625
 IR Inten    --      9.8770                40.1173                39.5664

                      7                      8                      9
                      A                      A                      A
 Frequencies --    810.2935               899.4278               903.8040
 Red. masses --      1.5509                 1.7220                 1.5520
 Frc consts  --      0.5999                 0.8208                 0.7469
 IR Inten    --     21.0841                48.1540                13.5601

                     10                     11                     12
                      A                      A                      A
 Frequencies --   1000.9561              1059.2089              1090.0748
 Red. masses --      2.8227                 1.2942                 1.6889
 Frc consts  --      1.6662                 0.8555                 1.1824
 IR Inten    --     19.0262                 5.2063                 1.0908

                     13                     14                     15
                      A                      A                      A
 Frequencies --   1200.6713              1291.0255              1422.3388
 Red. masses --      1.4868                 2.8663                 4.6087
 Frc consts  --      1.2628                 2.8148                 5.4933
 IR Inten    --      3.3791                 5.5572                 0.9214

                     16                     17                     18
                      A                      A                      A
 Frequencies --   1452.2811              1776.0456              3078.9663
 Red. masses --      1.1699                 8.0621                 1.0909
 Frc consts  --      1.4538                14.9833                 6.0930
 IR Inten    --      1.3224                30.2850                21.0455

                     19                     20                     21
                      A                      A                      A
 Frequencies --   3147.7613              3233.6416              3257.7085
 Red. masses --      1.0584                 1.1171                 1.1033
 Frc consts  --      6.1785                 6.8823                 6.8986
 IR Inten    --      1.7955                 2.2910                 1.0655

 - Thermochemistry -
 -------------------
 Temperature   298.150 Kelvin.  Pressure   1.00000 Atm.
 Atom     1 has atomic number  6 and mass  12.00000

 Molecular mass:    64.03130 amu.
 Principal axes and moments of inertia in atomic units:
                           1         2         3
     Eigenvalues --   101.25903 369.84034 448.39345
           X            0.99991   0.01300   0.00222
           Y           -0.01310   0.99859   0.05153
           Z           -0.00154  -0.05156   0.99867
 This molecule is an asymmetric top.
 Rotational symmetry number  1.
 Rotational temperatures (Kelvin)      0.85537     0.23419     0.19316
 Rotational constants (GHZ):          17.82302     4.87978     4.02491
 Zero-point vibrational energy     173012.1 (Joules/Mol)
                                   41.35087 (Kcal/Mol)
 Warning -- explicit consideration of   3 degrees of freedom as
           vibrations may cause significant error
 Vibrational temperatures:    390.43   502.54   775.92   941.84  1017.39
          (Kelvin)           1121.49  1165.83  1294.07  1300.37  1440.15
                             1523.96  1568.37  1727.50  1857.50  2046.43
                             2089.51  2555.33  4429.94  4528.92  4652.48
                             4687.11

 Zero-point correction=                           0.065897 (Hartree/Particle)
 Thermal correction to Energy=                    0.070389
 Thermal correction to Enthalpy=                  0.071333
 Thermal correction to Gibbs Free Energy=         0.039146
 Sum of electronic and zero-point Energies=           -192.744350
 Sum of electronic and thermal Energies=              -192.739858
 Sum of electronic and thermal Enthalpies=            -192.738914
 Sum of electronic and thermal Free Energies=         -192.771102

                     E (Thermal)             CV                S
                      KCal/Mol        Cal/Mol-Kelvin    Cal/Mol-Kelvin
 Total                   44.170             16.030             67.745
 Electronic               0.000              0.000              0.000
 Translational            0.889              2.981             38.389
 Rotational               0.889              2.981             24.333
 Vibrational             42.392             10.068              5.023
 Vibration     1          0.675              1.726              1.588
 Vibration     2          0.727              1.577              1.169
 Vibration     3          0.894              1.163              0.567

 Optimization completed.
    -- Stationary point found.
 Normal termination of Gaussian 09 at Wed Jun 22 02:27:55 2016.
