 Gaussian 09, Revision E.01,
 Gaussian 09:  EM64L-G09RevE.01 30-Nov-2015

 ---------------------------------------------
 #p b3lyp/6-311++G(3df,2p) freq symmetry=Loose
 ---------------------------------------------

 ---------
 b3lyp opt
 ---------
 Symbolic Z-matrix:
 Charge =  2 Multiplicity = 3

                         Standard orientation:
 ---------------------------------------------------------------------
 Center     Atomic      Atomic             Coordinates (Angstroms)
 Number     Number       Type             X           Y           Z
 ---------------------------------------------------------------------
      1          6           0        0.000562    0.709112   -0.000000
      2          6           0        0.000000    2.082633   -0.000000
      3          6           0       -0.002048   -0.302863    1.027372
      4          1           0       -0.011063   -0.277448    2.120307
      5          6           0       -0.002048   -0.302863   -1.027372
      6          1           0       -0.011063   -0.277448   -2.120307
      7          1           0        0.886449   -2.072812    0.000000
      8          6           0        0.003993   -1.400255    0.000000
      9          1           0       -0.867064   -2.086973    0.000000
 ---------------------------------------------------------------------

 SCF Done:  E(UB3LYP) =  -191.838803464     A.U. after   18 cycles

 The electronic state is 3-A".
 Alpha  occ. eigenvalues --  -10.79200 -10.75387 -10.75385 -10.71015 -10.65632
 Alpha  occ. eigenvalues --   -1.39571  -1.24123  -1.14340  -1.09075  -1.00327
 Alpha  occ. eigenvalues --   -0.92057  -0.90799  -0.90618  -0.85234  -0.83590
 Alpha  occ. eigenvalues --   -0.79929  -0.72489
 Alpha virt. eigenvalues --   -0.61980  -0.60090  -0.40953  -0.32486  -0.32091
 Alpha virt. eigenvalues --   -0.30881  -0.30147  -0.27943  -0.26025  -0.25304
 Alpha virt. eigenvalues --   -0.23157  -0.22461  -0.21803  -0.20475  -0.19808

  Beta  occ. eigenvalues --  -10.75430 -10.75263 -10.75261 -10.70846 -10.65623
  Beta  occ. eigenvalues --   -1.39095  -1.20002  -1.14012  -1.06858  -1.00252
  Beta  occ. eigenvalues --   -0.91054  -0.90603  -0.86401  -0.85036  -0.79090
  Beta virt. eigenvalues --   -0.63219  -0.60296  -0.58218  -0.52416  -0.38949
  Beta virt. eigenvalues --   -0.32459  -0.31776  -0.30112  -0.30062  -0.27933
  Beta virt. eigenvalues --   -0.25686  -0.25131  -0.22799  -0.21663  -0.21597

 Mulliken charges and spin densities:
               1          2
     1  C    0.248912  -0.040126
     2  C    0.220696   1.883013
     3  C    0.425505   0.081124
     4  H    0.383429   0.000948
     5  C    0.425505   0.081124
     6  H    0.383429   0.000948
     7  H    0.258444  -0.015487
     8  C   -0.604254   0.023566
     9  H    0.258334  -0.015111
 Sum of Mulliken charges =   2.00000   2.00000

 Dipole moment (field-independent basis, Debye):
    X=             -0.0043    Y=              0.0091    Z=              0.0000  Tot=              0.0101
 Quadrupole moment (field-independent basis, Debye-Ang):
   XX=            -22.5031   YY=             -2.9435   ZZ=            -11.3891
   XY=             -0.0220   XZ=             -0.0000   YZ=             -0.0000

  Exact polarizability:  27.361  -0.060  68.239  -0.000  -0.000  40.602
 Approx polarizability:  42.149  -0.167 133.632  -0.000  -0.000  64.124

                      1                      2                      3
                     A'                     A'                     A"
 Frequencies --     29.0205               285.6878               400.8544
 Red. masses --      1.5543                 4.8934                 5.3068
 Frc consts  --      0.0008                 0.2353                 0.5024
 IR Inten    --      1.5441                17.4887                 0.2788

                      4                      5                      6
                     A'                     A'                     A"
 Frequencies --    630.4700               756.3350               790.9338
 Red. masses --      1.2563                 5.5838                 2.2594
 Frc consts  --      0.2942                 1.8819                 0.8328
 IR Inten    --     27.3795                 0.0127                 6.2838

                      7                      8                      9
                     A"                     A'                     A'
 Frequencies --    887.1047               907.3763              1054.2561
 Red. masses --      1.0370                 1.9638                 6.1059
 Frc consts  --      0.4808                 0.9526                 3.9985
 IR Inten    --      0.0016               144.0238                 4.2526

                     10                     11                     12
                     A'                     A"                     A"
 Frequencies --   1059.7551              1108.2708              1114.8335
 Red. masses --      2.4132                 1.3318                 4.4947
 Frc consts  --      1.5968                 0.9638                 3.2914
 IR Inten    --      0.0946                 0.1635                73.2897

                     13                     14                     15
                     A"                     A'                     A"
 Frequencies --   1183.1091              1248.7918              1253.2326
 Red. masses --      1.3792                 1.1444                 1.8213
 Frc consts  --      1.1375                 1.0515                 1.6854
 IR Inten    --      0.1433               265.8002               115.1808

                     16                     17                     18
                     A'                     A'                     A'
 Frequencies --   1305.2920              1435.2365              2898.3766
 Red. masses --      2.3464                 3.9360                 1.0693
 Frc consts  --      2.3554                 4.7770                 5.2927
 IR Inten    --     41.6731                78.2396               354.0293

                     19                     20                     21
                     A'                     A'                     A"
 Frequencies --   2902.2692              3127.4384              3128.9803
 Red. masses --      1.0871                 1.1061                 1.1000
 Frc consts  --      5.3948                 6.3741                 6.3455
 IR Inten    --    178.8267                 0.1310               163.9682

 - Thermochemistry -
 -------------------
 Temperature   298.150 Kelvin.  Pressure   1.00000 Atm.
 Atom     1 has atomic number  6 and mass  12.00000

 Molecular mass:    64.03130 amu.
 Principal axes and moments of inertia in atomic units:
                           1         2         3
     Eigenvalues --   128.35737 335.30767 452.59392
           X           -0.00077   0.00000   1.00000
           Y            1.00000   0.00000   0.00077
           Z            0.00000   1.00000   0.00000
 This molecule is an asymmetric top.
 Rotational symmetry number  1.
 Rotational temperatures (Kelvin)      0.67479     0.25831     0.19137
 Rotational constants (GHZ):          14.06029     5.38234     3.98755
 Zero-point vibrational energy     164532.1 (Joules/Mol)
                                   39.32412 (Kcal/Mol)
 Warning -- explicit consideration of   3 degrees of freedom as
           vibrations may cause significant error
 Vibrational temperatures:     41.75   411.04   576.74   907.10  1088.20
          (Kelvin)           1137.98  1276.34  1305.51  1516.84  1524.75
                             1594.55  1603.99  1702.23  1796.73  1803.12
                             1878.02  2064.98  4170.11  4175.71  4499.68
                             4501.90

 Zero-point correction=                           0.062667 (Hartree/Particle)
 Thermal correction to Energy=                    0.067722
 Thermal correction to Enthalpy=                  0.068666
 Thermal correction to Gibbs Free Energy=         0.033044
 Sum of electronic and zero-point Energies=           -191.776136
 Sum of electronic and thermal Energies=              -191.771082
 Sum of electronic and thermal Enthalpies=            -191.770138
 Sum of electronic and thermal Free Energies=         -191.805759

                     E (Thermal)             CV                S
                      KCal/Mol        Cal/Mol-Kelvin    Cal/Mol-Kelvin
 Total                   42.496             16.463             74.971
 Electronic               0.000              0.000              2.183
 Translational            0.889              2.981             38.389
 Rotational               0.889              2.981             24.480
 Vibrational             40.718             10.502              9.919
 Vibration     1          0.593              1.984              5.895
 Vibration     2          0.683              1.700              1.499
 Vibration     3          0.767              1.468              0.960

 Normal termination of Gaussian 09 at Mon Jun 20 09:12:56 2016.
