 Gaussian 09, Revision E.01,
 Gaussian 09:  EM64L-G09RevE.01 30-Nov-2015

 ---------------------------------------------
 #p b3lyp/6-311++G(3df,2p) freq symmetry=Loose
 ---------------------------------------------

 ---------
 b3lyp opt
 ---------
 Symbolic Z-matrix:
 Charge =  0 Multiplicity = 1

                         Standard orientation:
 ---------------------------------------------------------------------
 Center     Atomic      Atomic             Coordinates (Angstroms)
 Number     Number       Type             X           Y           Z
 ---------------------------------------------------------------------
      1          6           0       -1.305911    0.637839   -0.064064
      2          1           0       -1.776378    1.600365   -0.130199
      3          6           0        0.064802   -0.000311    0.047519
      4          1           0       -1.777627   -1.599942   -0.127939
      5          6           0       -1.306355   -0.637713   -0.063213
      6          6           0        1.402589   -0.000563   -0.547828
      7          1           0        1.848488   -0.908309   -0.945153
      8          1           0        1.847821    0.906867   -0.946898
      9          6           0        1.121157    0.000918    0.985952
 ---------------------------------------------------------------------

 SCF Done:  E(RB3LYP) =  -192.724430471     A.U. after   12 cycles

 The electronic state is 1-A.
 Alpha  occ. eigenvalues --  -10.23238 -10.23110 -10.21299 -10.20651 -10.17445
 Alpha  occ. eigenvalues --   -0.92426  -0.83384  -0.60715  -0.59423  -0.56544
 Alpha  occ. eigenvalues --   -0.46680  -0.45224  -0.42499  -0.34550  -0.31732
 Alpha  occ. eigenvalues --   -0.28276  -0.21700
 Alpha virt. eigenvalues --   -0.09436  -0.03254  -0.00536   0.00752   0.01073
 Alpha virt. eigenvalues --    0.03450   0.03905   0.04367   0.06604   0.07025
 Alpha virt. eigenvalues --    0.08234   0.08923   0.09881   0.10874   0.11454

 Mulliken charges:
               1
     1  C   -0.068003
     2  H    0.270174
     3  C    0.462623
     4  H    0.270181
     5  C   -0.067809
     6  C   -0.594996
     7  H    0.156940
     8  H    0.156910
     9  C   -0.586020
 Sum of Mulliken charges =  -0.00000

 Dipole moment (field-independent basis, Debye):
    X=             -2.6404    Y=             -0.0022    Z=             -2.3980  Tot=              3.5668
 Quadrupole moment (field-independent basis, Debye-Ang):
   XX=            -29.4260   YY=            -24.8413   ZZ=            -35.9243
   XY=             -0.0039   XZ=             -3.7262   YZ=             -0.0102

  Exact polarizability:  71.573   0.002  52.064  -0.390   0.000  50.134
 Approx polarizability: 103.373   0.003  87.532   0.149  -0.009  72.664

                      1                      2                      3
                      A                      A                      A
 Frequencies --     76.3341               242.3742               389.5791
 Red. masses --      3.1948                 2.2765                 3.5929
 Frc consts  --      0.0110                 0.0788                 0.3213
 IR Inten    --     18.3229                 5.3348                 7.1139

                      4                      5                      6
                      A                      A                      A
 Frequencies --    602.8969               634.3039               680.6357
 Red. masses --      4.3455                 1.2636                 4.1578
 Frc consts  --      0.9306                 0.2995                 1.1348
 IR Inten    --      5.4198                69.6247                 0.0861

                      7                      8                      9
                      A                      A                      A
 Frequencies --    785.0321               807.5541               822.8561
 Red. masses --      1.1600                 1.5222                 5.0900
 Frc consts  --      0.4212                 0.5849                 2.0306
 IR Inten    --      9.1203                 0.5705                77.1490

                     10                     11                     12
                      A                      A                      A
 Frequencies --    921.5646               947.7068               976.8795
 Red. masses --      1.2910                 1.4504                 1.3854
 Frc consts  --      0.6460                 0.7675                 0.7790
 IR Inten    --     27.1371                 1.0103                36.7255

                     13                     14                     15
                      A                      A                      A
 Frequencies --    992.8497              1132.9662              1352.9575
 Red. masses --      1.4025                 5.5790                 3.1530
 Frc consts  --      0.8145                 4.2193                 3.4005
 IR Inten    --     20.1610                47.3951                73.1552

                     16                     17                     18
                      A                      A                      A
 Frequencies --   1442.4792              1771.8459              3068.7579
 Red. masses --      1.4009                 5.1317                 1.0525
 Frc consts  --      1.7174                 9.4921                 5.8398
 IR Inten    --     22.3758                19.4319                 4.3568

                     19                     20                     21
                      A                      A                      A
 Frequencies --   3134.5409              3264.4505              3317.5253
 Red. masses --      1.1115                 1.0837                 1.1556
 Frc consts  --      6.4341                 6.8042                 7.4938
 IR Inten    --      5.4239                15.2228                 6.9699

 - Thermochemistry -
 -------------------
 Temperature   298.150 Kelvin.  Pressure   1.00000 Atm.
 Atom     1 has atomic number  6 and mass  12.00000

 Molecular mass:    64.03130 amu.
 Principal axes and moments of inertia in atomic units:
                           1         2         3
     Eigenvalues --   120.06219 391.52449 393.14475
           X            0.99921  -0.03975   0.00030
           Y            0.00003   0.00824   0.99997
           Z            0.03975   0.99918  -0.00823
 This molecule is an asymmetric top.
 Rotational symmetry number  1.
 Rotational temperatures (Kelvin)      0.72141     0.22122     0.22031
 Rotational constants (GHZ):          15.03172     4.60952     4.59053
 Zero-point vibrational energy     163685.6 (Joules/Mol)
                                   39.12179 (Kcal/Mol)
 Warning -- explicit consideration of   4 degrees of freedom as
           vibrations may cause significant error
 Vibrational temperatures:    109.83   348.72   560.52   867.43   912.62
          (Kelvin)            979.28  1129.48  1161.89  1183.90  1325.92
                             1363.54  1405.51  1428.49  1630.08  1946.60
                             2075.40  2549.29  4415.25  4509.90  4696.81
                             4773.17

 Zero-point correction=                           0.062345 (Hartree/Particle)
 Thermal correction to Energy=                    0.067639
 Thermal correction to Enthalpy=                  0.068583
 Thermal correction to Gibbs Free Energy=         0.034419
 Sum of electronic and zero-point Energies=           -192.662086
 Sum of electronic and thermal Energies=              -192.656792
 Sum of electronic and thermal Enthalpies=            -192.655847
 Sum of electronic and thermal Free Energies=         -192.690012

                     E (Thermal)             CV                S
                      KCal/Mol        Cal/Mol-Kelvin    Cal/Mol-Kelvin
 Total                   42.444             18.169             71.904
 Electronic               0.000              0.000              0.000
 Translational            0.889              2.981             38.389
 Rotational               0.889              2.981             24.428
 Vibrational             40.667             12.208              9.087
 Vibration     1          0.599              1.965              3.983
 Vibration     2          0.659              1.775              1.785
 Vibration     3          0.758              1.492              1.002
 Vibration     4          0.961              1.026              0.445

 Optimization completed.
    -- Stationary point found.
 Normal termination of Gaussian 09 at Wed Jun 22 01:34:07 2016.
