 Gaussian 09, Revision E.01,
 Gaussian 09:  EM64L-G09RevE.01 30-Nov-2015

 ---------------------------------------------
 #p b3lyp/6-311++G(3df,2p) freq symmetry=Loose
 ---------------------------------------------

 ---------
 b3lyp opt
 ---------
 Symbolic Z-matrix:
 Charge =  3 Multiplicity = 4

                         Standard orientation:
 ---------------------------------------------------------------------
 Center     Atomic      Atomic             Coordinates (Angstroms)
 Number     Number       Type             X           Y           Z
 ---------------------------------------------------------------------
      1          6           0        0.221806    0.854310    0.000067
      2          6           0       -2.196711   -0.474937    0.000119
      3          6           0       -1.009714    0.125917    0.000089
      4          1           0        0.250368    1.611952   -0.852910
      5          1           0       -2.749273   -0.731734    0.953565
      6          1           0       -2.749418   -0.731547   -0.953294
      7          1           0        0.250496    1.611784    0.853188
      8          6           0        1.389608   -0.027460   -0.000108
      9          6           0        2.427982   -0.771240   -0.000259
 ---------------------------------------------------------------------

 SCF Done:  E(UB3LYP) =  -191.029717679     A.U. after   20 cycles

 The electronic state is 4-A.
 Alpha  occ. eigenvalues --  -11.03275 -11.02424 -10.98096 -10.94280 -10.92755
 Alpha  occ. eigenvalues --   -1.56033  -1.51310  -1.45246  -1.26990  -1.20328
 Alpha  occ. eigenvalues --   -1.16947  -1.14666  -1.09978  -1.08427  -1.02574
 Alpha  occ. eigenvalues --   -1.01909  -1.01141
 Alpha virt. eigenvalues --   -0.81125  -0.72679  -0.70110  -0.68531  -0.55772
 Alpha virt. eigenvalues --   -0.47950  -0.47138  -0.46786  -0.44514  -0.43422
 Alpha virt. eigenvalues --   -0.43340  -0.41784  -0.38789  -0.38607  -0.36241

  Beta  occ. eigenvalues --  -11.02478 -10.98848 -10.96986 -10.93798 -10.92763
  Beta  occ. eigenvalues --   -1.53784  -1.46659  -1.41589  -1.25439  -1.18717
  Beta  occ. eigenvalues --   -1.16184  -1.13567  -1.08676  -0.96334
  Beta virt. eigenvalues --   -0.90641  -0.86741  -0.82707  -0.79788  -0.67806
  Beta virt. eigenvalues --   -0.62588  -0.60618  -0.54735  -0.46987  -0.46337
  Beta virt. eigenvalues --   -0.45852  -0.43651  -0.43243  -0.42377  -0.40890

 Mulliken charges and spin densities:
               1          2
     1  C   -0.789913   0.071118
     2  C    0.047589   0.305380
     3  C    0.881692   0.474519
     4  H    0.343952   0.017816
     5  H    0.371537  -0.009067
     6  H    0.371537  -0.009067
     7  H    0.343952   0.017816
     8  C    0.751016   0.578691
     9  C    0.678638   1.552794
 Sum of Mulliken charges =   3.00000   3.00000

 Dipole moment (field-independent basis, Debye):
    X=             -1.8781    Y=             -0.5495    Z=              0.0001  Tot=              1.9568
 Quadrupole moment (field-independent basis, Debye-Ang):
   XX=             35.3844   YY=            -10.8882   ZZ=            -17.1557
   XY=              1.1482   XZ=             -0.0039   YZ=              0.0005

  Exact polarizability: 146.153  -3.838  38.627  -0.009   0.001  27.734
 Approx polarizability: 308.941 -18.450  65.001  -0.022   0.004  41.215

                      1                      2                      3
                      A                      A                      A
 Frequencies --    132.2502               176.2177               310.2198
 Red. masses --      5.3973                 1.0791                 1.5365
 Frc consts  --      0.0556                 0.0197                 0.0871
 IR Inten    --     21.2032                 0.0368                43.5515

                      4                      5                      6
                      A                      A                      A
 Frequencies --    311.7894               362.9582               463.3109
 Red. masses --      6.0622                 2.9833                 7.8362
 Frc consts  --      0.3472                 0.2316                 0.9911
 IR Inten    --      2.2306                 3.9868                55.9118

                      7                      8                      9
                      A                      A                      A
 Frequencies --    608.3926               822.5934               829.6798
 Red. masses --      1.6557                 4.7349                 2.2379
 Frc consts  --      0.3611                 1.8877                 0.9076
 IR Inten    --      0.9053                33.7683                31.5979

                     10                     11                     12
                      A                      A                      A
 Frequencies --    851.8738               920.6767              1063.2862
 Red. masses --      3.1557                 1.4008                 1.0812
 Frc consts  --      1.3493                 0.6996                 0.7202
 IR Inten    --     87.7488                36.1186               237.2772

                     13                     14                     15
                      A                      A                      A
 Frequencies --   1132.6657              1170.0068              1189.6076
 Red. masses --      1.1724                 1.4619                 1.2523
 Frc consts  --      0.8862                 1.1791                 1.0442
 IR Inten    --      0.3468               241.7427               847.1139

                     16                     17                     18
                      A                      A                      A
 Frequencies --   1439.0246              1854.3483              2562.1949
 Red. masses --      4.6983                10.9147                 1.0774
 Frc consts  --      5.7323                22.1129                 4.1672
 IR Inten    --    999.1760               716.6842               313.8880

                     19                     20                     21
                      A                      A                      A
 Frequencies --   2619.1656              2699.4549              2732.1376
 Red. masses --      1.0594                 1.0567                 1.1100
 Frc consts  --      4.2818                 4.5369                 4.8816
 IR Inten    --    836.3805               950.9290               461.0229

 - Thermochemistry -
 -------------------
 Temperature   298.150 Kelvin.  Pressure   1.00000 Atm.
 Atom     1 has atomic number  6 and mass  12.00000

 Molecular mass:    64.03130 amu.
 Principal axes and moments of inertia in atomic units:
                           1         2         3
     Eigenvalues --   100.80771 653.72688 730.97230
           X            0.99955   0.03009   0.00008
           Y           -0.03009   0.99955  -0.00010
           Z           -0.00008   0.00010   1.00000
 This molecule is an asymmetric top.
 Rotational symmetry number  1.
 Rotational temperatures (Kelvin)      0.85920     0.13249     0.11849
 Rotational constants (GHZ):          17.90281     2.76070     2.46896
 Zero-point vibrational energy     145058.3 (Joules/Mol)
                                   34.66977 (Kcal/Mol)
 Warning -- explicit consideration of   7 degrees of freedom as
           vibrations may cause significant error
 Vibrational temperatures:    190.28   253.54   446.34   448.59   522.22
          (Kelvin)            666.60   875.34  1183.53  1193.72  1225.65
                             1324.65  1529.83  1629.65  1683.38  1711.58
                             2070.43  2667.99  3686.42  3768.39  3883.91
                             3930.93

 Zero-point correction=                           0.055250 (Hartree/Particle)
 Thermal correction to Energy=                    0.061276
 Thermal correction to Enthalpy=                  0.062220
 Thermal correction to Gibbs Free Energy=         0.025289
 Sum of electronic and zero-point Energies=           -190.974468
 Sum of electronic and thermal Energies=              -190.968442
 Sum of electronic and thermal Enthalpies=            -190.967497
 Sum of electronic and thermal Free Energies=         -191.004428

                     E (Thermal)             CV                S
                      KCal/Mol        Cal/Mol-Kelvin    Cal/Mol-Kelvin
 Total                   38.451             20.333             77.727
 Electronic               0.000              0.000              2.755
 Translational            0.889              2.981             38.389
 Rotational               0.889              2.981             25.380
 Vibrational             36.674             14.371             11.203
 Vibration     1          0.612              1.921              2.913
 Vibration     2          0.628              1.872              2.368
 Vibration     3          0.699              1.654              1.361
 Vibration     4          0.700              1.651              1.353
 Vibration     5          0.737              1.549              1.109
 Vibration     6          0.821              1.331              0.757
 Vibration     7          0.967              1.014              0.435

 Optimization completed.
    -- Stationary point found.
 Normal termination of Gaussian 09 at Wed Jul 20 11:44:11 2016.
