 Gaussian 09, Revision E.01,
 Gaussian 09:  EM64L-G09RevE.01 30-Nov-2015

 ---------------------------------------------
 #p b3lyp/6-311++G(3df,2p) freq symmetry=Loose
 ---------------------------------------------

 ---------
 b3lyp opt
 ---------
 Symbolic Z-matrix:
 Charge =  1 Multiplicity = 2

                         Standard orientation:
 ---------------------------------------------------------------------
 Center     Atomic      Atomic             Coordinates (Angstroms)
 Number     Number       Type             X           Y           Z
 ---------------------------------------------------------------------
      1          6           0       -1.408858   -0.372425    0.114662
      2          1           0       -2.187976   -0.577207   -0.611337
      3          1           0       -1.660441   -0.635740    1.139820
      4          6           0       -0.624606    0.884257   -0.013858
      5          6           0        0.624604    0.884257   -0.013924
      6          6           0       -0.000020   -0.619348   -0.377486
      7          6           0        1.408870   -0.372425    0.114513
      8          1           0        1.660561   -0.635740    1.139644
      9          1           0        2.187912   -0.577207   -0.611569
 ---------------------------------------------------------------------

 SCF Done:  E(UB3LYP) =  -192.438621136     A.U. after   13 cycles

 The electronic state is 2-A.
 Alpha  occ. eigenvalues --  -10.51543 -10.48931 -10.48770 -10.47755 -10.47754
 Alpha  occ. eigenvalues --   -1.22922  -1.03076  -0.94381  -0.81295  -0.74770
 Alpha  occ. eigenvalues --   -0.74336  -0.70067  -0.68975  -0.64848  -0.58135
 Alpha  occ. eigenvalues --   -0.55970  -0.47175
 Alpha virt. eigenvalues --   -0.33329  -0.23140  -0.20926  -0.16361  -0.13999
 Alpha virt. eigenvalues --   -0.12785  -0.12391  -0.10249  -0.10103  -0.08719
 Alpha virt. eigenvalues --   -0.07128  -0.05705  -0.04926  -0.04794  -0.03416

  Beta  occ. eigenvalues --  -10.49985 -10.48836 -10.48676 -10.47717 -10.47716
  Beta  occ. eigenvalues --   -1.21961  -1.02749  -0.93711  -0.79596  -0.74546
  Beta  occ. eigenvalues --   -0.72790  -0.69327  -0.68543  -0.64265  -0.57320
  Beta  occ. eigenvalues --   -0.54359
  Beta virt. eigenvalues --   -0.33026  -0.32214  -0.22593  -0.19599  -0.16136
  Beta virt. eigenvalues --   -0.13350  -0.12707  -0.12250  -0.10148  -0.09932
  Beta virt. eigenvalues --   -0.08669  -0.07029  -0.05491  -0.04868  -0.04284

 Mulliken charges and spin densities:
               1          2
     1  C   -0.250788  -0.001370
     2  H    0.233985   0.006864
     3  H    0.248939   0.013369
     4  C    0.150118   0.049385
     5  C    0.150119   0.049385
     6  C    0.235490   0.863502
     7  C   -0.250788  -0.001370
     8  H    0.248939   0.013369
     9  H    0.233985   0.006864
 Sum of Mulliken charges =   1.00000   1.00000

 Dipole moment (field-independent basis, Debye):
    X=              0.0000    Y=             -0.9605    Z=              0.7977  Tot=              1.2485
 Quadrupole moment (field-independent basis, Debye-Ang):
   XX=            -14.2620   YY=            -25.0362   ZZ=            -25.0895
   XY=             -0.0000   XZ=             -0.0006   YZ=             -0.5093

  Exact polarizability:  55.304  -0.001  41.799  -0.001   0.538  33.021
 Approx polarizability:  97.401   0.000  80.147  -0.003   3.886  48.970

                      1                      2                      3
                      A                      A                      A
 Frequencies --    243.7367               291.2516               527.1750
 Red. masses --      4.0476                 2.4325                10.2856
 Frc consts  --      0.1417                 0.1216                 1.6842
 IR Inten    --     27.4773                 6.5500                19.8307

                      4                      5                      6
                      A                      A                      A
 Frequencies --    580.6702               625.2618               884.7961
 Red. masses --      4.7079                 8.7691                 8.3940
 Frc consts  --      0.9353                 2.0199                 3.8717
 IR Inten    --     22.6287                 1.3200                 1.7069

                      7                      8                      9
                      A                      A                      A
 Frequencies --    956.6204               994.2607              1006.0554
 Red. masses --      1.1432                 1.2730                 1.6885
 Frc consts  --      0.6164                 0.7415                 1.0069
 IR Inten    --      0.0143                10.4408                 6.8355

                     10                     11                     12
                      A                      A                      A
 Frequencies --   1038.2820              1064.2804              1151.4688
 Red. masses --      2.0858                 1.5355                 1.2139
 Frc consts  --      1.3248                 1.0247                 0.9483
 IR Inten    --      7.7435                 5.6052                33.0046

                     13                     14                     15
                      A                      A                      A
 Frequencies --   1157.6188              1231.7174              1458.1142
 Red. masses --      1.2207                 6.2871                 1.0962
 Frc consts  --      0.9638                 5.6198                 1.3731
 IR Inten    --      0.3171                30.9354                 9.4140

                     16                     17                     18
                      A                      A                      A
 Frequencies --   1466.0343              1970.5289              3091.9542
 Red. masses --      1.1121                11.1019                 1.0563
 Frc consts  --      1.4083                25.3988                 5.9497
 IR Inten    --      3.5972                12.2501                 7.8236

                     19                     20                     21
                      A                      A                      A
 Frequencies --   3095.6193              3185.8247              3186.1560
 Red. masses --      1.0568                 1.1138                 1.1143
 Frc consts  --      5.9669                 6.6603                 6.6650
 IR Inten    --     20.6300                 5.6232                36.2600

 - Thermochemistry -
 -------------------
 Temperature   298.150 Kelvin.  Pressure   1.00000 Atm.
 Atom     1 has atomic number  6 and mass  12.00000

 Molecular mass:    64.03130 amu.
 Principal axes and moments of inertia in atomic units:
                           1         2         3
     Eigenvalues --   119.55192 276.99109 358.27613
           X            1.00000   0.00000   0.00005
           Y            0.00000   0.99942  -0.03415
           Z           -0.00005   0.03415   0.99942
 This molecule is an asymmetric top.
 Rotational symmetry number  1.
 Rotational temperatures (Kelvin)      0.72449     0.31270     0.24175
 Rotational constants (GHZ):          15.09588     6.51552     5.03729
 Zero-point vibrational energy     174699.2 (Joules/Mol)
                                   41.75411 (Kcal/Mol)
 Warning -- explicit consideration of   4 degrees of freedom as
           vibrations may cause significant error
 Vibrational temperatures:    350.68   419.05   758.49   835.45   899.61
          (Kelvin)           1273.02  1376.36  1430.52  1447.49  1493.85
                             1531.26  1656.70  1665.55  1772.16  2097.90
                             2109.29  2835.15  4448.63  4453.90  4583.69
                             4584.16

 Zero-point correction=                           0.066539 (Hartree/Particle)
 Thermal correction to Energy=                    0.071123
 Thermal correction to Enthalpy=                  0.072067
 Thermal correction to Gibbs Free Energy=         0.039166
 Sum of electronic and zero-point Energies=           -192.372082
 Sum of electronic and thermal Energies=              -192.367498
 Sum of electronic and thermal Enthalpies=            -192.366554
 Sum of electronic and thermal Free Energies=         -192.399456

                     E (Thermal)             CV                S
                      KCal/Mol        Cal/Mol-Kelvin    Cal/Mol-Kelvin
 Total                   44.630             15.861             69.247
 Electronic               0.000              0.000              1.377
 Translational            0.889              2.981             38.389
 Rotational               0.889              2.981             23.988
 Vibrational             42.853              9.899              5.492
 Vibration     1          0.659              1.773              1.775
 Vibration     2          0.687              1.690              1.467
 Vibration     3          0.882              1.190              0.594
 Vibration     4          0.937              1.073              0.484

 Optimization completed.
    -- Stationary point found.
 Normal termination of Gaussian 09 at Wed Jul 20 08:30:22 2016.
