 Gaussian 09, Revision E.01,
 Gaussian 09:  EM64L-G09RevE.01 30-Nov-2015

 ---------------------------------------------
 #p b3lyp/6-311++G(3df,2p) freq symmetry=Loose
 ---------------------------------------------

 ---------
 b3lyp opt
 ---------
 Symbolic Z-matrix:
 Charge =  3 Multiplicity = 4

                         Standard orientation:
 ---------------------------------------------------------------------
 Center     Atomic      Atomic             Coordinates (Angstroms)
 Number     Number       Type             X           Y           Z
 ---------------------------------------------------------------------
      1          6           0        1.319912   -0.329773   -0.000167
      2          1           0        1.330976   -1.474231   -0.000308
      3          1           0        0.168354    1.284835    0.870214
      4          6           0        0.105851    0.538509    0.000055
      5          6           0        2.601969   -0.093830   -0.000262
      6          1           0        0.168186    1.285047   -0.869933
      7          6           0       -1.224980    0.036550    0.000122
      8          6           0       -2.485782   -0.249410    0.000209
      9          1           0       -3.569337   -0.507931    0.000282
 ---------------------------------------------------------------------

 SCF Done:  E(UB3LYP) =  -191.020955963     A.U. after   16 cycles

 The electronic state is 4-A.
 Alpha  occ. eigenvalues --  -11.05073 -10.99117 -10.98931 -10.93168 -10.92430
 Alpha  occ. eigenvalues --   -1.55199  -1.51721  -1.43721  -1.24953  -1.20780
 Alpha  occ. eigenvalues --   -1.18338  -1.13243  -1.12074  -1.07733  -1.02865
 Alpha  occ. eigenvalues --   -1.02098  -0.98479
 Alpha virt. eigenvalues --   -0.80578  -0.71324  -0.69274  -0.68868  -0.54376
 Alpha virt. eigenvalues --   -0.51594  -0.48604  -0.46231  -0.45583  -0.42975
 Alpha virt. eigenvalues --   -0.40692  -0.39926  -0.39046  -0.38227  -0.36899

  Beta  occ. eigenvalues --  -11.02246 -10.97957 -10.97644 -10.92897 -10.92290
  Beta  occ. eigenvalues --   -1.52616  -1.47207  -1.40392  -1.22800  -1.18771
  Beta  occ. eigenvalues --   -1.17225  -1.10636  -1.09543  -0.96195
  Beta virt. eigenvalues --   -0.88658  -0.88463  -0.85111  -0.76116  -0.64697
  Beta virt. eigenvalues --   -0.64503  -0.64475  -0.51862  -0.51141  -0.47552
  Beta virt. eigenvalues --   -0.44891  -0.44503  -0.42332  -0.40394  -0.39454

 Mulliken charges and spin densities:
               1          2
     1  C    0.205782   0.066143
     2  H    0.292553  -0.006086
     3  H    0.350008   0.095648
     4  C    0.145528   0.049122
     5  C    0.347925   1.281207
     6  H    0.350008   0.095648
     7  C    0.387352   0.684114
     8  C    0.429668   0.758410
     9  H    0.491176  -0.024206
 Sum of Mulliken charges =   3.00000   3.00000

 Dipole moment (field-independent basis, Debye):
    X=             -1.0469    Y=             -0.4350    Z=              0.0000  Tot=              1.1337
 Quadrupole moment (field-independent basis, Debye-Ang):
   XX=             47.9669   YY=            -13.0054   ZZ=            -21.8659
   XY=              1.1932   XZ=             -0.0066   YZ=              0.0010

  Exact polarizability: 139.191   0.114  33.386  -0.011   0.001  27.383
 Approx polarizability: 320.862   9.640  52.689  -0.026   0.001  38.542

                      1                      2                      3
                      A                      A                      A
 Frequencies --    128.3330               183.4776               297.8846
 Red. masses --      2.5955                 4.1635                 2.0762
 Frc consts  --      0.0252                 0.0826                 0.1085
 IR Inten    --      0.8192                 7.8639                61.7434

                      4                      5                      6
                      A                      A                      A
 Frequencies --    338.7396               477.0336               493.3389
 Red. masses --      5.8835                 1.8117                 4.6212
 Frc consts  --      0.3978                 0.2429                 0.6627
 IR Inten    --      8.3336                39.7346                10.6467

                      7                      8                      9
                      A                      A                      A
 Frequencies --    689.8714               727.7151               736.6795
 Red. masses --      1.2699                 1.4355                 2.3701
 Frc consts  --      0.3561                 0.4479                 0.7578
 IR Inten    --     28.1544                11.6964                 2.1270

                     10                     11                     12
                      A                      A                      A
 Frequencies --    786.8821               951.2808              1001.6203
 Red. masses --      3.7533                 1.5103                 1.5657
 Frc consts  --      1.3693                 0.8052                 0.9255
 IR Inten    --      2.5622                16.4406               132.6523

                     13                     14                     15
                      A                      A                      A
 Frequencies --   1064.4747              1078.5744              1206.6925
 Red. masses --      1.0765                 1.0595                 2.2201
 Frc consts  --      0.7187                 0.7262                 1.9047
 IR Inten    --      3.1901               137.6584               633.6908

                     16                     17                     18
                      A                      A                      A
 Frequencies --   1530.3544              1793.7544              2477.0633
 Red. masses --      6.4130                 6.3979                 1.0758
 Frc consts  --      8.8490                12.1286                 3.8893
 IR Inten    --   1368.8765               591.5019               313.0225

                     19                     20                     21
                      A                      A                      A
 Frequencies --   2550.6366              2620.4705              2961.1198
 Red. masses --      1.0608                 1.0770                 1.1606
 Frc consts  --      4.0661                 4.3574                 5.9960
 IR Inten    --    496.7920               383.8445               582.8164

 - Thermochemistry -
 -------------------
 Temperature   298.150 Kelvin.  Pressure   1.00000 Atm.
 Atom     1 has atomic number  6 and mass  12.00000

 Molecular mass:    64.03130 amu.
 Principal axes and moments of inertia in atomic units:
                           1         2         3
     Eigenvalues --    46.25120 752.03968 787.39266
           X            1.00000   0.00133   0.00010
           Y           -0.00133   1.00000  -0.00012
           Z           -0.00010   0.00012   1.00000
 This molecule is an asymmetric top.
 Rotational symmetry number  1.
 Rotational temperatures (Kelvin)      1.87268     0.11517     0.11000
 Rotational constants (GHZ):          39.02042     2.39980     2.29205
 Zero-point vibrational energy     144126.1 (Joules/Mol)
                                   34.44696 (Kcal/Mol)
 Warning -- explicit consideration of   6 degrees of freedom as
           vibrations may cause significant error
 Vibrational temperatures:    184.64   263.98   428.59   487.37   686.34
          (Kelvin)            709.80   992.57  1047.02  1059.92  1132.15
                             1368.68  1441.11  1531.54  1551.83  1736.16
                             2201.84  2580.81  3563.94  3669.79  3770.27
                             4260.39

 Zero-point correction=                           0.054895 (Hartree/Particle)
 Thermal correction to Energy=                    0.060823
 Thermal correction to Enthalpy=                  0.061767
 Thermal correction to Gibbs Free Energy=         0.025303
 Sum of electronic and zero-point Energies=           -190.966061
 Sum of electronic and thermal Energies=              -190.960133
 Sum of electronic and thermal Enthalpies=            -190.959189
 Sum of electronic and thermal Free Energies=         -190.995653

                     E (Thermal)             CV                S
                      KCal/Mol        Cal/Mol-Kelvin    Cal/Mol-Kelvin
 Total                   38.167             20.368             76.745
 Electronic               0.000              0.000              2.755
 Translational            0.889              2.981             38.389
 Rotational               0.889              2.981             24.819
 Vibrational             36.389             14.406             10.782
 Vibration     1          0.611              1.925              2.971
 Vibration     2          0.631              1.862              2.293
 Vibration     3          0.691              1.678              1.429
 Vibration     4          0.719              1.598              1.218
 Vibration     5          0.834              1.301              0.718
 Vibration     6          0.849              1.265              0.675

 Optimization completed.
    -- Stationary point found.
 Normal termination of Gaussian 09 at Wed Jul 20 13:57:25 2016.
