 Gaussian 09, Revision E.01,
 Gaussian 09:  EM64L-G09RevE.01 30-Nov-2015

 ---------------------------------------------
 #p b3lyp/6-311++G(3df,2p) freq symmetry=Loose
 ---------------------------------------------

 ---------
 b3lyp opt
 ---------
 Symbolic Z-matrix:
 Charge =  3 Multiplicity = 4

                         Standard orientation:
 ---------------------------------------------------------------------
 Center     Atomic      Atomic             Coordinates (Angstroms)
 Number     Number       Type             X           Y           Z
 ---------------------------------------------------------------------
      1          6           0        0.000000   -0.000000    2.351719
      2          6           0        0.000000   -1.283904   -1.066578
      3          1           0        0.000000   -1.280587   -2.170889
      4          1           0        0.000000   -2.257521   -0.552924
      5          6           0        0.000000   -0.000000    1.037697
      6          6           0        0.000000    0.000000   -0.348323
      7          6           0        0.000000    1.283904   -1.066578
      8          1           0        0.000000    2.257521   -0.552924
      9          1           0        0.000000    1.280587   -2.170889
 ---------------------------------------------------------------------

 SCF Done:  E(UB3LYP) =  -191.047194560     A.U. after   15 cycles

 The electronic state is 4-A2.
 Alpha  occ. eigenvalues --  -11.08960 -11.03689 -10.96369 -10.95893 -10.95892
 Alpha  occ. eigenvalues --   -1.59022  -1.51943  -1.38448  -1.34862  -1.18970
 Alpha  occ. eigenvalues --   -1.15692  -1.13874  -1.10645  -1.08915  -1.07765
 Alpha  occ. eigenvalues --   -1.06962  -1.00547
 Alpha virt. eigenvalues --   -0.81720  -0.77266  -0.76504  -0.62422  -0.54605
 Alpha virt. eigenvalues --   -0.49095  -0.48359  -0.46167  -0.45079  -0.43065
 Alpha virt. eigenvalues --   -0.41214  -0.41109  -0.37529  -0.37467  -0.36918

  Beta  occ. eigenvalues --  -11.04846 -11.02677 -10.96005 -10.95660 -10.95658
  Beta  occ. eigenvalues --   -1.55485  -1.46267  -1.37393  -1.33138  -1.18125
  Beta  occ. eigenvalues --   -1.14054  -1.08742  -1.07513  -1.05957
  Beta virt. eigenvalues --   -0.91276  -0.89305  -0.86880  -0.79497  -0.71085
  Beta virt. eigenvalues --   -0.66184  -0.57648  -0.53045  -0.48570  -0.47139
  Beta virt. eigenvalues --   -0.45630  -0.44752  -0.42108  -0.40779  -0.39459

 Mulliken charges and spin densities:
               1          2
     1  C    0.602913   1.809946
     2  C   -0.183823   0.118593
     3  H    0.331434   0.005092
     4  H    0.335747  -0.003994
     5  C    0.198536   0.624989
     6  C    1.231835   0.325681
     7  C   -0.183823   0.118593
     8  H    0.335747  -0.003994
     9  H    0.331434   0.005092
 Sum of Mulliken charges =   3.00000   3.00000

 Dipole moment (field-independent basis, Debye):
    X=              0.0000    Y=              0.0000    Z=              0.7935  Tot=              0.7935
 Quadrupole moment (field-independent basis, Debye-Ang):
   XX=            -22.5882   YY=              0.4386   ZZ=             19.9196
   XY=              0.0000   XZ=             -0.0000   YZ=             -0.0000

  Exact polarizability:  22.476  -0.000  45.681  -0.000   0.000  72.434
 Approx polarizability:  32.994   0.000  67.393  -0.000   0.000 128.579

                      1                      2                      3
                     B2                     B1                     B1
 Frequencies --    193.4744               217.7859               321.4043
 Red. masses --      4.8757                 1.2855                 2.8327
 Frc consts  --      0.1075                 0.0359                 0.1724
 IR Inten    --      1.4746                 3.9885                24.8532

                      4                      5                      6
                     A2                     A1                     B1
 Frequencies --    368.5318               382.4771               562.4786
 Red. masses --      1.0151                 2.5473                 5.7138
 Frc consts  --      0.0812                 0.2196                 1.0651
 IR Inten    --      0.0000                 0.4242                 7.8921

                      7                      8                      9
                     B2                     A1                     A1
 Frequencies --    563.4415               761.5099               942.7080
 Red. masses --      7.3220                 4.9397                 1.8259
 Frc consts  --      1.3696                 1.6877                 0.9561
 IR Inten    --     18.7648                15.4456               115.8492

                     10                     11                     12
                     B2                     A2                     B1
 Frequencies --    947.2490              1144.7366              1175.5527
 Red. masses --      1.2621                 1.3036                 1.4235
 Frc consts  --      0.6672                 1.0065                 1.1590
 IR Inten    --     20.3670                 0.0000                18.9859

                     13                     14                     15
                     B2                     A1                     B2
 Frequencies --   1182.5808              1225.7998              1436.7769
 Red. masses --      6.1360                 3.5347                 1.1109
 Frc consts  --      5.0559                 3.1293                 1.3512
 IR Inten    --    325.6253               185.1517                20.3538

                     16                     17                     18
                     A1                     A1                     B2
 Frequencies --   1458.3087              1734.2028              2956.5124
 Red. masses --      1.1126                11.4442                 1.0588
 Frc consts  --      1.3940                20.2785                 5.4527
 IR Inten    --      7.8112                23.2382               199.4420

                     19                     20                     21
                     A1                     B2                     A1
 Frequencies --   2964.2170              3082.0926              3087.7496
 Red. masses --      1.0542                 1.1249                 1.1303
 Frc consts  --      5.4577                 6.2960                 6.3495
 IR Inten    --    234.8581               106.5116               183.7651

 - Thermochemistry -
 -------------------
 Temperature   298.150 Kelvin.  Pressure   1.00000 Atm.
 Atom     1 has atomic number  6 and mass  12.00000

 Molecular mass:    64.03130 amu.
 Principal axes and moments of inertia in atomic units:
                           1         2         3
     Eigenvalues --   189.76592 420.33620 610.10211
           X            0.00000   0.00000   1.00000
           Y            0.00000   1.00000  -0.00000
           Z            1.00000  -0.00000  -0.00000
 This molecule is an asymmetric top.
 Rotational symmetry number  2.
 Rotational temperatures (Kelvin)      0.45642     0.20606     0.14197
 Rotational constants (GHZ):           9.51035     4.29357     2.95810
 Zero-point vibrational energy     159758.8 (Joules/Mol)
                                   38.18328 (Kcal/Mol)
 Warning -- explicit consideration of   7 degrees of freedom as
           vibrations may cause significant error
 Vibrational temperatures:    278.37   313.34   462.43   530.23   550.30
          (Kelvin)            809.28   810.67  1095.64  1356.34  1362.88
                             1647.02  1691.36  1701.47  1763.65  2067.20
                             2098.18  2495.13  4253.76  4264.84  4434.44
                             4442.58

 Zero-point correction=                           0.060849 (Hartree/Particle)
 Thermal correction to Energy=                    0.066479
 Thermal correction to Enthalpy=                  0.067423
 Thermal correction to Gibbs Free Energy=         0.032040
 Sum of electronic and zero-point Energies=           -190.986346
 Sum of electronic and thermal Energies=              -190.980716
 Sum of electronic and thermal Enthalpies=            -190.979771
 Sum of electronic and thermal Free Energies=         -191.015155

                     E (Thermal)             CV                S
                      KCal/Mol        Cal/Mol-Kelvin    Cal/Mol-Kelvin
 Total                   41.716             19.207             74.470
 Electronic               0.000              0.000              2.755
 Translational            0.889              2.981             38.389
 Rotational               0.889              2.981             24.013
 Vibrational             39.939             13.245              9.313
 Vibration     1          0.635              1.849              2.194
 Vibration     2          0.646              1.814              1.977
 Vibration     3          0.707              1.633              1.303
 Vibration     4          0.741              1.537              1.086
 Vibration     5          0.752              1.508              1.029
 Vibration     6          0.918              1.112              0.519
 Vibration     7          0.919              1.110              0.517

 Optimization completed.
    -- Stationary point found.
 Normal termination of Gaussian 09 at Wed Jul 20 08:43:43 2016.
