 Gaussian 09, Revision E.01,
 Gaussian 09:  EM64L-G09RevE.01 30-Nov-2015

 ---------------------------------------------
 #p b3lyp/6-311++G(3df,2p) freq symmetry=Loose
 ---------------------------------------------

 ---------
 b3lyp opt
 ---------
 Symbolic Z-matrix:
 Charge =  0 Multiplicity = 1

                         Standard orientation:
 ---------------------------------------------------------------------
 Center     Atomic      Atomic             Coordinates (Angstroms)
 Number     Number       Type             X           Y           Z
 ---------------------------------------------------------------------
      1          6           0       -1.066519   -0.558635    0.000000
      2          1           0       -2.060036   -0.101747    0.000000
      3          6           0       -0.757137   -1.914595    0.000000
      4          1           0       -1.697007   -2.492935    0.000000
      5          6           0        0.000000    0.319778    0.000000
      6          6           0        0.590200    1.595569    0.000000
      7          1           0        0.496951    2.668021    0.000000
      8          6           0        1.381582    0.527861    0.000000
      9          1           0        2.371333    0.106791    0.000000
 ---------------------------------------------------------------------

 SCF Done:  E(RB3LYP) =  -192.769907867     A.U. after   15 cycles

 The electronic state is 1-A'.
 Alpha  occ. eigenvalues --  -10.26457 -10.26273 -10.25793 -10.16239 -10.13859
 Alpha  occ. eigenvalues --   -0.97350  -0.76595  -0.63623  -0.62197  -0.58309
 Alpha  occ. eigenvalues --   -0.48083  -0.43688  -0.43494  -0.38147  -0.34618
 Alpha  occ. eigenvalues --   -0.26802  -0.17707
 Alpha virt. eigenvalues --   -0.07353  -0.06554  -0.01623   0.00153   0.01035
 Alpha virt. eigenvalues --    0.03539   0.03959   0.04700   0.05079   0.06768
 Alpha virt. eigenvalues --    0.07781   0.08952   0.08959   0.10565   0.10713

 Mulliken charges:
               1
     1  C   -0.309799
     2  H    0.122760
     3  C   -0.894442
     4  H    0.162105
     5  C    0.089703
     6  C    0.065350
     7  H    0.272446
     8  C    0.219008
     9  H    0.272870
 Sum of Mulliken charges =  -0.00000

 Dipole moment (field-independent basis, Debye):
    X=              1.8332    Y=              5.6870    Z=              0.0000  Tot=              5.9751
 Quadrupole moment (field-independent basis, Debye-Ang):
   XX=            -25.3293   YY=            -33.8426   ZZ=            -31.3135
   XY=              1.8913   XZ=              0.0000   YZ=              0.0000

  Exact polarizability:  69.310  12.508  86.928  -0.000   0.000  39.716
 Approx polarizability: 100.599  17.395 133.235  -0.000  -0.000  60.064

                      1                      2                      3
                     A"                     A'                     A"
 Frequencies --    170.5256               223.9648               420.3942
 Red. masses --      3.0364                 3.5117                 1.9516
 Frc consts  --      0.0520                 0.1038                 0.2032
 IR Inten    --      0.0009                15.6649                65.0344

                      4                      5                      6
                     A'                     A"                     A"
 Frequencies --    560.7800               659.8740               809.1235
 Red. masses --      4.2544                 1.3405                 1.7213
 Frc consts  --      0.7883                 0.3439                 0.6639
 IR Inten    --      7.0040                10.6832                53.3742

                      7                      8                      9
                     A'                     A"                     A'
 Frequencies --    814.0695               946.2232               964.3637
 Red. masses --      1.9705                 1.2471                 1.5790
 Frc consts  --      0.7694                 0.6579                 0.8652
 IR Inten    --      7.2542                 4.0528                16.7002

                     10                     11                     12
                     A"                     A'                     A'
 Frequencies --    964.5762               980.1544              1120.0105
 Red. masses --      1.4258                 1.3197                 1.4638
 Frc consts  --      0.7816                 0.7470                 1.0818
 IR Inten    --      0.4735                 6.5681                 3.3267

                     13                     14                     15
                     A'                     A'                     A'
 Frequencies --   1177.1689              1263.9856              1420.0270
 Red. masses --      2.8773                 2.4072                 2.1932
 Frc consts  --      2.3492                 2.2659                 2.6056
 IR Inten    --     29.7467                59.9265                51.1898

                     16                     17                     18
                     A'                     A'                     A'
 Frequencies --   1491.2148              1740.9730              2941.2130
 Red. masses --      6.9918                 6.6709                 1.0808
 Frc consts  --      9.1605                11.9129                 5.5089
 IR Inten    --    272.6416               313.2223               114.4797

                     19                     20                     21
                     A'                     A'                     A'
 Frequencies --   3017.9868              3247.6460              3287.4677
 Red. masses --      1.0876                 1.0923                 1.1373
 Frc consts  --      5.8364                 6.7875                 7.2418
 IR Inten    --    100.0884                 9.6558                12.3524

 - Thermochemistry -
 -------------------
 Temperature   298.150 Kelvin.  Pressure   1.00000 Atm.
 Atom     1 has atomic number  6 and mass  12.00000

 Molecular mass:    64.03130 amu.
 Principal axes and moments of inertia in atomic units:
                           1         2         3
     Eigenvalues --    88.56594 472.12616 560.69211
           X            0.57810   0.81596   0.00000
           Y            0.81596  -0.57810   0.00000
           Z            0.00000  -0.00000   1.00000
 This molecule is an asymmetric top.
 Rotational symmetry number  1.
 Rotational temperatures (Kelvin)      0.97796     0.18345     0.15448
 Rotational constants (GHZ):          20.37737     3.82258     3.21877
 Zero-point vibrational energy     168803.5 (Joules/Mol)
                                   40.34501 (Kcal/Mol)
 Warning -- explicit consideration of   4 degrees of freedom as
           vibrations may cause significant error
 Vibrational temperatures:    245.35   322.24   604.85   806.84   949.41
          (Kelvin)           1164.15  1171.26  1361.40  1387.50  1387.81
                             1410.22  1611.44  1693.68  1818.59  2043.10
                             2145.52  2504.87  4231.74  4342.20  4672.63
                             4729.93

 Zero-point correction=                           0.064294 (Hartree/Particle)
 Thermal correction to Energy=                    0.069250
 Thermal correction to Enthalpy=                  0.070194
 Thermal correction to Gibbs Free Energy=         0.036850
 Sum of electronic and zero-point Energies=           -192.705614
 Sum of electronic and thermal Energies=              -192.700658
 Sum of electronic and thermal Enthalpies=            -192.699714
 Sum of electronic and thermal Free Energies=         -192.733058

                     E (Thermal)             CV                S
                      KCal/Mol        Cal/Mol-Kelvin    Cal/Mol-Kelvin
 Total                   43.455             16.892             70.178
 Electronic               0.000              0.000              0.000
 Translational            0.889              2.981             38.389
 Rotational               0.889              2.981             24.665
 Vibrational             41.677             10.930              7.124
 Vibration     1          0.626              1.879              2.430
 Vibration     2          0.649              1.805              1.927
 Vibration     3          0.783              1.426              0.891
 Vibration     4          0.916              1.116              0.522

 Optimization completed.
    -- Stationary point found.
 Normal termination of Gaussian 09 at Wed Jun 22 01:12:12 2016.
