 Gaussian 09, Revision E.01,
 Gaussian 09:  EM64L-G09RevE.01 30-Nov-2015

 ---------------------------------------------
 #p b3lyp/6-311++G(3df,2p) freq symmetry=Loose
 ---------------------------------------------

 ---------
 b3lyp opt
 ---------
 Symbolic Z-matrix:
 Charge =  0 Multiplicity = 3

                         Standard orientation:
 ---------------------------------------------------------------------
 Center     Atomic      Atomic             Coordinates (Angstroms)
 Number     Number       Type             X           Y           Z
 ---------------------------------------------------------------------
      1          6           0       -1.227276    0.912021   -0.000000
      2          1           0       -1.213497    2.000917   -0.000000
      3          6           0        1.092608   -0.317901   -0.000000
      4          6           0       -0.000000    0.259407   -0.000000
      5          6           0       -2.408617    0.283992    0.000000
      6          1           0       -2.759033   -0.735775    0.000000
      7          6           0        2.280408   -0.945894    0.000000
      8          1           0        2.342058   -2.025979    0.000000
      9          1           0        3.207734   -0.388908   -0.000000
 ---------------------------------------------------------------------

 SCF Done:  E(UB3LYP) =  -192.800037049     A.U. after   17 cycles

 The electronic state is 3-A".
 Alpha  occ. eigenvalues --  -10.21988 -10.21172 -10.19860 -10.19812 -10.19039
 Alpha  occ. eigenvalues --   -0.83179  -0.78523  -0.70835  -0.61960  -0.52824
 Alpha  occ. eigenvalues --   -0.48718  -0.46764  -0.45357  -0.37771  -0.30986
 Alpha  occ. eigenvalues --   -0.28795  -0.26411  -0.21114
 Alpha virt. eigenvalues --   -0.03165  -0.00589   0.00587   0.01299   0.02070
 Alpha virt. eigenvalues --    0.04056   0.05180   0.05524   0.07220   0.08376
 Alpha virt. eigenvalues --    0.08834   0.09331   0.09392   0.11443   0.11732

  Beta  occ. eigenvalues --  -10.21490 -10.19900 -10.19371 -10.19037 -10.18962
  Beta  occ. eigenvalues --   -0.81749  -0.77203  -0.68352  -0.59283  -0.51594
  Beta  occ. eigenvalues --   -0.48039  -0.45733  -0.44575  -0.35551  -0.28135
  Beta  occ. eigenvalues --   -0.27729
  Beta virt. eigenvalues --   -0.10644  -0.09888  -0.00757  -0.00479   0.00751
  Beta virt. eigenvalues --    0.01404   0.02363   0.04217   0.05597   0.05712
  Beta virt. eigenvalues --    0.07703   0.08873   0.09288   0.09471   0.10579

 Mulliken charges and spin densities:
               1          2
     1  C   -0.057099  -0.250580
     2  H    0.156997   0.039011
     3  C    0.423030  -0.238388
     4  C   -0.070876   0.430273
     5  C   -0.412455   1.403679
     6  H    0.200327   0.016821
     7  C   -0.606417   0.640964
     8  H    0.183498  -0.020477
     9  H    0.182994  -0.021304
 Sum of Mulliken charges =   0.00000   2.00000

 Dipole moment (field-independent basis, Debye):
    X=              0.2679    Y=             -0.3446    Z=             -0.0000  Tot=              0.4365
 Quadrupole moment (field-independent basis, Debye-Ang):
   XX=            -26.9728   YY=            -26.8714   ZZ=            -32.7930
   XY=              0.1422   XZ=             -0.0000   YZ=             -0.0000

  Exact polarizability: 124.065 -23.223  56.752   0.000  -0.000  39.954
 Approx polarizability: 198.780 -40.563  85.042   0.000  -0.000  55.205

                      1                      2                      3
                     A'                     A"                     A'
 Frequencies --    139.7074               187.0839               325.3069
 Red. masses --      3.4624                 3.2986                 3.0292
 Frc consts  --      0.0398                 0.0680                 0.1889
 IR Inten    --      1.0299                 3.0799                 4.7210

                      4                      5                      6
                     A"                     A"                     A'
 Frequencies --    339.1742               471.1813               500.4338
 Red. masses --      1.1029                 6.1208                 3.4850
 Frc consts  --      0.0748                 0.8006                 0.5142
 IR Inten    --      0.6089                 1.6505                 4.7044

                      7                      8                      9
                     A"                     A"                     A'
 Frequencies --    681.7699               767.6230               773.2482
 Red. masses --      1.7554                 1.3401                 2.9444
 Frc consts  --      0.4807                 0.4653                 1.0372
 IR Inten    --     16.6859                48.0367                 3.2607

                     10                     11                     12
                     A"                     A'                     A'
 Frequencies --    874.7924               927.0195              1032.1847
 Red. masses --      1.2211                 1.8670                 1.4481
 Frc consts  --      0.5505                 0.9453                 0.9090
 IR Inten    --     41.0433                29.0467                 0.5128

                     13                     14                     15
                     A'                     A'                     A'
 Frequencies --   1259.6811              1325.3910              1448.5941
 Red. masses --      1.2789                 2.8002                 1.8804
 Frc consts  --      1.1956                 2.8982                 2.3248
 IR Inten    --      0.5935                 0.6957                 6.7749

                     16                     17                     18
                     A'                     A'                     A'
 Frequencies --   1512.1139              2041.2625              3085.6342
 Red. masses --      2.7979                11.5702                 1.0833
 Frc consts  --      3.7692                28.4046                 6.0767
 IR Inten    --      0.3768                 0.1762                 1.9630

                     19                     20                     21
                     A'                     A'                     A'
 Frequencies --   3130.8389              3213.6239              3233.8549
 Red. masses --      1.0523                 1.1165                 1.0967
 Frc consts  --      6.0773                 6.7934                 6.7572
 IR Inten    --      1.6629                 0.7132                 0.9690

 - Thermochemistry -
 -------------------
 Temperature   298.150 Kelvin.  Pressure   1.00000 Atm.
 Atom     1 has atomic number  6 and mass  12.00000

 Molecular mass:    64.03130 amu.
 Principal axes and moments of inertia in atomic units:
                           1         2         3
     Eigenvalues --    47.77655 744.97006 792.74661
           X            0.94962   0.31341   0.00000
           Y           -0.31341   0.94962   0.00000
           Z           -0.00000  -0.00000   1.00000
 This molecule is an asymmetric top.
 Rotational symmetry number  1.
 Rotational temperatures (Kelvin)      1.81289     0.11626     0.10926
 Rotational constants (GHZ):          37.77462     2.42257     2.27657
 Zero-point vibrational energy     163113.9 (Joules/Mol)
                                   38.98517 (Kcal/Mol)
 Warning -- explicit consideration of   6 degrees of freedom as
           vibrations may cause significant error
 Vibrational temperatures:    201.01   269.17   468.04   488.00   677.92
          (Kelvin)            720.01   980.91  1104.44  1112.53  1258.63
                             1333.77  1485.08  1812.40  1906.94  2084.20
                             2175.59  2936.92  4439.53  4504.57  4623.68
                             4652.79

 Zero-point correction=                           0.062127 (Hartree/Particle)
 Thermal correction to Energy=                    0.067905
 Thermal correction to Enthalpy=                  0.068849
 Thermal correction to Gibbs Free Energy=         0.032922
 Sum of electronic and zero-point Energies=           -192.737910
 Sum of electronic and thermal Energies=              -192.732132
 Sum of electronic and thermal Enthalpies=            -192.731188
 Sum of electronic and thermal Free Energies=         -192.767115

                     E (Thermal)             CV                S
                      KCal/Mol        Cal/Mol-Kelvin    Cal/Mol-Kelvin
 Total                   42.611             19.604             75.616
 Electronic               0.000              0.000              2.183
 Translational            0.889              2.981             38.389
 Rotational               0.889              2.981             24.849
 Vibrational             40.834             13.642             10.195
 Vibration     1          0.615              1.914              2.808
 Vibration     2          0.632              1.858              2.257
 Vibration     3          0.709              1.625              1.283
 Vibration     4          0.719              1.597              1.216
 Vibration     5          0.828              1.314              0.734
 Vibration     6          0.856              1.249              0.657

 Normal termination of Gaussian 09 at Wed Jul 20 03:59:08 2016.
