 Gaussian 09, Revision E.01,
 Gaussian 09:  EM64L-G09RevE.01 30-Nov-2015

 ------------------------------------------------------
 #p b3lyp/6-311++G(3df,2p) freq IOp(2/17=3) IOp(2/18=3)
 ------------------------------------------------------

 ---------
 b3lyp opt
 ---------
 Symbolic Z-matrix:
 Charge =  0 Multiplicity = 3

                         Standard orientation:
 ---------------------------------------------------------------------
 Center     Atomic      Atomic             Coordinates (Angstroms)
 Number     Number       Type             X           Y           Z
 ---------------------------------------------------------------------
      1          6           0        0.000044    0.710181   -0.109030
      2          6           0       -0.000044   -0.710181   -0.109030
      3          6           0        0.000000    0.000000    1.232778
      4          1           0       -0.919683   -0.000000    1.807407
      5          1           0        0.919683   -0.000000    1.807407
      6          6           0        0.000037    1.843500   -0.726103
      7          1           0       -0.000492    2.894669   -0.494837
      8          6           0       -0.000037   -1.843500   -0.726103
      9          1           0        0.000492   -2.894669   -0.494837
 ---------------------------------------------------------------------

 SCF Done:  E(UB3LYP) =  -192.736977046     A.U. after   15 cycles

 The electronic state is 3-B.
 Alpha  occ. eigenvalues --  -10.21351 -10.21086 -10.21044 -10.20621 -10.20620
 Alpha  occ. eigenvalues --   -0.89737  -0.75263  -0.72442  -0.60382  -0.52130
 Alpha  occ. eigenvalues --   -0.50731  -0.47566  -0.39407  -0.39028  -0.32418
 Alpha  occ. eigenvalues --   -0.26811  -0.24556  -0.22845
 Alpha virt. eigenvalues --   -0.06056  -0.00560   0.00928   0.01863   0.03221
 Alpha virt. eigenvalues --    0.04889   0.05454   0.06171   0.06715   0.08219
 Alpha virt. eigenvalues --    0.09005   0.09668   0.10650   0.11126   0.11898

  Beta  occ. eigenvalues --  -10.21116 -10.21071 -10.20760 -10.19200 -10.19198
  Beta  occ. eigenvalues --   -0.88703  -0.72881  -0.69806  -0.59141  -0.50524
  Beta  occ. eigenvalues --   -0.49518  -0.47342  -0.36514  -0.35739  -0.32007
  Beta  occ. eigenvalues --   -0.25513
  Beta virt. eigenvalues --   -0.10413  -0.08861  -0.04743  -0.00438   0.01140
  Beta virt. eigenvalues --    0.02119   0.03357   0.05051   0.05777   0.06182
  Beta virt. eigenvalues --    0.07639   0.08380   0.09708   0.09796   0.11253

 Mulliken charges and spin densities:
               1          2
     1  C    0.370935  -0.145710
     2  C    0.370935  -0.145710
     3  C   -0.624229   0.294125
     4  H    0.170673  -0.007001
     5  H    0.170673  -0.007001
     6  C   -0.439618   0.977334
     7  H    0.210125   0.028315
     8  C   -0.439618   0.977334
     9  H    0.210125   0.028315
 Sum of Mulliken charges =  -0.00000   2.00000

 Dipole moment (field-independent basis, Debye):
    X=             -0.0000    Y=             -0.0000    Z=              1.8414  Tot=              1.8414
 Quadrupole moment (field-independent basis, Debye-Ang):
   XX=            -31.1119   YY=            -25.1200   ZZ=            -30.8427
   XY=             -0.0034   XZ=             -0.0000   YZ=             -0.0000

  Exact polarizability:  41.219   0.003  94.645  -0.000   0.000  60.981
 Approx polarizability:  58.401   0.009 152.570  -0.000   0.000  90.868

                      1                      2                      3
                      A                      B                      A
 Frequencies --    240.7007               241.0963               363.5875
 Red. masses --      3.1937                 2.7069                 3.2905
 Frc consts  --      0.1090                 0.0927                 0.2563
 IR Inten    --      1.5966                18.1535                 0.0000

                      4                      5                      6
                      B                      B                      B
 Frequencies --    410.6248               617.2912               652.1904
 Red. masses --      2.2949                 1.2638                 6.9372
 Frc consts  --      0.2280                 0.2837                 1.7385
 IR Inten    --      8.0742                59.0293                32.0707

                      7                      8                      9
                      A                      A                      B
 Frequencies --    677.6336               726.3851               834.6495
 Red. masses --      1.1665                 1.7581                 1.5701
 Frc consts  --      0.3156                 0.5465                 0.6444
 IR Inten    --      0.0000                11.4760                19.0740

                     10                     11                     12
                      A                      B                      A
 Frequencies --    905.5151               933.8636               935.4198
 Red. masses --      3.4693                 1.3483                 5.0766
 Frc consts  --      1.6760                 0.6928                 2.6172
 IR Inten    --     44.8196                 4.9207                 2.8621

                     13                     14                     15
                      A                      B                      A
 Frequencies --    960.0428              1009.9020              1436.7744
 Red. masses --      1.3225                 1.2969                 1.1023
 Frc consts  --      0.7182                 0.7793                 1.3407
 IR Inten    --      0.0000                 0.2521                 0.0064

                     16                     17                     18
                      B                      A                      A
 Frequencies --   1655.3808              1850.1823              3084.9292
 Red. masses --      7.7014                 9.0056                 1.0482
 Frc consts  --     12.4341                18.1633                 5.8772
 IR Inten    --      2.5784                 6.7968                 8.3406

                     19                     20                     21
                      B                      A                      B
 Frequencies --   3175.3319              3253.6463              3253.9398
 Red. masses --      1.1173                 1.1042                 1.1063
 Frc consts  --      6.6371                 6.8872                 6.9016
 IR Inten    --      1.6658                 2.1946                 0.8456

 - Thermochemistry -
 -------------------
 Temperature   298.150 Kelvin.  Pressure   1.00000 Atm.
 Atom     1 has atomic number  6 and mass  12.00000

 Molecular mass:    64.03130 amu.
 Principal axes and moments of inertia in atomic units:
                           1         2         3
     Eigenvalues --   142.31651 400.89689 531.03698
           X           -0.00000   0.00000   1.00000
           Y            1.00000   0.00000   0.00000
           Z            0.00000   1.00000   0.00000
 This molecule is an asymmetric top.
 Rotational symmetry number  2.
 Rotational temperatures (Kelvin)      0.60860     0.21605     0.16310
 Rotational constants (GHZ):          12.68118     4.50176     3.39852
 Zero-point vibrational energy     162806.3 (Joules/Mol)
                                   38.91164 (Kcal/Mol)
 Warning -- explicit consideration of   5 degrees of freedom as
           vibrations may cause significant error
 Vibrational temperatures:    346.31   346.88   523.12   590.80   888.14
          (Kelvin)            938.36   974.96  1045.10  1200.87  1302.83
                             1343.62  1345.86  1381.29  1453.02  2067.20
                             2381.72  2662.00  4438.52  4568.59  4681.27
                             4681.69

 Zero-point correction=                           0.062010 (Hartree/Particle)
 Thermal correction to Energy=                    0.067300
 Thermal correction to Enthalpy=                  0.068244
 Thermal correction to Gibbs Free Energy=         0.034072
 Sum of electronic and zero-point Energies=           -192.674967
 Sum of electronic and thermal Energies=              -192.669677
 Sum of electronic and thermal Enthalpies=            -192.668733
 Sum of electronic and thermal Free Energies=         -192.702905

                     E (Thermal)             CV                S
                      KCal/Mol        Cal/Mol-Kelvin    Cal/Mol-Kelvin
 Total                   42.232             19.027             71.921
 Electronic               0.000              0.000              2.183
 Translational            0.889              2.981             38.389
 Rotational               0.889              2.981             23.542
 Vibrational             40.454             13.065              7.807
 Vibration     1          0.658              1.778              1.798
 Vibration     2          0.658              1.777              1.795
 Vibration     3          0.737              1.547              1.107
 Vibration     4          0.775              1.447              0.924
 Vibration     5          0.977              0.995              0.421

 Optimization completed.
    -- Stationary point found.
 Normal termination of Gaussian 09 at Thu Jan 31 06:39:27 2019.
