 Gaussian 09, Revision E.01,
 Gaussian 09:  EM64L-G09RevE.01 30-Nov-2015

 ------------------------------------------------------
 #p b3lyp/6-311++G(3df,2p) freq IOp(2/17=3) IOp(2/18=3)
 ------------------------------------------------------

 ---------
 b3lyp opt
 ---------
 Symbolic Z-matrix:
 Charge =  2 Multiplicity = 1

                         Standard orientation:
 ---------------------------------------------------------------------
 Center     Atomic      Atomic             Coordinates (Angstroms)
 Number     Number       Type             X           Y           Z
 ---------------------------------------------------------------------
      1          6           0       -1.536203    0.000000    0.359607
      2          1           0       -2.041810   -0.935845    0.620701
      3          1           0       -2.041810    0.935845    0.620701
      4          6           0       -0.643256    0.000000   -0.824187
      5          6           0        0.643256   -0.000000   -0.824187
      6          6           0       -0.000000    0.000000    0.515396
      7          6           0        1.536203   -0.000000    0.359607
      8          1           0        2.041810    0.935845    0.620701
      9          1           0        2.041810   -0.935845    0.620701
 ---------------------------------------------------------------------

 SCF Done:  E(RB3LYP) =  -191.910028993     A.U. after   11 cycles

 The electronic state is 1-A1.
 Alpha  occ. eigenvalues --  -10.83733 -10.79960 -10.79840 -10.74319 -10.74317
 Alpha  occ. eigenvalues --   -1.55495  -1.32493  -1.20882  -1.04919  -1.00506
 Alpha  occ. eigenvalues --   -1.00480  -0.95481  -0.92533  -0.90306  -0.86292
 Alpha  occ. eigenvalues --   -0.82554
 Alpha virt. eigenvalues --   -0.59345  -0.57177  -0.50927  -0.46005  -0.37813
 Alpha virt. eigenvalues --   -0.32556  -0.30301  -0.29872  -0.29262  -0.27853
 Alpha virt. eigenvalues --   -0.26046  -0.24171  -0.23642  -0.22487  -0.21836

 Mulliken charges:
               1
     1  C   -0.120931
     2  H    0.306467
     3  H    0.306467
     4  C    0.287400
     5  C    0.287400
     6  C    0.441197
     7  C   -0.120931
     8  H    0.306467
     9  H    0.306467
 Sum of Mulliken charges =   2.00000

 Dipole moment (field-independent basis, Debye):
    X=             -0.0000    Y=              0.0000    Z=              1.0012  Tot=              1.0012
 Quadrupole moment (field-independent basis, Debye-Ang):
   XX=             -1.4210   YY=            -20.1442   ZZ=            -19.9125
   XY=              0.0000   XZ=              0.0000   YZ=              0.0000

  Exact polarizability:  52.557   0.000  27.067  -0.000   0.000  34.463
 Approx polarizability:  90.668   0.000  41.122   0.000   0.000  73.929

                      1                      2                      3
                     B2                     A1                     A2
 Frequencies --    320.5197               346.3326               399.6458
 Red. masses --      2.6205                 5.2769                 3.7308
 Frc consts  --      0.1586                 0.3729                 0.3511
 IR Inten    --      6.0296                12.2057                 0.0000

                      4                      5                      6
                     B1                     A1                     B1
 Frequencies --    548.3297               805.8127               929.8459
 Red. masses --     11.7975                 7.5989                 9.5380
 Frc consts  --      2.0899                 2.9072                 4.8588
 IR Inten    --     16.3423                 6.7947                 0.0143

                      7                      8                      9
                     A2                     A2                     B2
 Frequencies --    930.7515              1002.8446              1010.4598
 Red. masses --      1.0402                 1.3727                 1.3095
 Frc consts  --      0.5309                 0.8134                 0.7878
 IR Inten    --      0.0000                 0.0000                 0.5942

                     10                     11                     12
                     B2                     A1                     B1
 Frequencies --   1017.8646              1071.3178              1138.3071
 Red. masses --      1.2585                 2.8440                 1.2739
 Frc consts  --      0.7682                 1.9232                 0.9726
 IR Inten    --      0.2629                 0.9207                 0.1888

                     13                     14                     15
                     A1                     B1                     B1
 Frequencies --   1141.3795              1211.0333              1415.6833
 Red. masses --      1.5900                 6.8991                 1.0611
 Frc consts  --      1.2204                 5.9614                 1.2529
 IR Inten    --     64.6200                71.4144                50.1309

                     16                     17                     18
                     A1                     A1                     B1
 Frequencies --   1417.6967              1845.5667              3014.9467
 Red. masses --      1.1051                10.6778                 1.0521
 Frc consts  --      1.3086                21.4285                 5.6345
 IR Inten    --      7.8907                21.5335               291.2334

                     19                     20                     21
                     A1                     A2                     B2
 Frequencies --   3017.0263              3116.4415              3117.3154
 Red. masses --      1.0498                 1.1243                 1.1250
 Frc consts  --      5.6298                 6.4333                 6.4410
 IR Inten    --     45.7994                 0.0000               257.0483

 - Thermochemistry -
 -------------------
 Temperature   298.150 Kelvin.  Pressure   1.00000 Atm.
 Atom     1 has atomic number  6 and mass  12.00000

 Molecular mass:    64.03130 amu.
 Principal axes and moments of inertia in atomic units:
                           1         2         3
     Eigenvalues --    98.50096 310.34632 383.63101
           X            1.00000   0.00000   0.00000
           Y           -0.00000   0.00000   1.00000
           Z            0.00000   1.00000  -0.00000
 This molecule is an asymmetric top.
 Rotational symmetry number  2.
 Rotational temperatures (Kelvin)      0.87932     0.27909     0.22577
 Rotational constants (GHZ):          18.32207     5.81525     4.70437
 Zero-point vibrational energy     172376.6 (Joules/Mol)
                                   41.19900 (Kcal/Mol)
 Warning -- explicit consideration of   4 degrees of freedom as
           vibrations may cause significant error
 Vibrational temperatures:    461.16   498.29   575.00   788.92  1159.38
          (Kelvin)           1337.84  1339.14  1442.87  1453.82  1464.48
                             1541.39  1637.77  1642.19  1742.40  2036.85
                             2039.75  2655.36  4337.83  4340.82  4483.86
                             4485.12

 Zero-point correction=                           0.065655 (Hartree/Particle)
 Thermal correction to Energy=                    0.070129
 Thermal correction to Enthalpy=                  0.071073
 Thermal correction to Gibbs Free Energy=         0.039733
 Sum of electronic and zero-point Energies=           -191.844374
 Sum of electronic and thermal Energies=              -191.839900
 Sum of electronic and thermal Enthalpies=            -191.838956
 Sum of electronic and thermal Free Energies=         -191.870296

                     E (Thermal)             CV                S
                      KCal/Mol        Cal/Mol-Kelvin    Cal/Mol-Kelvin
 Total                   44.007             15.672             65.961
 Electronic               0.000              0.000              0.000
 Translational            0.889              2.981             38.389
 Rotational               0.889              2.981             22.599
 Vibrational             42.229              9.711              4.973
 Vibration     1          0.706              1.634              1.307
 Vibration     2          0.724              1.583              1.183
 Vibration     3          0.766              1.471              0.964
 Vibration     4          0.904              1.143              0.548

 Optimization completed.
    -- Stationary point found.
 Normal termination of Gaussian 09 at Thu Jan 31 07:59:04 2019.
