 Gaussian 09, Revision E.01,
 Gaussian 09:  EM64L-G09RevE.01 30-Nov-2015

 ---------------------------------------------
 #p b3lyp/6-311++G(3df,2p) freq symmetry=Loose
 ---------------------------------------------

 ---------
 b3lyp opt
 ---------
 Symbolic Z-matrix:
 Charge =  0 Multiplicity = 3

                         Standard orientation:
 ---------------------------------------------------------------------
 Center     Atomic      Atomic             Coordinates (Angstroms)
 Number     Number       Type             X           Y           Z
 ---------------------------------------------------------------------
      1          6           0       -0.385241   -0.000299    0.447003
      2          6           0        0.735667   -0.855061   -0.133642
      3          6           0        1.782632   -0.000032   -0.072594
      4          6           0        0.735315    0.855428   -0.133259
      5          1           0       -0.393230   -0.000650    1.531598
      6          6           0       -1.752473   -0.000075   -0.190563
      7          1           0       -2.310816   -0.882470    0.122958
      8          1           0       -2.308727    0.884958    0.120333
      9          1           0       -1.682622   -0.001602   -1.276562
 ---------------------------------------------------------------------

 SCF Done:  E(UB3LYP) =  -192.707882117     A.U. after   16 cycles

 The electronic state is 3-A.
 Alpha  occ. eigenvalues --  -10.24686 -10.24526 -10.24518 -10.23585 -10.18505
 Alpha  occ. eigenvalues --   -0.96818  -0.77974  -0.65634  -0.58902  -0.53323
 Alpha  occ. eigenvalues --   -0.45924  -0.45531  -0.41266  -0.38068  -0.35770
 Alpha  occ. eigenvalues --   -0.35362  -0.28664  -0.21783
 Alpha virt. eigenvalues --   -0.04308  -0.03450  -0.00070   0.01306   0.03161
 Alpha virt. eigenvalues --    0.03324   0.05304   0.05350   0.06010   0.07282
 Alpha virt. eigenvalues --    0.08015   0.09099   0.10744   0.10906   0.11587

  Beta  occ. eigenvalues --  -10.24322 -10.23345 -10.23336 -10.22327 -10.18484
  Beta  occ. eigenvalues --   -0.95115  -0.77425  -0.64445  -0.55179  -0.51899
  Beta  occ. eigenvalues --   -0.44793  -0.44200  -0.40530  -0.36971  -0.33312
  Beta  occ. eigenvalues --   -0.29619
  Beta virt. eigenvalues --   -0.15230  -0.09430  -0.02005  -0.01932   0.00684
  Beta virt. eigenvalues --    0.01699   0.03445   0.03853   0.05812   0.05827
  Beta virt. eigenvalues --    0.06162   0.07393   0.08594   0.09247   0.10970

 Mulliken charges and spin densities:
               1          2
     1  C    0.435564   0.043890
     2  C   -0.326102   0.640742
     3  C    0.175210   0.620612
     4  C   -0.325829   0.641794
     5  H    0.213144  -0.013943
     6  C   -0.618052   0.062258
     7  H    0.139002   0.001245
     8  H    0.138946   0.001232
     9  H    0.168117   0.002171
 Sum of Mulliken charges =  -0.00000   2.00000

 Dipole moment (field-independent basis, Debye):
    X=             -1.9756    Y=             -0.0008    Z=              1.1133  Tot=              2.2677
 Quadrupole moment (field-independent basis, Debye-Ang):
   XX=            -30.5658   YY=            -33.2006   ZZ=            -29.5077
   XY=              0.0000   XZ=              0.2304   YZ=             -0.0014

  Exact polarizability:  68.104  -0.007  56.834  -1.757   0.004  42.303
 Approx polarizability:  98.047  -0.017 108.900  -2.799   0.014  61.506

                      1                      2                      3
                      A                      A                      A
 Frequencies --    194.1408               304.4605               350.2143
 Red. masses --      1.1023                 3.9737                 3.6468
 Frc consts  --      0.0245                 0.2170                 0.2635
 IR Inten    --      0.1278                 1.6689                 1.7185

                      4                      5                      6
                      A                      A                      A
 Frequencies --    552.5642               612.1315               639.8253
 Red. masses --      6.2062                 6.5609                 6.2601
 Frc consts  --      1.1165                 1.4484                 1.5099
 IR Inten    --     14.5700                 4.6357                29.2016

                      7                      8                      9
                      A                      A                      A
 Frequencies --    873.7420               995.6205              1062.4844
 Red. masses --      2.6614                 1.2188                 1.6796
 Frc consts  --      1.1971                 0.7118                 1.1171
 IR Inten    --      1.0850                18.0049                 0.6181

                     10                     11                     12
                      A                      A                      A
 Frequencies --   1093.4371              1167.9495              1203.4043
 Red. masses --      1.7922                 3.0876                 4.7127
 Frc consts  --      1.2625                 2.4815                 4.0211
 IR Inten    --      1.9287                19.4861                 0.1889

                     13                     14                     15
                      A                      A                      A
 Frequencies --   1351.8643              1411.9113              1489.4524
 Red. masses --      1.4387                 1.2408                 1.0489
 Frc consts  --      1.5491                 1.4574                 1.3710
 IR Inten    --     20.4933                 3.7847                 7.6228

                     16                     17                     18
                      A                      A                      A
 Frequencies --   1491.5406              1538.7934              3036.0727
 Red. masses --      1.0434                 9.8414                 1.0351
 Frc consts  --      1.3676                13.7299                 5.6215
 IR Inten    --      4.6307                 0.3202                11.8884

                     19                     20                     21
                      A                      A                      A
 Frequencies --   3098.2350              3112.5689              3133.0209
 Red. masses --      1.1015                 1.0981                 1.0907
 Frc consts  --      6.2295                 6.2679                 6.3080
 IR Inten    --      9.7238                 4.3050                 7.0685

 - Thermochemistry -
 -------------------
 Temperature   298.150 Kelvin.  Pressure   1.00000 Atm.
 Atom     1 has atomic number  6 and mass  12.00000

 Molecular mass:    64.03130 amu.
 Principal axes and moments of inertia in atomic units:
                           1         2         3
     Eigenvalues --    94.54930 393.46427 435.53510
           X            0.99995  -0.00001   0.00969
           Y            0.00001   1.00000  -0.00008
           Z           -0.00969   0.00008   0.99995
 This molecule is an asymmetric top.
 Rotational symmetry number  1.
 Rotational temperatures (Kelvin)      0.91607     0.22013     0.19887
 Rotational constants (GHZ):          19.08783     4.58680     4.14373
 Zero-point vibrational energy     171744.5 (Joules/Mol)
                                   41.04791 (Kcal/Mol)
 Warning -- explicit consideration of   5 degrees of freedom as
           vibrations may cause significant error
 Vibrational temperatures:    279.32   438.05   503.88   795.02   880.72
          (Kelvin)            920.56  1257.12  1432.47  1528.68  1573.21
                             1680.42  1731.43  1945.03  2031.42  2142.99
                             2145.99  2213.98  4368.23  4457.66  4478.29
                             4507.71

 Zero-point correction=                           0.065414 (Hartree/Particle)
 Thermal correction to Energy=                    0.070291
 Thermal correction to Enthalpy=                  0.071235
 Thermal correction to Gibbs Free Energy=         0.037254
 Sum of electronic and zero-point Energies=           -192.642468
 Sum of electronic and thermal Energies=              -192.637591
 Sum of electronic and thermal Enthalpies=            -192.636647
 Sum of electronic and thermal Free Energies=         -192.670628

                     E (Thermal)             CV                S
                      KCal/Mol        Cal/Mol-Kelvin    Cal/Mol-Kelvin
 Total                   44.108             16.533             71.518
 Electronic               0.000              0.000              2.183
 Translational            0.889              2.981             38.389
 Rotational               0.889              2.981             24.297
 Vibrational             42.331             10.572              6.648
 Vibration     1          0.635              1.848              2.188
 Vibration     2          0.695              1.665              1.392
 Vibration     3          0.727              1.575              1.165
 Vibration     4          0.908              1.134              0.539
 Vibration     5          0.971              1.006              0.429

 Normal termination of Gaussian 09 at Mon Jun 20 02:48:03 2016.
