 Gaussian 09, Revision E.01,
 Gaussian 09:  EM64L-G09RevE.01 30-Nov-2015

 ---------------------------------------------
 #p b3lyp/6-311++G(3df,2p) freq symmetry=Loose
 ---------------------------------------------

 ---------
 b3lyp opt
 ---------
 Symbolic Z-matrix:
 Charge =  1 Multiplicity = 4

                         Standard orientation:
 ---------------------------------------------------------------------
 Center     Atomic      Atomic             Coordinates (Angstroms)
 Number     Number       Type             X           Y           Z
 ---------------------------------------------------------------------
      1          6           0        1.432969    0.305290   -0.000629
      2          6           0        0.724706   -1.021901    0.000070
      3          1           0        0.845125   -1.624287    0.898457
      4          1           0        0.136630    2.194944    0.001140
      5          6           0        0.318017    1.131580    0.000410
      6          1           0        0.844125   -1.625249   -0.897802
      7          6           0       -0.491708   -0.031472    0.000549
      8          6           0       -1.827585   -0.255152   -0.000413
      9          1           0       -2.764272    0.284527   -0.001701
 ---------------------------------------------------------------------

 SCF Done:  E(UB3LYP) =  -192.426412347     A.U. after   15 cycles

 The electronic state is 4-A.
 Alpha  occ. eigenvalues --  -10.49897 -10.47848 -10.47726 -10.45618 -10.42533
 Alpha  occ. eigenvalues --   -1.15949  -1.00576  -0.92341  -0.81219  -0.76730
 Alpha  occ. eigenvalues --   -0.72914  -0.69110  -0.66494  -0.62503  -0.57216
 Alpha  occ. eigenvalues --   -0.51181  -0.50522  -0.49390
 Alpha virt. eigenvalues --   -0.30420  -0.20750  -0.15081  -0.13300  -0.12473
 Alpha virt. eigenvalues --   -0.12076  -0.10493  -0.09971  -0.08368  -0.06871
 Alpha virt. eigenvalues --   -0.05673  -0.05518  -0.04577  -0.03295  -0.02732

  Beta  occ. eigenvalues --  -10.47812 -10.47599 -10.45433 -10.45172 -10.42266
  Beta  occ. eigenvalues --   -1.13640  -0.95465  -0.91159  -0.76853  -0.76071
  Beta  occ. eigenvalues --   -0.69624  -0.67631  -0.63300  -0.61187  -0.54553
  Beta virt. eigenvalues --   -0.39820  -0.33479  -0.31932  -0.24158  -0.18324
  Beta virt. eigenvalues --   -0.14717  -0.12571  -0.11921  -0.11461  -0.10007
  Beta virt. eigenvalues --   -0.09675  -0.07886  -0.06496  -0.04839  -0.04689

 Mulliken charges and spin densities:
               1          2
     1  C    0.370494   1.257101
     2  C   -0.644743   0.085471
     3  H    0.222906   0.003822
     4  H    0.301318  -0.004222
     5  C   -0.127152   0.148486
     6  H    0.222826   0.003841
     7  C    0.666194   0.087427
     8  C   -0.289842   1.406075
     9  H    0.277999   0.011999
 Sum of Mulliken charges =   1.00000   3.00000

 Dipole moment (field-independent basis, Debye):
    X=             -1.2629    Y=              0.6590    Z=             -0.0002  Tot=              1.4245
 Quadrupole moment (field-independent basis, Debye-Ang):
   XX=            -16.1609   YY=            -19.5534   ZZ=            -26.4630
   XY=             -1.8820   XZ=              0.0055   YZ=              0.0018

  Exact polarizability:  70.782   2.772  48.633   0.003   0.002  31.655
 Approx polarizability: 122.395  10.699  73.109  -0.004   0.001  47.365

                      1                      2                      3
                      A                      A                      A
 Frequencies --    162.8482               351.8024               480.9609
 Red. masses --      3.9150                 2.5626                 1.8291
 Frc consts  --      0.0612                 0.1869                 0.2493
 IR Inten    --      0.1002                 4.8487                16.5409

                      4                      5                      6
                      A                      A                      A
 Frequencies --    647.8273               708.2334               773.9009
 Red. masses --      2.5968                 1.2663                 2.3386
 Frc consts  --      0.6421                 0.3742                 0.8252
 IR Inten    --      5.4614                 4.8737                15.3165

                      7                      8                      9
                      A                      A                      A
 Frequencies --    823.0543               891.3863               988.9991
 Red. masses --      3.1036                 1.5532                 1.5534
 Frc consts  --      1.2387                 0.7271                 0.8952
 IR Inten    --      6.9353                22.5355                 2.1231

                     10                     11                     12
                      A                      A                      A
 Frequencies --   1011.5834              1063.4102              1073.3844
 Red. masses --      5.4446                 1.0983                 2.2543
 Frc consts  --      3.2826                 0.7318                 1.5303
 IR Inten    --     16.4453                 0.0572                 2.3958

                     13                     14                     15
                      A                      A                      A
 Frequencies --   1186.5069              1246.0051              1356.0960
 Red. masses --      1.4605                 2.1602                 4.9659
 Frc consts  --      1.2114                 1.9760                 5.3806
 IR Inten    --      2.0926                55.6065                76.1848

                     16                     17                     18
                      A                      A                      A
 Frequencies --   1465.0682              1480.5810              3081.0940
 Red. masses --      1.2744                 4.4682                 1.0561
 Frc consts  --      1.6116                 5.7709                 5.9070
 IR Inten    --      8.5969                25.9611                 9.5607

                     19                     20                     21
                      A                      A                      A
 Frequencies --   3142.2165              3229.2079              3248.6991
 Red. masses --      1.1106                 1.0991                 1.1041
 Frc consts  --      6.4605                 6.7528                 6.8658
 IR Inten    --      8.3365                60.8622                27.4342

 - Thermochemistry -
 -------------------
 Temperature   298.150 Kelvin.  Pressure   1.00000 Atm.
 Atom     1 has atomic number  6 and mass  12.00000

 Molecular mass:    64.03130 amu.
 Principal axes and moments of inertia in atomic units:
                           1         2         3
     Eigenvalues --   148.03463 307.60667 444.02881
           X            0.99743  -0.07168  -0.00004
           Y            0.07168   0.99743  -0.00013
           Z            0.00005   0.00013   1.00000
 This molecule is an asymmetric top.
 Rotational symmetry number  1.
 Rotational temperatures (Kelvin)      0.58509     0.28157     0.19506
 Rotational constants (GHZ):          12.19134     5.86704     4.06447
 Zero-point vibrational energy     169946.7 (Joules/Mol)
                                   40.61823 (Kcal/Mol)
 Warning -- explicit consideration of   3 degrees of freedom as
           vibrations may cause significant error
 Vibrational temperatures:    234.30   506.16   691.99   932.08  1018.99
          (Kelvin)           1113.47  1184.19  1282.50  1422.95  1455.44
                             1530.01  1544.36  1707.12  1792.72  1951.12
                             2107.90  2130.22  4433.00  4520.94  4646.10
                             4674.15

 Zero-point correction=                           0.064729 (Hartree/Particle)
 Thermal correction to Energy=                    0.069422
 Thermal correction to Enthalpy=                  0.070366
 Thermal correction to Gibbs Free Energy=         0.036283
 Sum of electronic and zero-point Energies=           -192.361683
 Sum of electronic and thermal Energies=              -192.356991
 Sum of electronic and thermal Enthalpies=            -192.356047
 Sum of electronic and thermal Free Energies=         -192.390129

                     E (Thermal)             CV                S
                      KCal/Mol        Cal/Mol-Kelvin    Cal/Mol-Kelvin
 Total                   43.563             16.328             71.733
 Electronic               0.000              0.000              2.755
 Translational            0.889              2.981             38.389
 Rotational               0.889              2.981             24.517
 Vibrational             41.785             10.367              6.071
 Vibration     1          0.623              1.888              2.516
 Vibration     2          0.728              1.572              1.158
 Vibration     3          0.837              1.292              0.707

 Normal termination of Gaussian 09 at Mon Jun 20 07:05:49 2016.
