 Gaussian 09, Revision E.01,
 Gaussian 09:  EM64L-G09RevE.01 30-Nov-2015

 ---------------------------------------------
 #p b3lyp/6-311++G(3df,2p) freq symmetry=Loose
 ---------------------------------------------

 ---------
 b3lyp opt
 ---------
 Symbolic Z-matrix:
 Charge =  1 Multiplicity = 4

                         Standard orientation:
 ---------------------------------------------------------------------
 Center     Atomic      Atomic             Coordinates (Angstroms)
 Number     Number       Type             X           Y           Z
 ---------------------------------------------------------------------
      1          6           0        0.889297    0.174775    0.429454
      2          1           0       -0.391422    1.946344    0.473490
      3          1           0        0.980068    0.169103    1.516198
      4          6           0       -1.107171    0.024826   -0.099442
      5          6           0       -1.773106   -0.992899    0.063627
      6          6           0        1.625478   -0.666097   -0.325582
      7          1           0        2.402497   -1.406088   -0.193707
      8          6           0       -0.144500    1.104767   -0.169302
      9          1           0        0.068874    1.418409   -1.188517
 ---------------------------------------------------------------------

 SCF Done:  E(UB3LYP) =  -192.357420947     A.U. after   19 cycles

 The electronic state is 4-A.
 Alpha  occ. eigenvalues --  -10.49531 -10.46866 -10.46783 -10.46057 -10.43882
 Alpha  occ. eigenvalues --   -1.09882  -1.01738  -0.95707  -0.80395  -0.73905
 Alpha  occ. eigenvalues --   -0.73370  -0.67105  -0.64394  -0.62925  -0.57628
 Alpha  occ. eigenvalues --   -0.53714  -0.51847  -0.48784
 Alpha virt. eigenvalues --   -0.27491  -0.20935  -0.17935  -0.15220  -0.13008
 Alpha virt. eigenvalues --   -0.11909  -0.10471  -0.09868  -0.08313  -0.07488
 Alpha virt. eigenvalues --   -0.06299  -0.05725  -0.05077  -0.04143  -0.03821

  Beta  occ. eigenvalues --  -10.46675 -10.46670 -10.45815 -10.44615 -10.43708
  Beta  occ. eigenvalues --   -1.08358  -0.97684  -0.92411  -0.77926  -0.72746
  Beta  occ. eigenvalues --   -0.72083  -0.65340  -0.63755  -0.53140  -0.51688
  Beta virt. eigenvalues --   -0.40462  -0.40046  -0.31573  -0.22756  -0.18270
  Beta virt. eigenvalues --   -0.14777  -0.14234  -0.12676  -0.11403  -0.09925
  Beta virt. eigenvalues --   -0.09099  -0.07661  -0.07071  -0.05794  -0.05287

 Mulliken charges and spin densities:
               1          2
     1  C    0.012850  -0.037874
     2  H    0.207281  -0.011516
     3  H    0.221817   0.054110
     4  C    0.381242  -0.026755
     5  C    0.051962   1.448381
     6  C   -0.281513   1.462441
     7  H    0.267958   0.010399
     8  C   -0.088577   0.103342
     9  H    0.226980  -0.002527
 Sum of Mulliken charges =   1.00000   3.00000

 Dipole moment (field-independent basis, Debye):
    X=              1.0923    Y=             -0.1903    Z=              0.5821  Tot=              1.2523
 Quadrupole moment (field-independent basis, Debye-Ang):
   XX=            -15.2203   YY=            -19.7460   ZZ=            -25.3646
   XY=             -1.2330   XZ=              0.6301   YZ=             -0.1519

  Exact polarizability:  84.565   2.327  49.472  -2.012   1.368  42.184
 Approx polarizability: 143.134  13.774  82.111  -3.800   1.711  57.563

                      1                      2                      3
                      A                      A                      A
 Frequencies --    142.7059               184.3642               244.5928
 Red. masses --      5.1942                 5.0799                 3.7478
 Frc consts  --      0.0623                 0.1017                 0.1321
 IR Inten    --      0.8136                 0.8581                 1.2345

                      4                      5                      6
                      A                      A                      A
 Frequencies --    377.3670               424.6573               653.6744
 Red. masses --      4.6874                 2.6180                 1.2484
 Frc consts  --      0.3933                 0.2782                 0.3143
 IR Inten    --      6.3882                 8.5520                24.7332

                      7                      8                      9
                      A                      A                      A
 Frequencies --    766.3385               891.1619               928.1421
 Red. masses --      1.4344                 2.1584                 1.4951
 Frc consts  --      0.4963                 1.0099                 0.7588
 IR Inten    --     18.6129                 2.8239                 2.3210

                     10                     11                     12
                      A                      A                      A
 Frequencies --    967.2450              1027.0555              1133.4246
 Red. masses --      1.9412                 2.6346                 1.2323
 Frc consts  --      1.0700                 1.6374                 0.9327
 IR Inten    --     19.4154                12.4311                 8.2477

                     13                     14                     15
                      A                      A                      A
 Frequencies --   1226.2990              1259.4631              1460.3519
 Red. masses --      1.3242                 1.2302                 1.7893
 Frc consts  --      1.1732                 1.1497                 2.2483
 IR Inten    --      7.3113                11.2285               110.7108

                     16                     17                     18
                      A                      A                      A
 Frequencies --   1468.5257              2068.6525              3083.6669
 Red. masses --      1.7195                11.6570                 1.0561
 Frc consts  --      2.1848                29.3909                 5.9168
 IR Inten    --    102.1241               155.3178                12.8043

                     19                     20                     21
                      A                      A                      A
 Frequencies --   3089.9735              3150.3007              3228.1780
 Red. masses --      1.0859                 1.1114                 1.1005
 Frc consts  --      6.1089                 6.4987                 6.7573
 IR Inten    --     11.0258                24.7091                42.7174

 - Thermochemistry -
 -------------------
 Temperature   298.150 Kelvin.  Pressure   1.00000 Atm.
 Atom     1 has atomic number  6 and mass  12.00000

 Molecular mass:    64.03130 amu.
 Principal axes and moments of inertia in atomic units:
                           1         2         3
     Eigenvalues --   170.44784 388.91481 502.32136
           X            0.99808  -0.06125   0.00868
           Y            0.06132   0.99809  -0.00770
           Z           -0.00819   0.00822   0.99993
 This molecule is an asymmetric top.
 Rotational symmetry number  1.
 Rotational temperatures (Kelvin)      0.50815     0.22271     0.17243
 Rotational constants (GHZ):          10.58823     4.64045     3.59280
 Zero-point vibrational energy     166138.2 (Joules/Mol)
                                   39.70799 (Kcal/Mol)
 Warning -- explicit consideration of   5 degrees of freedom as
           vibrations may cause significant error
 Vibrational temperatures:    205.32   265.26   351.91   542.95   610.99
          (Kelvin)            940.49  1102.59  1282.18  1335.39  1391.65
                             1477.70  1630.74  1764.37  1812.08  2101.12
                             2112.88  2976.33  4436.70  4445.78  4532.57
                             4644.62

 Zero-point correction=                           0.063279 (Hartree/Particle)
 Thermal correction to Energy=                    0.068928
 Thermal correction to Enthalpy=                  0.069872
 Thermal correction to Gibbs Free Energy=         0.033706
 Sum of electronic and zero-point Energies=           -192.294142
 Sum of electronic and thermal Energies=              -192.288493
 Sum of electronic and thermal Enthalpies=            -192.287549
 Sum of electronic and thermal Free Energies=         -192.323715

                     E (Thermal)             CV                S
                      KCal/Mol        Cal/Mol-Kelvin    Cal/Mol-Kelvin
 Total                   43.253             18.595             76.118
 Electronic               0.000              0.000              2.755
 Translational            0.889              2.981             38.389
 Rotational               0.889              2.981             25.013
 Vibrational             41.476             12.634              9.961
 Vibration     1          0.616              1.910              2.767
 Vibration     2          0.631              1.861              2.284
 Vibration     3          0.660              1.772              1.769
 Vibration     4          0.748              1.518              1.050
 Vibration     5          0.787              1.417              0.876

 Optimization completed.
    -- Stationary point found.
 Normal termination of Gaussian 09 at Mon Jun 20 06:28:09 2016.
