 Gaussian 09, Revision E.01,
 Gaussian 09:  EM64L-G09RevE.01 30-Nov-2015

 ---------------------------------------------
 #p b3lyp/6-311++G(3df,2p) freq symmetry=Loose
 ---------------------------------------------

 ---------
 b3lyp opt
 ---------
 Symbolic Z-matrix:
 Charge =  1 Multiplicity = 2

                         Standard orientation:
 ---------------------------------------------------------------------
 Center     Atomic      Atomic             Coordinates (Angstroms)
 Number     Number       Type             X           Y           Z
 ---------------------------------------------------------------------
      1          6           0       -0.577321   -0.910803   -0.282244
      2          6           0        0.676063   -0.141572    0.336188
      3          1           0        0.734026   -0.405599    1.395139
      4          6           0        1.913486    0.055242   -0.280697
      5          1           0        2.950930   -0.012831    0.011556
      6          6           0       -1.592962   -0.038437    0.043708
      7          1           0       -2.663611    0.006063   -0.062118
      8          6           0       -0.524945    0.804527    0.024196
      9          1           0       -0.387268    1.798624   -0.391483
 ---------------------------------------------------------------------

 SCF Done:  E(UB3LYP) =  -192.401958260     A.U. after   26 cycles

 The electronic state is 2-A.
 Alpha  occ. eigenvalues --  -10.49314 -10.48818 -10.46616 -10.45432 -10.45341
 Alpha  occ. eigenvalues --   -1.18081  -1.00969  -0.86247  -0.85306  -0.76567
 Alpha  occ. eigenvalues --   -0.72444  -0.68193  -0.65747  -0.64381  -0.57163
 Alpha  occ. eigenvalues --   -0.48323  -0.46080
 Alpha virt. eigenvalues --   -0.36396  -0.25882  -0.24879  -0.14144  -0.13597
 Alpha virt. eigenvalues --   -0.12270  -0.11133  -0.10513  -0.09365  -0.07784
 Alpha virt. eigenvalues --   -0.07003  -0.06420  -0.05968  -0.04398  -0.02810

  Beta  occ. eigenvalues --  -10.49523 -10.49520 -10.46812 -10.45345 -10.42798
  Beta  occ. eigenvalues --   -1.18665  -0.98510  -0.86360  -0.83632  -0.75328
  Beta  occ. eigenvalues --   -0.72507  -0.67924  -0.65304  -0.64127  -0.56997
  Beta  occ. eigenvalues --   -0.48903
  Beta virt. eigenvalues --   -0.32468  -0.30342  -0.25722  -0.25231  -0.14039
  Beta virt. eigenvalues --   -0.13514  -0.11998  -0.10867  -0.10029  -0.09226
  Beta virt. eigenvalues --   -0.07945  -0.06642  -0.06368  -0.05698  -0.04491

 Mulliken charges and spin densities:
               1          2
     1  C   -0.044308  -0.495649
     2  C    0.325159  -0.125576
     3  H    0.242685   0.061696
     4  C   -0.597692   1.649939
     5  H    0.267116   0.002290
     6  C    0.305843   0.111627
     7  H    0.312981  -0.001546
     8  C   -0.063677  -0.175098
     9  H    0.251894  -0.027683
 Sum of Mulliken charges =   1.00000   1.00000

 Dipole moment (field-independent basis, Debye):
    X=             -0.2562    Y=              1.3828    Z=              0.7562  Tot=              1.5968
 Quadrupole moment (field-independent basis, Debye-Ang):
   XX=            -10.1899   YY=            -24.7143   ZZ=            -26.5021
   XY=             -0.9465   XZ=              1.2053   YZ=             -1.4849

  Exact polarizability:  86.716   7.293  45.178   1.554   1.026  34.031
 Approx polarizability: 134.643  22.389  87.255   0.468   4.896  51.602

                      1                      2                      3
                      A                      A                      A
 Frequencies --    233.3607               293.4932               346.0811
 Red. masses --      3.9010                 2.7769                 2.1425
 Frc consts  --      0.1252                 0.1409                 0.1512
 IR Inten    --     33.7570                 6.2762                 2.7712

                      4                      5                      6
                      A                      A                      A
 Frequencies --    530.7427               581.3564               644.7203
 Red. masses --      2.8260                 2.0189                 3.8980
 Frc consts  --      0.4690                 0.4020                 0.9546
 IR Inten    --      8.2877                75.7684                10.6299

                      7                      8                      9
                      A                      A                      A
 Frequencies --    750.5959               857.0724               913.5556
 Red. masses --      1.6865                 1.5043                 1.4080
 Frc consts  --      0.5598                 0.6510                 0.6924
 IR Inten    --      9.7358                87.1168                14.0259

                     10                     11                     12
                      A                      A                      A
 Frequencies --    968.9802              1013.5793              1045.0100
 Red. masses --      2.0803                 1.5158                 1.1587
 Frc consts  --      1.1508                 0.9175                 0.7455
 IR Inten    --     19.0176                 8.7878                12.0412

                     13                     14                     15
                      A                      A                      A
 Frequencies --   1120.5090              1196.0401              1283.1777
 Red. masses --      1.5576                 2.2699                 2.8148
 Frc consts  --      1.1522                 1.9132                 2.7306
 IR Inten    --     62.9636                 3.6378                23.3578

                     16                     17                     18
                      A                      A                      A
 Frequencies --   1343.0149              1518.8373              3043.6936
 Red. masses --      1.7500                 5.8384                 1.0834
 Frc consts  --      1.8597                 7.9353                 5.9134
 IR Inten    --      6.6903                13.2123                18.3169

                     19                     20                     21
                      A                      A                      A
 Frequencies --   3149.6507              3234.1458              3274.6967
 Red. masses --      1.0955                 1.0944                 1.1124
 Frc consts  --      6.4031                 6.7447                 7.0282
 IR Inten    --     39.9273               103.5087                60.1804

 - Thermochemistry -
 -------------------
 Temperature   298.150 Kelvin.  Pressure   1.00000 Atm.
 Atom     1 has atomic number  6 and mass  12.00000

 Molecular mass:    64.03130 amu.
 Principal axes and moments of inertia in atomic units:
                           1         2         3
     Eigenvalues --    95.61834 389.60905 447.53805
           X            0.99983  -0.01114   0.01471
           Y            0.01225   0.99691  -0.07756
           Z           -0.01380   0.07772   0.99688
 This molecule is an asymmetric top.
 Rotational symmetry number  1.
 Rotational temperatures (Kelvin)      0.90583     0.22231     0.19353
 Rotational constants (GHZ):          18.87443     4.63219     4.03260
 Zero-point vibrational energy     163543.4 (Joules/Mol)
                                   39.08780 (Kcal/Mol)
 Warning -- explicit consideration of   5 degrees of freedom as
           vibrations may cause significant error
 Vibrational temperatures:    335.75   422.27   497.93   763.62   836.44
          (Kelvin)            927.61  1079.94  1233.13  1314.40  1394.14
                             1458.31  1503.53  1612.16  1720.83  1846.20
                             1932.30  2185.27  4379.19  4531.64  4653.21
                             4711.55

 Zero-point correction=                           0.062290 (Hartree/Particle)
 Thermal correction to Energy=                    0.067319
 Thermal correction to Enthalpy=                  0.068263
 Thermal correction to Gibbs Free Energy=         0.034522
 Sum of electronic and zero-point Energies=           -192.339668
 Sum of electronic and thermal Energies=              -192.334639
 Sum of electronic and thermal Enthalpies=            -192.333695
 Sum of electronic and thermal Free Energies=         -192.367436

                     E (Thermal)             CV                S
                      KCal/Mol        Cal/Mol-Kelvin    Cal/Mol-Kelvin
 Total                   42.243             17.923             71.015
 Electronic               0.000              0.000              1.377
 Translational            0.889              2.981             38.389
 Rotational               0.889              2.981             24.326
 Vibrational             40.466             11.961              6.922
 Vibration     1          0.654              1.790              1.853
 Vibration     2          0.688              1.686              1.454
 Vibration     3          0.724              1.583              1.184
 Vibration     4          0.886              1.182              0.586
 Vibration     5          0.938              1.072              0.483

 Optimization completed.
    -- Stationary point found.
 Normal termination of Gaussian 09 at Mon Jun 20 04:58:06 2016.
