 Gaussian 09, Revision E.01,
 Gaussian 09:  EM64L-G09RevE.01 30-Nov-2015

 ---------------------------------------------
 #p b3lyp/6-311++G(3df,2p) freq symmetry=Loose
 ---------------------------------------------

 ---------
 b3lyp opt
 ---------
 Symbolic Z-matrix:
 Charge =  2 Multiplicity = 1

                         Standard orientation:
 ---------------------------------------------------------------------
 Center     Atomic      Atomic             Coordinates (Angstroms)
 Number     Number       Type             X           Y           Z
 ---------------------------------------------------------------------
      1          6           0        0.000000    1.091535   -0.000052
      2          6           0       -0.633512   -0.269545    0.462965
      3          6           0        0.633512   -0.269589   -0.462939
      4          1           0       -0.419913    1.655089   -0.833357
      5          1           0        0.419913    1.655168    0.833200
      6          1           0       -0.589199   -0.566305    1.525733
      7          1           0        0.589199   -0.566450   -1.525680
      8          6           0       -1.833044   -0.457669   -0.209898
      9          6           0        1.833044   -0.457649    0.209941
 ---------------------------------------------------------------------

 SCF Done:  E(RB3LYP) =  -191.763708918     A.U. after   11 cycles

 The electronic state is 1-A.
 Alpha  occ. eigenvalues --  -10.82533 -10.82533 -10.72986 -10.72768 -10.72753
 Alpha  occ. eigenvalues --   -1.41658  -1.26894  -1.17081  -1.05726  -1.04602
 Alpha  occ. eigenvalues --   -0.96091  -0.89351  -0.86980  -0.86223  -0.80237
 Alpha  occ. eigenvalues --   -0.79334
 Alpha virt. eigenvalues --   -0.63860  -0.61923  -0.58221  -0.56686  -0.38249
 Alpha virt. eigenvalues --   -0.35770  -0.32246  -0.32009  -0.30081  -0.27010
 Alpha virt. eigenvalues --   -0.26335  -0.25714  -0.24667  -0.22025  -0.21335

 Mulliken charges:
               1
     1  C   -0.173727
     2  C    0.436335
     3  C    0.436334
     4  H    0.314072
     5  H    0.314072
     6  H    0.318341
     7  H    0.318341
     8  C    0.018116
     9  C    0.018116
 Sum of Mulliken charges =   2.00000

 Dipole moment (field-independent basis, Debye):
    X=             -0.0000    Y=              0.0085    Z=             -0.0000  Tot=              0.0085
 Quadrupole moment (field-independent basis, Debye-Ang):
   XX=            -13.0408   YY=            -16.8929   ZZ=            -17.4116
   XY=             -0.0001   XZ=             -2.6739   YZ=             -0.0000

  Exact polarizability:  59.743   0.002  40.337   1.816   0.001  35.650
 Approx polarizability: 119.155   0.000  69.177   7.085  -0.000  58.653

                      1                      2                      3
                      A                      A                      A
 Frequencies --    109.4661               152.0729               188.5195
 Red. masses --      8.4731                 4.6306                 6.6488
 Frc consts  --      0.0598                 0.0631                 0.1392
 IR Inten    --      0.8603                14.7193                13.2039

                      4                      5                      6
                      A                      A                      A
 Frequencies --    211.3406               581.2054               626.2855
 Red. masses --      6.4278                 8.7303                 6.0163
 Frc consts  --      0.1692                 1.7376                 1.3903
 IR Inten    --      0.0008                84.2824                22.8097

                      7                      8                      9
                      A                      A                      A
 Frequencies --    828.4820               840.9203               968.5974
 Red. masses --      1.0710                 1.0936                 4.1992
 Frc consts  --      0.4331                 0.4556                 2.3212
 IR Inten    --     32.3557                 7.8936                 6.8323

                     10                     11                     12
                      A                      A                      A
 Frequencies --    980.2995              1010.6643              1043.7777
 Red. masses --      1.1140                 1.0742                 1.5298
 Frc consts  --      0.6307                 0.6465                 0.9820
 IR Inten    --      0.3663                14.9368                87.6737

                     13                     14                     15
                      A                      A                      A
 Frequencies --   1063.0876              1118.2601              1351.6628
 Red. masses --      1.3907                 1.1822                 4.4148
 Frc consts  --      0.9260                 0.8710                 4.7522
 IR Inten    --     10.0898                 6.2709               624.7322

                     16                     17                     18
                      A                      A                      A
 Frequencies --   1419.2263              1471.0783              2958.7912
 Red. masses --      1.3114                 2.8215                 1.0831
 Frc consts  --      1.5562                 3.5974                 5.5867
 IR Inten    --      0.4132                53.2220               328.3294

                     19                     20                     21
                      A                      A                      A
 Frequencies --   2963.6397              3059.7969              3175.0752
 Red. masses --      1.0864                 1.0515                 1.1274
 Frc consts  --      5.6221                 5.8000                 6.6965
 IR Inten    --     31.5877                92.9499               109.8170

 - Thermochemistry -
 -------------------
 Temperature   298.150 Kelvin.  Pressure   1.00000 Atm.
 Atom     1 has atomic number  6 and mass  12.00000

 Molecular mass:    64.03130 amu.
 Principal axes and moments of inertia in atomic units:
                           1         2         3
     Eigenvalues --   140.84857 370.03888 423.19691
           X            0.99991  -0.00000  -0.01378
           Y            0.00000   1.00000   0.00005
           Z            0.01378  -0.00005   0.99991
 This molecule is an asymmetric top.
 Rotational symmetry number  1.
 Rotational temperatures (Kelvin)      0.61494     0.23407     0.20467
 Rotational constants (GHZ):          12.81334     4.87717     4.26454
 Zero-point vibrational energy     156245.7 (Joules/Mol)
                                   37.34363 (Kcal/Mol)
 Warning -- explicit consideration of   5 degrees of freedom as
           vibrations may cause significant error
 Vibrational temperatures:    157.50   218.80   271.24   304.07   836.22
          (Kelvin)            901.08  1192.00  1209.90  1393.59  1410.43
                             1454.12  1501.76  1529.54  1608.92  1944.74
                             2041.95  2116.55  4257.04  4264.01  4402.36
                             4568.22

 Zero-point correction=                           0.059511 (Hartree/Particle)
 Thermal correction to Energy=                    0.065498
 Thermal correction to Enthalpy=                  0.066442
 Thermal correction to Gibbs Free Energy=         0.030807
 Sum of electronic and zero-point Energies=           -191.704198
 Sum of electronic and thermal Energies=              -191.698211
 Sum of electronic and thermal Enthalpies=            -191.697267
 Sum of electronic and thermal Free Energies=         -191.732902

                     E (Thermal)             CV                S
                      KCal/Mol        Cal/Mol-Kelvin    Cal/Mol-Kelvin
 Total                   41.101             19.117             75.001
 Electronic               0.000              0.000              0.000
 Translational            0.889              2.981             38.389
 Rotational               0.889              2.981             24.604
 Vibrational             39.323             13.155             12.008
 Vibration     1          0.606              1.942              3.278
 Vibration     2          0.619              1.900              2.646
 Vibration     3          0.633              1.856              2.242
 Vibration     4          0.643              1.824              2.032
 Vibration     5          0.938              1.072              0.483

 Optimization completed.
    -- Stationary point found.
 Normal termination of Gaussian 09 at Tue Jul 19 22:13:24 2016.
