 Gaussian 09, Revision E.01,
 Gaussian 09:  EM64L-G09RevE.01 30-Nov-2015

 ---------------------------------------------
 #p b3lyp/6-311++G(3df,2p) freq symmetry=Loose
 ---------------------------------------------

 ---------
 b3lyp opt
 ---------
 Symbolic Z-matrix:
 Charge =  1 Multiplicity = 4

                         Standard orientation:
 ---------------------------------------------------------------------
 Center     Atomic      Atomic             Coordinates (Angstroms)
 Number     Number       Type             X           Y           Z
 ---------------------------------------------------------------------
      1          6           0       -0.000000    1.884086   -0.582313
      2          1           0       -0.000000    1.826892   -1.661679
      3          1           0       -0.000000    2.850098   -0.094729
      4          6           0       -0.000000    0.717157    0.196422
      5          6           0       -0.000000   -0.717157    0.196422
      6          6           0        0.000000    0.000000    1.357252
      7          6           0       -0.000000   -1.884086   -0.582313
      8          1           0       -0.000000   -2.850098   -0.094729
      9          1           0       -0.000000   -1.826892   -1.661679
 ---------------------------------------------------------------------

 SCF Done:  E(UB3LYP) =  -192.452244560     A.U. after   13 cycles

 The electronic state is 4-B2.
 Alpha  occ. eigenvalues --  -10.49048 -10.49006 -10.48081 -10.44398 -10.44397
 Alpha  occ. eigenvalues --   -1.19014  -0.99937  -0.98018  -0.76642  -0.76640
 Alpha  occ. eigenvalues --   -0.71140  -0.67834  -0.66554  -0.64740  -0.61546
 Alpha  occ. eigenvalues --   -0.52639  -0.50819  -0.45951
 Alpha virt. eigenvalues --   -0.23037  -0.20686  -0.16046  -0.12542  -0.11019
 Alpha virt. eigenvalues --   -0.10969  -0.09476  -0.09359  -0.08515  -0.07228
 Alpha virt. eigenvalues --   -0.06878  -0.05576  -0.04248  -0.03671  -0.03629

  Beta  occ. eigenvalues --  -10.48689 -10.48649 -10.46157 -10.43247 -10.43246
  Beta  occ. eigenvalues --   -1.16992  -0.96438  -0.94562  -0.74822  -0.73769
  Beta  occ. eigenvalues --   -0.69393  -0.66615  -0.62408  -0.60447  -0.59960
  Beta virt. eigenvalues --   -0.39635  -0.36417  -0.32240  -0.17554  -0.16117
  Beta virt. eigenvalues --   -0.15478  -0.12112  -0.10563  -0.10067  -0.09034
  Beta virt. eigenvalues --   -0.08283  -0.08182  -0.06893  -0.06500  -0.04318

 Mulliken charges and spin densities:
               1          2
     1  C   -0.396724   0.793466
     2  H    0.232993  -0.018973
     3  H    0.240034  -0.004540
     4  C    0.446350   0.162487
     5  C    0.446350   0.162487
     6  C   -0.045304   1.135120
     7  C   -0.396724   0.793466
     8  H    0.240034  -0.004540
     9  H    0.232993  -0.018973
 Sum of Mulliken charges =   1.00000   3.00000

 Dipole moment (field-independent basis, Debye):
    X=             -0.0000    Y=              0.0000    Z=             -1.5754  Tot=              1.5754
 Quadrupole moment (field-independent basis, Debye-Ang):
   XX=            -27.8622   YY=             -8.8989   ZZ=            -22.1680
   XY=              0.0000   XZ=             -0.0000   YZ=              0.0000

  Exact polarizability:  29.933   0.000  72.144   0.000  -0.000  51.183
 Approx polarizability:  43.550   0.000  99.504   0.000  -0.000  86.103

                      1                      2                      3
                     A1                     B1                     A2
 Frequencies --    211.9580               286.8346               291.6360
 Red. masses --      2.7214                 1.4927                 1.0150
 Frc consts  --      0.0720                 0.0724                 0.0509
 IR Inten    --      3.5744                 0.6870                 0.0000

                      4                      5                      6
                     B1                     B2                     A2
 Frequencies --    441.0223               458.9651               502.1866
 Red. masses --      2.1645                 2.8803                 4.6789
 Frc consts  --      0.2480                 0.3575                 0.6952
 IR Inten    --      4.0038                 0.0005                 0.0000

                      7                      8                      9
                     A1                     B1                     A2
 Frequencies --    766.9352               815.6542               824.7937
 Red. masses --      3.1946                 1.3699                 1.4392
 Frc consts  --      1.1071                 0.5370                 0.5769
 IR Inten    --      8.1287                59.9093                 0.0000

                     10                     11                     12
                     B2                     A1                     B2
 Frequencies --    888.6362              1017.6506              1073.8289
 Red. masses --      4.6532                 1.7680                 1.6524
 Frc consts  --      2.1649                 1.0788                 1.1226
 IR Inten    --     22.5721                 1.4332                 0.1115

                     13                     14                     15
                     A1                     B2                     A1
 Frequencies --   1206.3755              1446.0489              1458.7600
 Red. masses --      5.0862                 1.1585                 1.1477
 Frc consts  --      4.3612                 1.4273                 1.4389
 IR Inten    --     38.2751                 0.0529                14.2313

                     16                     17                     18
                     B2                     A1                     B2
 Frequencies --   1502.0304              1747.6398              3142.5406
 Red. masses --      8.3756                11.3788                 1.0499
 Frc consts  --     11.1333                20.4762                 6.1088
 IR Inten    --    125.3065                48.4631                51.4199

                     19                     20                     21
                     A1                     B2                     A1
 Frequencies --   3143.9426              3259.1088              3259.5401
 Red. masses --      1.0505                 1.1220                 1.1221
 Frc consts  --      6.1177                 7.0219                 7.0241
 IR Inten    --     13.9194                11.7251                21.0028

 - Thermochemistry -
 -------------------
 Temperature   298.150 Kelvin.  Pressure   1.00000 Atm.
 Atom     1 has atomic number  6 and mass  12.00000

 Molecular mass:    64.03130 amu.
 Principal axes and moments of inertia in atomic units:
                           1         2         3
     Eigenvalues --   130.57111 430.80885 561.37996
           X            0.00000   0.00000   1.00000
           Y            1.00000   0.00000  -0.00000
           Z            0.00000   1.00000   0.00000
 This molecule is an asymmetric top.
 Rotational symmetry number  2.
 Rotational temperatures (Kelvin)      0.66335     0.20105     0.15429
 Rotational constants (GHZ):          13.82190     4.18919     3.21483
 Zero-point vibrational energy     165958.5 (Joules/Mol)
                                   39.66502 (Kcal/Mol)
 Warning -- explicit consideration of   6 degrees of freedom as
           vibrations may cause significant error
 Vibrational temperatures:    304.96   412.69   419.60   634.53   660.35
          (Kelvin)            722.53  1103.45  1173.54  1186.69  1278.55
                             1464.17  1545.00  1735.70  2080.54  2098.83
                             2161.08  2514.46  4521.41  4523.43  4689.12
                             4689.75

 Zero-point correction=                           0.063210 (Hartree/Particle)
 Thermal correction to Energy=                    0.068590
 Thermal correction to Enthalpy=                  0.069535
 Thermal correction to Gibbs Free Energy=         0.034868
 Sum of electronic and zero-point Energies=           -192.389034
 Sum of electronic and thermal Energies=              -192.383654
 Sum of electronic and thermal Enthalpies=            -192.382710
 Sum of electronic and thermal Free Energies=         -192.417377

                     E (Thermal)             CV                S
                      KCal/Mol        Cal/Mol-Kelvin    Cal/Mol-Kelvin
 Total                   43.041             18.742             72.962
 Electronic               0.000              0.000              2.755
 Translational            0.889              2.981             38.389
 Rotational               0.889              2.981             23.583
 Vibrational             41.264             12.780              8.235
 Vibration     1          0.643              1.823              2.027
 Vibration     2          0.684              1.698              1.493
 Vibration     3          0.687              1.689              1.464
 Vibration     4          0.801              1.381              0.823
 Vibration     5          0.817              1.341              0.769
 Vibration     6          0.858              1.245              0.653

 Optimization completed.
    -- Stationary point found.
 Normal termination of Gaussian 09 at Wed Jul 20 14:44:41 2016.
