 Gaussian 09, Revision E.01,
 Gaussian 09:  EM64L-G09RevE.01 30-Nov-2015

 ---------------------------------------------
 #p b3lyp/6-311++G(3df,2p) freq symmetry=Loose
 ---------------------------------------------

 ---------
 b3lyp opt
 ---------
 Symbolic Z-matrix:
 Charge =  1 Multiplicity = 4

                         Standard orientation:
 ---------------------------------------------------------------------
 Center     Atomic      Atomic             Coordinates (Angstroms)
 Number     Number       Type             X           Y           Z
 ---------------------------------------------------------------------
      1          6           0       -1.507910    0.179608   -0.000221
      2          6           0        2.065852   -0.340288    0.000298
      3          1           0       -2.433587    0.756212   -0.000335
      4          1           0        2.572510   -0.593818   -0.930092
      5          1           0        2.572227   -0.593903    0.930818
      6          6           0       -1.607281   -1.189622   -0.000298
      7          6           0        0.924335    0.232098    0.000151
      8          6           0       -0.277011    0.864854   -0.000003
      9          1           0       -0.299059    1.951605    0.000043
 ---------------------------------------------------------------------

 SCF Done:  E(UB3LYP) =  -192.409590306     A.U. after   18 cycles

 The electronic state is 4-A.
 Alpha  occ. eigenvalues --  -10.50039 -10.46419 -10.46238 -10.44873 -10.40670
 Alpha  occ. eigenvalues --   -1.08537  -1.01581  -0.94380  -0.82554  -0.72771
 Alpha  occ. eigenvalues --   -0.71952  -0.68135  -0.67784  -0.61029  -0.59072
 Alpha  occ. eigenvalues --   -0.51491  -0.49360  -0.46676
 Alpha virt. eigenvalues --   -0.30581  -0.21847  -0.17801  -0.14835  -0.12703
 Alpha virt. eigenvalues --   -0.10651  -0.10112  -0.09173  -0.07545  -0.07160
 Alpha virt. eigenvalues --   -0.06767  -0.04714  -0.04590  -0.03616  -0.02664

  Beta  occ. eigenvalues --  -10.46186 -10.45965 -10.45791 -10.44459 -10.40698
  Beta  occ. eigenvalues --   -1.06407  -0.99654  -0.91015  -0.79364  -0.71481
  Beta  occ. eigenvalues --   -0.70103  -0.66580  -0.65539  -0.55561  -0.51348
  Beta virt. eigenvalues --   -0.39137  -0.38639  -0.26877  -0.25044  -0.21393
  Beta virt. eigenvalues --   -0.14429  -0.14263  -0.12528  -0.10114  -0.09566
  Beta virt. eigenvalues --   -0.08760  -0.07037  -0.06833  -0.06457  -0.04401

 Mulliken charges and spin densities:
               1          2
     1  C   -0.045311  -0.024771
     2  C   -0.278532   0.028803
     3  H    0.206545   0.054932
     4  H    0.236487   0.028043
     5  H    0.236487   0.028043
     6  C    0.017331   2.407235
     7  C    0.614690   0.268992
     8  C   -0.199578   0.199236
     9  H    0.211882   0.009488
 Sum of Mulliken charges =   1.00000   3.00000

 Dipole moment (field-independent basis, Debye):
    X=              0.1512    Y=              0.1526    Z=              0.0000  Tot=              0.2148
 Quadrupole moment (field-independent basis, Debye-Ang):
   XX=             -8.8727   YY=            -21.7455   ZZ=            -26.1668
   XY=             -2.3851   XZ=              0.0025   YZ=             -0.0002

  Exact polarizability:  91.846   1.962  51.986   0.009   0.001  33.017
 Approx polarizability: 139.614   3.677  87.034   0.014   0.002  47.856

                      1                      2                      3
                      A                      A                      A
 Frequencies --    154.4381               213.3784               285.2836
 Red. masses --      5.0299                 2.2795                 1.1032
 Frc consts  --      0.0707                 0.0612                 0.0529
 IR Inten    --      1.5886                 3.8711                 0.1625

                      4                      5                      6
                      A                      A                      A
 Frequencies --    382.3549               416.9056               690.0343
 Red. masses --      7.1107                 2.0023                 6.7027
 Frc consts  --      0.6125                 0.2051                 1.8804
 IR Inten    --      8.0898                 4.1211                 1.0661

                      7                      8                      9
                      A                      A                      A
 Frequencies --    789.9903               887.3617               904.1240
 Red. masses --      1.2508                 1.8094                 1.3155
 Frc consts  --      0.4599                 0.8395                 0.6336
 IR Inten    --     29.0197                14.5542                47.4199

                     10                     11                     12
                      A                      A                      A
 Frequencies --    955.5881               962.1722              1147.8342
 Red. masses --      1.5497                 3.5801                 1.7510
 Frc consts  --      0.8337                 1.9528                 1.3592
 IR Inten    --      0.8506                 3.1740                22.6437

                     13                     14                     15
                      A                      A                      A
 Frequencies --   1264.7146              1336.1496              1398.1319
 Red. masses --      1.4679                 1.1303                 2.2172
 Frc consts  --      1.3834                 1.1889                 2.5536
 IR Inten    --      0.8170                39.6756                28.1375

                     16                     17                     18
                      A                      A                      A
 Frequencies --   1444.7746              1951.7160              3077.5008
 Red. masses --      3.5185                 9.7454                 1.0609
 Frc consts  --      4.3272                21.8718                 5.9200
 IR Inten    --      0.3464               215.9700               172.5576

                     19                     20                     21
                      A                      A                      A
 Frequencies --   3090.2002              3135.7421              3147.9276
 Red. masses --      1.0863                 1.0888                 1.1110
 Frc consts  --      6.1116                 6.3080                 6.4867
 IR Inten    --     12.2653                26.4187                58.0504

 - Thermochemistry -
 -------------------
 Temperature   298.150 Kelvin.  Pressure   1.00000 Atm.
 Atom     1 has atomic number  6 and mass  12.00000

 Molecular mass:    64.03130 amu.
 Principal axes and moments of inertia in atomic units:
                           1         2         3
     Eigenvalues --   124.79216 507.07477 619.40362
           X            0.99873  -0.05032  -0.00015
           Y            0.05032   0.99873  -0.00005
           Z            0.00015   0.00004   1.00000
 This molecule is an asymmetric top.
 Rotational symmetry number  1.
 Rotational temperatures (Kelvin)      0.69406     0.17081     0.13983
 Rotational constants (GHZ):          14.46198     3.55912     2.91368
 Zero-point vibrational energy     165301.9 (Joules/Mol)
                                   39.50811 (Kcal/Mol)
 Warning -- explicit consideration of   5 degrees of freedom as
           vibrations may cause significant error
 Vibrational temperatures:    222.20   307.00   410.46   550.12   599.83
          (Kelvin)            992.80  1136.62  1276.71  1300.83  1374.88
                             1384.35  1651.48  1819.64  1922.42  2011.60
                             2078.71  2808.08  4427.83  4446.10  4511.63
                             4529.16

 Zero-point correction=                           0.062960 (Hartree/Particle)
 Thermal correction to Energy=                    0.068479
 Thermal correction to Enthalpy=                  0.069424
 Thermal correction to Gibbs Free Energy=         0.033520
 Sum of electronic and zero-point Energies=           -192.346630
 Sum of electronic and thermal Energies=              -192.341111
 Sum of electronic and thermal Enthalpies=            -192.340167
 Sum of electronic and thermal Free Energies=         -192.376070

                     E (Thermal)             CV                S
                      KCal/Mol        Cal/Mol-Kelvin    Cal/Mol-Kelvin
 Total                   42.971             18.450             75.565
 Electronic               0.000              0.000              2.755
 Translational            0.889              2.981             38.389
 Rotational               0.889              2.981             25.175
 Vibrational             41.194             12.489              9.245
 Vibration     1          0.620              1.898              2.617
 Vibration     2          0.644              1.821              2.015
 Vibration     3          0.683              1.701              1.502
 Vibration     4          0.752              1.508              1.030
 Vibration     5          0.780              1.434              0.903

 Optimization completed.
    -- Stationary point found.
 Normal termination of Gaussian 09 at Wed Jul 20 15:41:50 2016.
