 Gaussian 09, Revision E.01,
 Gaussian 09:  EM64L-G09RevE.01 30-Nov-2015

 ---------------------------------------------
 #p b3lyp/6-311++G(3df,2p) freq symmetry=Loose
 ---------------------------------------------

 ---------
 b3lyp opt
 ---------
 Symbolic Z-matrix:
 Charge =  0 Multiplicity = 3

                         Standard orientation:
 ---------------------------------------------------------------------
 Center     Atomic      Atomic             Coordinates (Angstroms)
 Number     Number       Type             X           Y           Z
 ---------------------------------------------------------------------
      1          6           0        0.630503   -1.237035   -0.184485
      2          6           0       -1.656347    0.035256    0.105753
      3          1           0       -1.776661    0.439860    1.113905
      4          1           0       -2.176129    0.705445   -0.580538
      5          1           0       -2.101347   -0.954815    0.058453
      6          6           0       -0.204128   -0.022207   -0.247277
      7          6           0        0.796763    1.015068   -0.167994
      8          1           0        0.856213    2.077303   -0.011151
      9          6           0        1.299529   -0.169048    0.397224
 ---------------------------------------------------------------------

 SCF Done:  E(UB3LYP) =  -192.715818647     A.U. after   17 cycles

 The electronic state is 3-A.
 Alpha  occ. eigenvalues --  -10.27277 -10.25211 -10.23085 -10.20055 -10.19865
 Alpha  occ. eigenvalues --   -0.97737  -0.77039  -0.70646  -0.57774  -0.52967
 Alpha  occ. eigenvalues --   -0.48137  -0.46159  -0.44648  -0.39266  -0.38102
 Alpha  occ. eigenvalues --   -0.28480  -0.25010  -0.21585
 Alpha virt. eigenvalues --   -0.03615  -0.01258  -0.00763   0.00904   0.02415
 Alpha virt. eigenvalues --    0.03348   0.04593   0.05240   0.06605   0.07253
 Alpha virt. eigenvalues --    0.07810   0.09434   0.10377   0.10885   0.11399

  Beta  occ. eigenvalues --  -10.26850 -10.24277 -10.21988 -10.19986 -10.18856
  Beta  occ. eigenvalues --   -0.95972  -0.76495  -0.68033  -0.55842  -0.51518
  Beta  occ. eigenvalues --   -0.45926  -0.45475  -0.42446  -0.37124  -0.36474
  Beta  occ. eigenvalues --   -0.25207
  Beta virt. eigenvalues --   -0.13070  -0.09609  -0.01684  -0.01024   0.00757
  Beta virt. eigenvalues --    0.01952   0.03023   0.03718   0.04887   0.05823
  Beta virt. eigenvalues --    0.07205   0.08061   0.08196   0.09670   0.10587

 Mulliken charges and spin densities:
               1          2
     1  C   -0.639982   0.543811
     2  C   -0.388473   0.023015
     3  H    0.165865   0.016769
     4  H    0.156740   0.003572
     5  H    0.161911  -0.000803
     6  C    0.490240   0.189570
     7  C   -0.383067   0.701252
     8  H    0.198880   0.010972
     9  C    0.237887   0.511841
 Sum of Mulliken charges =  -0.00000   2.00000

 Dipole moment (field-independent basis, Debye):
    X=             -1.9468    Y=              3.2745    Z=              0.4576  Tot=              3.8369
 Quadrupole moment (field-independent basis, Debye-Ang):
   XX=            -28.6252   YY=            -33.2731   ZZ=            -31.3071
   XY=              2.0059   XZ=             -0.0262   YZ=             -0.5866

  Exact polarizability:  62.547   0.113  68.224   1.980   1.063  45.005
 Approx polarizability:  94.450   0.461 116.570   9.820   1.352  69.284

                      1                      2                      3
                      A                      A                      A
 Frequencies --     75.6826               320.7327               352.1651
 Red. masses --      1.0727                 3.9803                 2.5427
 Frc consts  --      0.0036                 0.2412                 0.1858
 IR Inten    --      0.3434                 3.4797                 7.9821

                      4                      5                      6
                      A                      A                      A
 Frequencies --    505.5411               567.4137               668.6605
 Red. masses --      1.5853                 4.8955                 3.5686
 Frc consts  --      0.2387                 0.9286                 0.9401
 IR Inten    --     10.6639                47.4884                16.3239

                      7                      8                      9
                      A                      A                      A
 Frequencies --    727.1440               827.7295               974.3286
 Red. masses --      4.5792                 4.4176                 1.7903
 Frc consts  --      1.4265                 1.7832                 1.0013
 IR Inten    --     15.4465                 3.3111                11.1228

                     10                     11                     12
                      A                      A                      A
 Frequencies --   1015.8713              1070.4299              1175.2537
 Red. masses --      1.5001                 1.6082                 3.3296
 Frc consts  --      0.9121                 1.0857                 2.7096
 IR Inten    --      4.2795                 3.1037                10.3095

                     13                     14                     15
                      A                      A                      A
 Frequencies --   1239.2437              1378.0861              1389.5345
 Red. masses --      6.3007                 5.8780                 1.2741
 Frc consts  --      5.7010                 6.5771                 1.4494
 IR Inten    --     27.4523                19.8873                 7.4837

                     16                     17                     18
                      A                      A                      A
 Frequencies --   1467.2161              1482.4441              3023.0056
 Red. masses --      1.0555                 1.0491                 1.0380
 Frc consts  --      1.3387                 1.3584                 5.5888
 IR Inten    --      9.6017                 9.9031                 7.1491

                     19                     20                     21
                      A                      A                      A
 Frequencies --   3081.2627              3134.4693              3252.8025
 Red. masses --      1.0973                 1.1013                 1.1009
 Frc consts  --      6.1382                 6.3752                 6.8629
 IR Inten    --      5.8585                 4.1486                 0.3821

 - Thermochemistry -
 -------------------
 Temperature   298.150 Kelvin.  Pressure   1.00000 Atm.
 Atom     1 has atomic number  6 and mass  12.00000

 Molecular mass:    64.03130 amu.
 Principal axes and moments of inertia in atomic units:
                           1         2         3
     Eigenvalues --   150.07001 299.75136 413.49418
           X            0.99946   0.03045  -0.01204
           Y           -0.03045   0.99954   0.00020
           Z            0.01204   0.00017   0.99993
 This molecule is an asymmetric top.
 Rotational symmetry number  1.
 Rotational temperatures (Kelvin)      0.57716     0.28895     0.20947
 Rotational constants (GHZ):          12.02599     6.02079     4.36461
 Zero-point vibrational energy     165856.4 (Joules/Mol)
                                   39.64062 (Kcal/Mol)
 Warning -- explicit consideration of   5 degrees of freedom as
           vibrations may cause significant error
 Vibrational temperatures:    108.89   461.46   506.69   727.36   816.38
          (Kelvin)            962.05  1046.20  1190.92  1401.84  1461.61
                             1540.11  1690.93  1782.99  1982.76  1999.23
                             2110.99  2132.90  4349.43  4433.24  4509.80
                             4680.05

 Zero-point correction=                           0.063171 (Hartree/Particle)
 Thermal correction to Energy=                    0.068401
 Thermal correction to Enthalpy=                  0.069345
 Thermal correction to Gibbs Free Energy=         0.034262
 Sum of electronic and zero-point Energies=           -192.652647
 Sum of electronic and thermal Energies=              -192.647418
 Sum of electronic and thermal Enthalpies=            -192.646474
 Sum of electronic and thermal Free Energies=         -192.681556

                     E (Thermal)             CV                S
                      KCal/Mol        Cal/Mol-Kelvin    Cal/Mol-Kelvin
 Total                   42.922             17.608             73.838
 Electronic               0.000              0.000              2.183
 Translational            0.889              2.981             38.389
 Rotational               0.889              2.981             24.435
 Vibrational             41.145             11.647              8.831
 Vibration     1          0.599              1.965              4.000
 Vibration     2          0.706              1.634              1.306
 Vibration     3          0.729              1.571              1.156
 Vibration     4          0.861              1.238              0.644
 Vibration     5          0.923              1.102              0.509

 Normal termination of Gaussian 09 at Mon Jun 20 02:30:37 2016.
