 Gaussian 09, Revision E.01,
 Gaussian 09:  EM64L-G09RevE.01 30-Nov-2015

 ------------------------------------------------------
 #p b3lyp/6-311++G(3df,2p) freq IOp(2/17=3) IOp(2/18=3)
 ------------------------------------------------------

 ---------
 b3lyp opt
 ---------
 Symbolic Z-matrix:
 Charge =  3 Multiplicity = 4

                         Standard orientation:
 ---------------------------------------------------------------------
 Center     Atomic      Atomic             Coordinates (Angstroms)
 Number     Number       Type             X           Y           Z
 ---------------------------------------------------------------------
      1          6           0        1.358733   -0.069007    0.000000
      2          1           0        1.590324   -1.189841    0.000000
      3          1           0       -0.082617    1.293181    0.870214
      4          6           0        0.000000    0.548814    0.000000
      5          6           0        2.571211    0.409780    0.000000
      6          1           0       -0.082617    1.293181   -0.870214
      7          6           0       -1.209029   -0.200401    0.000000
      8          6           0       -2.391004   -0.724166    0.000000
      9          1           0       -3.404353   -1.186821    0.000000
 ---------------------------------------------------------------------

 SCF Done:  E(UB3LYP) =  -191.020966082     A.U. after   16 cycles

 The electronic state is 4-A".
 Alpha  occ. eigenvalues --  -11.05074 -10.99117 -10.98931 -10.93168 -10.92430
 Alpha  occ. eigenvalues --   -1.55199  -1.51721  -1.43720  -1.24953  -1.20778
 Alpha  occ. eigenvalues --   -1.18338  -1.13244  -1.12072  -1.07732  -1.02864
 Alpha  occ. eigenvalues --   -1.02098  -0.98480
 Alpha virt. eigenvalues --   -0.80578  -0.71323  -0.69274  -0.68868  -0.54375
 Alpha virt. eigenvalues --   -0.51595  -0.48605  -0.46231  -0.45584  -0.42974
 Alpha virt. eigenvalues --   -0.40686  -0.39925  -0.39045  -0.38226  -0.36899

  Beta  occ. eigenvalues --  -11.02246 -10.97957 -10.97644 -10.92897 -10.92290
  Beta  occ. eigenvalues --   -1.52615  -1.47207  -1.40391  -1.22800  -1.18770
  Beta  occ. eigenvalues --   -1.17225  -1.10637  -1.09541  -0.96195
  Beta virt. eigenvalues --   -0.88658  -0.88463  -0.85111  -0.76116  -0.64697
  Beta virt. eigenvalues --   -0.64503  -0.64475  -0.51861  -0.51140  -0.47551
  Beta virt. eigenvalues --   -0.44890  -0.44503  -0.42328  -0.40391  -0.39446

 Mulliken charges and spin densities:
               1          2
     1  C    0.305617   0.115321
     2  H    0.292944  -0.004523
     3  H    0.355300   0.096023
     4  C   -0.069995  -0.012315
     5  C    0.284743   1.242782
     6  H    0.355300   0.096023
     7  C    0.347615   0.694028
     8  C    0.628709   0.795848
     9  H    0.499765  -0.023186
 Sum of Mulliken charges =   3.00000   3.00000

 Dipole moment (field-independent basis, Debye):
    X=             -0.9431    Y=             -0.6289    Z=              0.0000  Tot=              1.1336
 Quadrupole moment (field-independent basis, Debye-Ang):
   XX=             45.2467   YY=            -10.2866   ZZ=            -21.8646
   XY=             12.6437   XZ=             -0.0000   YZ=              0.0000

  Exact polarizability: 135.227  20.134  37.367  -0.000   0.000  27.385
 Approx polarizability: 307.265  59.680  66.314  -0.000   0.000  38.543

                      1                      2                      3
                     A"                     A'                     A"
 Frequencies --    128.2968               183.3618               292.7490
 Red. masses --      2.5903                 4.1670                 2.1581
 Frc consts  --      0.0251                 0.0825                 0.1090
 IR Inten    --      0.8940                 7.8517                58.3457

                      4                      5                      6
                     A'                     A"                     A'
 Frequencies --    338.6827               472.1176               493.3971
 Red. masses --      5.8855                 1.7738                 4.6245
 Frc consts  --      0.3978                 0.2330                 0.6633
 IR Inten    --      8.3181                43.3045                10.6400

                      7                      8                      9
                     A"                     A'                     A"
 Frequencies --    688.0295               727.7087               736.0819
 Red. masses --      1.2639                 1.4346                 2.3642
 Frc consts  --      0.3525                 0.4476                 0.7547
 IR Inten    --     28.1447                11.6868                 1.9739

                     10                     11                     12
                     A'                     A'                     A'
 Frequencies --    786.8556               951.1466              1001.6361
 Red. masses --      3.7539                 1.5095                 1.5668
 Frc consts  --      1.3694                 0.8046                 0.9261
 IR Inten    --      2.5855                16.5871               132.4895

                     13                     14                     15
                     A"                     A'                     A'
 Frequencies --   1064.0830              1078.5501              1206.3630
 Red. masses --      1.0754                 1.0589                 2.2220
 Frc consts  --      0.7174                 0.7257                 1.9053
 IR Inten    --      3.2042               137.2710               633.8074

                     16                     17                     18
                     A'                     A'                     A"
 Frequencies --   1530.3184              1793.8064              2476.4561
 Red. masses --      6.4164                 6.3939                 1.0758
 Frc consts  --      8.8533                12.1218                 3.8873
 IR Inten    --   1369.6899               591.7797               313.1517

                     19                     20                     21
                     A'                     A'                     A'
 Frequencies --   2550.1571              2620.4856              2960.0341
 Red. masses --      1.0608                 1.0770                 1.1608
 Frc consts  --      4.0644                 4.3574                 5.9922
 IR Inten    --    496.6071               384.1015               582.3428

 - Thermochemistry -
 -------------------
 Temperature   298.150 Kelvin.  Pressure   1.00000 Atm.
 Atom     1 has atomic number  6 and mass  12.00000

 Molecular mass:    64.03130 amu.
 Principal axes and moments of inertia in atomic units:
                           1         2         3
     Eigenvalues --    46.25098 752.04160 787.39085
           X            0.98148  -0.19156   0.00000
           Y            0.19156   0.98148   0.00000
           Z            0.00000   0.00000   1.00000
 This molecule is an asymmetric top.
 Rotational symmetry number  1.
 Rotational temperatures (Kelvin)      1.87269     0.11517     0.11000
 Rotational constants (GHZ):          39.02060     2.39979     2.29205
 Zero-point vibrational energy     144032.3 (Joules/Mol)
                                   34.42454 (Kcal/Mol)
 Warning -- explicit consideration of   6 degrees of freedom as
           vibrations may cause significant error
 Vibrational temperatures:    184.59   263.82   421.20   487.29   679.27
          (Kelvin)            709.89   989.92  1047.01  1059.06  1132.11
                             1368.49  1441.13  1530.98  1551.79  1735.69
                             2201.78  2580.88  3563.06  3669.10  3770.29
                             4258.82

 Zero-point correction=                           0.054859 (Hartree/Particle)
 Thermal correction to Energy=                    0.060799
 Thermal correction to Enthalpy=                  0.061743
 Thermal correction to Gibbs Free Energy=         0.025256
 Sum of electronic and zero-point Energies=           -190.966107
 Sum of electronic and thermal Energies=              -190.960168
 Sum of electronic and thermal Enthalpies=            -190.959223
 Sum of electronic and thermal Free Energies=         -190.995710

                     E (Thermal)             CV                S
                      KCal/Mol        Cal/Mol-Kelvin    Cal/Mol-Kelvin
 Total                   38.152             20.394             76.792
 Electronic               0.000              0.000              2.755
 Translational            0.889              2.981             38.389
 Rotational               0.889              2.981             24.819
 Vibrational             36.374             14.432             10.829
 Vibration     1          0.611              1.925              2.971
 Vibration     2          0.631              1.862              2.294
 Vibration     3          0.688              1.687              1.458
 Vibration     4          0.719              1.598              1.218
 Vibration     5          0.829              1.312              0.732
 Vibration     6          0.849              1.265              0.675

 Optimization completed.
    -- Stationary point found.
 Normal termination of Gaussian 09 at Thu Jan 31 08:43:15 2019.
