 Gaussian 09, Revision E.01,
 Gaussian 09:  EM64L-G09RevE.01 30-Nov-2015

 ---------------------------------------------
 #p b3lyp/6-311++G(3df,2p) freq symmetry=Loose
 ---------------------------------------------

 ---------
 b3lyp opt
 ---------
 Symbolic Z-matrix:
 Charge =  1 Multiplicity = 2

                         Standard orientation:
 ---------------------------------------------------------------------
 Center     Atomic      Atomic             Coordinates (Angstroms)
 Number     Number       Type             X           Y           Z
 ---------------------------------------------------------------------
      1          6           0       -0.000037   -1.116094   -0.270955
      2          6           0       -1.048832   -0.125256   -0.229624
      3          1           0       -2.118962   -0.114916   -0.113427
      4          6           0        1.048769   -0.125256   -0.229911
      5          1           0        2.118931   -0.114916   -0.114007
      6          6           0        0.000123    0.125559    0.895720
      7          1           0        0.000270    0.127575    1.971691
      8          6           0       -0.000050    0.926262   -0.365401
      9          1           0       -0.000074    1.990961   -0.543228
 ---------------------------------------------------------------------

 SCF Done:  E(UB3LYP) =  -192.478385848     A.U. after   14 cycles

 The electronic state is 2-A.
 Alpha  occ. eigenvalues --  -10.50108 -10.49393 -10.47396 -10.47384 -10.47353
 Alpha  occ. eigenvalues --   -1.29115  -0.95163  -0.93927  -0.86108  -0.79164
 Alpha  occ. eigenvalues --   -0.74305  -0.67842  -0.66891  -0.66760  -0.57947
 Alpha  occ. eigenvalues --   -0.55724  -0.50104
 Alpha virt. eigenvalues --   -0.22868  -0.17008  -0.16031  -0.14673  -0.14228
 Alpha virt. eigenvalues --   -0.14154  -0.14036  -0.10391  -0.08579  -0.08031
 Alpha virt. eigenvalues --   -0.07297  -0.07226  -0.06141  -0.06062  -0.05079

  Beta  occ. eigenvalues --  -10.49412 -10.48629 -10.47256 -10.47256 -10.47135
  Beta  occ. eigenvalues --   -1.28261  -0.94734  -0.92165  -0.85688  -0.78882
  Beta  occ. eigenvalues --   -0.73088  -0.67128  -0.66078  -0.65763  -0.55522
  Beta  occ. eigenvalues --   -0.55153
  Beta virt. eigenvalues --   -0.35786  -0.21019  -0.16772  -0.15681  -0.14358
  Beta virt. eigenvalues --   -0.14044  -0.13999  -0.13844  -0.10214  -0.08408
  Beta virt. eigenvalues --   -0.08007  -0.07272  -0.06829  -0.06030  -0.05867

 Mulliken charges and spin densities:
               1          2
     1  C   -0.090206   0.953606
     2  C   -0.001638  -0.050506
     3  H    0.271251  -0.001408
     4  C   -0.001639  -0.050506
     5  H    0.271251  -0.001408
     6  C    0.280223  -0.003425
     7  H    0.371160  -0.005185
     8  C   -0.369856   0.125134
     9  H    0.269454   0.033697
 Sum of Mulliken charges =   1.00000   1.00000

 Dipole moment (field-independent basis, Debye):
    X=              0.0002    Y=              1.2000    Z=              1.0974  Tot=              1.6262
 Quadrupole moment (field-independent basis, Debye-Ang):
   XX=            -18.1273   YY=            -23.1482   ZZ=            -23.2829
   XY=             -0.0001   XZ=             -0.0007   YZ=             -0.6949

  Exact polarizability:  41.742   0.002  43.890   0.002   1.188  36.605
 Approx polarizability:  64.866   0.001  75.416  -0.000   5.412  63.598

                      1                      2                      3
                      A                      A                      A
 Frequencies --    413.9134               453.2841               602.7124
 Red. masses --      6.6300                 7.6705                 6.8290
 Frc consts  --      0.6692                 0.9286                 1.4616
 IR Inten    --      3.8195                17.5341                21.8872

                      4                      5                      6
                      A                      A                      A
 Frequencies --    808.2246               819.6261               840.5387
 Red. masses --      1.2067                 1.0760                 1.3129
 Frc consts  --      0.4644                 0.4259                 0.5465
 IR Inten    --     42.3415                 0.0541                19.2463

                      7                      8                      9
                      A                      A                      A
 Frequencies --    928.6282               935.7085               956.9738
 Red. masses --      1.2602                 1.9110                 1.9064
 Frc consts  --      0.6403                 0.9858                 1.0287
 IR Inten    --     12.3904                 6.3126                11.1020

                     10                     11                     12
                      A                      A                      A
 Frequencies --   1020.0530              1035.0006              1035.1556
 Red. masses --      1.2980                 4.5159                 1.7506
 Frc consts  --      0.7958                 2.8502                 1.1052
 IR Inten    --      4.6697                10.6119                 9.6978

                     13                     14                     15
                      A                      A                      A
 Frequencies --   1108.5040              1139.5601              1290.9752
 Red. masses --      1.3207                 2.3186                 4.7028
 Frc consts  --      0.9562                 1.7740                 4.6179
 IR Inten    --      0.2189                35.5661                 0.6340

                     16                     17                     18
                      A                      A                      A
 Frequencies --   1301.8468              1336.5525              3230.9483
 Red. masses --      4.3513                 3.2840                 1.1002
 Frc consts  --      4.3450                 3.4564                 6.7669
 IR Inten    --      9.3944                12.7840                70.4692

                     19                     20                     21
                      A                      A                      A
 Frequencies --   3271.7015              3274.0041              3283.4750
 Red. masses --      1.1030                 1.1001                 1.1128
 Frc consts  --      6.9560                 6.9476                 7.0683
 IR Inten    --     38.7706                99.7174                53.4251

 - Thermochemistry -
 -------------------
 Temperature   298.150 Kelvin.  Pressure   1.00000 Atm.
 Atom     1 has atomic number  6 and mass  12.00000

 Molecular mass:    64.03130 amu.
 Principal axes and moments of inertia in atomic units:
                           1         2         3
     Eigenvalues --   169.23159 189.26458 233.15333
           X            1.00000   0.00001   0.00014
           Y            0.00000   0.99806  -0.06218
           Z           -0.00014   0.06218   0.99806
 This molecule is an asymmetric top.
 Rotational symmetry number  1.
 Rotational temperatures (Kelvin)      0.51181     0.45763     0.37149
 Rotational constants (GHZ):          10.66433     9.53555     7.74058
 Zero-point vibrational energy     173981.2 (Joules/Mol)
                                   41.58251 (Kcal/Mol)
 Warning -- explicit consideration of   3 degrees of freedom as
           vibrations may cause significant error
 Vibrational temperatures:    595.53   652.17   867.17  1162.85  1179.26
          (Kelvin)           1209.35  1336.09  1346.27  1376.87  1467.63
                             1489.13  1489.36  1594.89  1639.57  1857.42
                             1873.06  1923.00  4648.61  4707.24  4710.56
                             4724.18

 Zero-point correction=                           0.066266 (Hartree/Particle)
 Thermal correction to Energy=                    0.070346
 Thermal correction to Enthalpy=                  0.071290
 Thermal correction to Gibbs Free Energy=         0.039549
 Sum of electronic and zero-point Energies=           -192.412120
 Sum of electronic and thermal Energies=              -192.408040
 Sum of electronic and thermal Enthalpies=            -192.407096
 Sum of electronic and thermal Free Energies=         -192.438837

                     E (Thermal)             CV                S
                      KCal/Mol        Cal/Mol-Kelvin    Cal/Mol-Kelvin
 Total                   44.143             14.954             66.805
 Electronic               0.000              0.000              1.377
 Translational            0.889              2.981             38.389
 Rotational               0.889              2.981             23.528
 Vibrational             42.365              8.992              3.511
 Vibration     1          0.778              1.440              0.913
 Vibration     2          0.812              1.354              0.786
 Vibration     3          0.961              1.026              0.445

 Optimization completed.
    -- Stationary point found.
 Normal termination of Gaussian 09 at Wed Jul 20 11:33:35 2016.
