 Gaussian 09, Revision E.01,
 Gaussian 09:  EM64L-G09RevE.01 30-Nov-2015

 ------------------------------------------------------
 #p b3lyp/6-311++G(3df,2p) freq IOp(2/17=3) IOp(2/18=3)
 ------------------------------------------------------

 ---------
 b3lyp opt
 ---------
 Symbolic Z-matrix:
 Charge =  0 Multiplicity = 1

                         Standard orientation:
 ---------------------------------------------------------------------
 Center     Atomic      Atomic             Coordinates (Angstroms)
 Number     Number       Type             X           Y           Z
 ---------------------------------------------------------------------
      1          6           0       -1.238527    0.354420    0.000000
      2          1           0       -1.851227    0.593880    0.875247
      3          1           0       -1.851227    0.593880   -0.875247
      4          6           0       -0.553580   -0.950274    0.000000
      5          6           0        0.646400   -1.227934    0.000000
      6          6           0        0.000000    1.237539    0.000000
      7          6           0        1.162587    0.233254    0.000000
      8          1           0        1.800590    0.465105   -0.862185
      9          1           0        1.800590    0.465105    0.862185
 ---------------------------------------------------------------------

 SCF Done:  E(RB3LYP) =  -192.684213678     A.U. after   15 cycles

 The electronic state is 1-A'.
 Alpha  occ. eigenvalues --  -10.24481 -10.23486 -10.22890 -10.20801 -10.16661
 Alpha  occ. eigenvalues --   -0.89370  -0.75415  -0.71461  -0.57019  -0.51362
 Alpha  occ. eigenvalues --   -0.49236  -0.45126  -0.44168  -0.38224  -0.29392
 Alpha  occ. eigenvalues --   -0.28674  -0.22633
 Alpha virt. eigenvalues --   -0.11499  -0.11026  -0.01195   0.01144   0.01329
 Alpha virt. eigenvalues --    0.02583   0.04058   0.04642   0.05128   0.06190
 Alpha virt. eigenvalues --    0.06707   0.08837   0.10398   0.11027   0.11733

 Mulliken charges:
               1
     1  C   -0.176780
     2  H    0.175824
     3  H    0.175824
     4  C    0.545437
     5  C   -0.496777
     6  C   -0.424767
     7  C   -0.128256
     8  H    0.164747
     9  H    0.164747
 Sum of Mulliken charges =  -0.00000

 Dipole moment (field-independent basis, Debye):
    X=             -1.3796    Y=              0.6981    Z=             -0.0000  Tot=              1.5461
 Quadrupole moment (field-independent basis, Debye-Ang):
   XX=            -25.3578   YY=            -40.8316   ZZ=            -28.9057
   XY=              1.9596   XZ=             -0.0000   YZ=             -0.0000

  Exact polarizability:  65.858  -4.584  67.793   0.000  -0.000  43.995
 Approx polarizability: 121.719 -12.869 100.807   0.000   0.000  68.007

                      1                      2                      3
                     A"                     A'                     A"
 Frequencies --    154.2342               181.8218               243.3956
 Red. masses --      1.5362                 9.8790                 2.8937
 Frc consts  --      0.0215                 0.1924                 0.1010
 IR Inten    --     39.0981               177.1239                 2.6842

                      4                      5                      6
                     A"                     A'                     A"
 Frequencies --    532.9845               627.2526               774.2495
 Red. masses --      1.6243                 7.2619                 2.2391
 Frc consts  --      0.2719                 1.6834                 0.7908
 IR Inten    --      0.1846                 2.6724                16.7784

                      7                      8                      9
                     A'                     A'                     A'
 Frequencies --    814.0571               892.4947               951.3795
 Red. masses --      3.8077                 4.7798                 5.3407
 Frc consts  --      1.4867                 2.2432                 2.8481
 IR Inten    --      6.9830                24.3583                31.7735

                     10                     11                     12
                     A'                     A"                     A"
 Frequencies --   1004.7221              1062.8295              1111.2865
 Red. masses --      6.7669                 1.0760                 1.0805
 Frc consts  --      4.0247                 0.7162                 0.7862
 IR Inten    --     17.6028                 1.9278                 8.3916

                     13                     14                     15
                     A'                     A'                     A'
 Frequencies --   1174.8579              1223.6711              1355.9248
 Red. masses --      1.3956                 1.4341                 1.0666
 Frc consts  --      1.1350                 1.2652                 1.1553
 IR Inten    --     25.8513                 3.2457                17.8000

                     16                     17                     18
                     A'                     A'                     A'
 Frequencies --   1392.0960              1988.0068              2994.7340
 Red. masses --      1.0825                11.1619                 1.0596
 Frc consts  --      1.2360                25.9912                 5.5990
 IR Inten    --     18.3110                62.2085                 7.7135

                     19                     20                     21
                     A"                     A'                     A"
 Frequencies --   3014.8688              3023.8013              3045.6140
 Red. masses --      1.0951                 1.0602                 1.0984
 Frc consts  --      5.8647                 5.7114                 6.0031
 IR Inten    --      0.2591                14.3272                 1.9301

 - Thermochemistry -
 -------------------
 Temperature   298.150 Kelvin.  Pressure   1.00000 Atm.
 Atom     1 has atomic number  6 and mass  12.00000

 Molecular mass:    64.03130 amu.
 Principal axes and moments of inertia in atomic units:
                           1         2         3
     Eigenvalues --   179.12433 225.80560 383.20028
           X            0.85889   0.51216   0.00000
           Y           -0.51216   0.85889   0.00000
           Z           -0.00000   0.00000   1.00000
 This molecule is an asymmetric top.
 Rotational symmetry number  1.
 Rotational temperatures (Kelvin)      0.48354     0.38358     0.22603
 Rotational constants (GHZ):          10.07536     7.99246     4.70966
 Zero-point vibrational energy     164871.0 (Joules/Mol)
                                   39.40512 (Kcal/Mol)
 Warning -- explicit consideration of   4 degrees of freedom as
           vibrations may cause significant error
 Vibrational temperatures:    221.91   261.60   350.19   766.84   902.48
          (Kelvin)           1113.97  1171.25  1284.10  1368.82  1445.57
                             1529.17  1598.89  1690.36  1760.59  1950.87
                             2002.91  2860.29  4308.75  4337.72  4350.57
                             4381.95

 Zero-point correction=                           0.062796 (Hartree/Particle)
 Thermal correction to Energy=                    0.068097
 Thermal correction to Enthalpy=                  0.069041
 Thermal correction to Gibbs Free Energy=         0.035132
 Sum of electronic and zero-point Energies=           -192.621418
 Sum of electronic and thermal Energies=              -192.616117
 Sum of electronic and thermal Enthalpies=            -192.615172
 Sum of electronic and thermal Free Energies=         -192.649081

                     E (Thermal)             CV                S
                      KCal/Mol        Cal/Mol-Kelvin    Cal/Mol-Kelvin
 Total                   42.732             17.528             71.367
 Electronic               0.000              0.000              0.000
 Translational            0.889              2.981             38.389
 Rotational               0.889              2.981             24.253
 Vibrational             40.954             11.566              8.725
 Vibration     1          0.620              1.898              2.619
 Vibration     2          0.630              1.864              2.310
 Vibration     3          0.659              1.774              1.778
 Vibration     4          0.888              1.177              0.581

 Normal termination of Gaussian 09 at Thu Jan 31 06:38:58 2019.
