 Gaussian 09, Revision E.01,
 Gaussian 09:  EM64L-G09RevE.01 30-Nov-2015

 ------------------------------------------------------
 #p b3lyp/6-311++G(3df,2p) freq IOp(2/17=3) IOp(2/18=3)
 ------------------------------------------------------

 ---------
 b3lyp opt
 ---------
 Symbolic Z-matrix:
 Charge =  1 Multiplicity = 2

                         Standard orientation:
 ---------------------------------------------------------------------
 Center     Atomic      Atomic             Coordinates (Angstroms)
 Number     Number       Type             X           Y           Z
 ---------------------------------------------------------------------
      1          6           0       -0.232946   -0.625001   -0.900798
      2          1           0       -0.865859   -0.747813   -1.773599
      3          6           0        0.000000    0.493847    0.000000
      4          6           0        0.288431   -1.569575   -0.000000
      5          6           0        0.318601    1.796658    0.000000
      6          1           0        0.441579    2.335126    0.929152
      7          1           0        0.441579    2.335126   -0.929152
      8          6           0       -0.232946   -0.625001    0.900798
      9          1           0       -0.865859   -0.747813    1.773599
 ---------------------------------------------------------------------

 SCF Done:  E(UB3LYP) =  -192.494577743     A.U. after   17 cycles

 The electronic state is 2-A'.
 Alpha  occ. eigenvalues --  -10.49996 -10.49993 -10.48043 -10.45775 -10.41835
 Alpha  occ. eigenvalues --   -1.20651  -0.99486  -0.89929  -0.84873  -0.79197
 Alpha  occ. eigenvalues --   -0.70425  -0.69334  -0.64414  -0.63225  -0.59523
 Alpha  occ. eigenvalues --   -0.54255  -0.48353
 Alpha virt. eigenvalues --   -0.30058  -0.28771  -0.20633  -0.14871  -0.12844
 Alpha virt. eigenvalues --   -0.12311  -0.10593  -0.10570  -0.09408  -0.08583
 Alpha virt. eigenvalues --   -0.06511  -0.05860  -0.04860  -0.04855  -0.02663

  Beta  occ. eigenvalues --  -10.49854 -10.49852 -10.46951 -10.45802 -10.41307
  Beta  occ. eigenvalues --   -1.19826  -0.98184  -0.89540  -0.83325  -0.78926
  Beta  occ. eigenvalues --   -0.69596  -0.68991  -0.63664  -0.62597  -0.59325
  Beta  occ. eigenvalues --   -0.49572
  Beta virt. eigenvalues --   -0.37415  -0.29557  -0.26484  -0.19555  -0.14710
  Beta virt. eigenvalues --   -0.12724  -0.12117  -0.10503  -0.10139  -0.09262
  Beta virt. eigenvalues --   -0.08483  -0.06403  -0.05420  -0.04764  -0.04510

 Mulliken charges and spin densities:
               1          2
     1  C    0.107238   0.053531
     2  H    0.279090   0.001495
     3  C    0.282456  -0.055713
     4  C   -0.155942   0.636558
     5  C   -0.343389   0.329553
     6  H    0.222110  -0.010224
     7  H    0.222110  -0.010224
     8  C    0.107238   0.053531
     9  H    0.279090   0.001495
 Sum of Mulliken charges =   1.00000   1.00000

 Dipole moment (field-independent basis, Debye):
    X=             -1.3532    Y=              0.6107    Z=             -0.0000  Tot=              1.4846
 Quadrupole moment (field-independent basis, Debye-Ang):
   XX=            -26.2593   YY=            -18.5948   ZZ=            -18.1947
   XY=              3.6658   XZ=              0.0000   YZ=              0.0000

  Exact polarizability:  32.806   0.497  90.880   0.000  -0.000  44.999
 Approx polarizability:  50.001  -5.448 167.662   0.000   0.000  75.101

                      1                      2                      3
                     A'                     A"                     A'
 Frequencies --    251.1046               358.2971               435.3084
 Red. masses --      5.0029                 2.4154                 2.6150
 Frc consts  --      0.1859                 0.1827                 0.2920
 IR Inten    --      0.0923                 0.4344                39.1708

                      4                      5                      6
                     A"                     A'                     A"
 Frequencies --    619.7890               705.6136               812.6096
 Red. masses --      1.0323                 5.0277                 4.1293
 Frc consts  --      0.2336                 1.4749                 1.6065
 IR Inten    --      0.0423                12.1557                 0.4017

                      7                      8                      9
                     A'                     A'                     A'
 Frequencies --    906.5382               942.2152               982.5767
 Red. masses --      2.0887                 1.6487                 1.4393
 Frc consts  --      1.0113                 0.8624                 0.8187
 IR Inten    --      0.6761               132.1390                42.0827

                     10                     11                     12
                     A"                     A"                     A"
 Frequencies --   1004.3548              1042.9205              1114.6889
 Red. masses --      1.6930                 1.4346                 1.2639
 Frc consts  --      1.0062                 0.9194                 0.9253
 IR Inten    --      0.5953                 0.0076                 1.2485

                     13                     14                     15
                     A'                     A"                     A'
 Frequencies --   1151.6030              1265.1748              1328.9656
 Red. masses --      1.8644                 4.7080                 3.7979
 Frc consts  --      1.4568                 4.4401                 3.9520
 IR Inten    --     44.2346                16.4131                77.4828

                     16                     17                     18
                     A'                     A'                     A'
 Frequencies --   1460.9303              1635.6724              3157.3009
 Red. masses --      1.1957                 6.5114                 1.0567
 Frc consts  --      1.5036                10.2640                 6.2062
 IR Inten    --     30.9922               119.4323                11.0172

                     19                     20                     21
                     A"                     A'                     A"
 Frequencies --   3184.2748              3186.3826              3258.7436
 Red. masses --      1.0970                 1.1007                 1.1206
 Frc consts  --      6.5537                 6.5846                 7.0112
 IR Inten    --     60.9339                22.7036                10.3636

 - Thermochemistry -
 -------------------
 Temperature   298.150 Kelvin.  Pressure   1.00000 Atm.
 Atom     1 has atomic number  6 and mass  12.00000

 Molecular mass:    64.03130 amu.
 Principal axes and moments of inertia in atomic units:
                           1         2         3
     Eigenvalues --   114.89283 349.87654 431.78623
           X            0.09458   0.00000   0.99552
           Y            0.99552   0.00000  -0.09458
           Z           -0.00000   1.00000  -0.00000
 This molecule is an asymmetric top.
 Rotational symmetry number  1.
 Rotational temperatures (Kelvin)      0.75387     0.24756     0.20059
 Rotational constants (GHZ):          15.70804     5.15822     4.17971
 Zero-point vibrational energy     172292.5 (Joules/Mol)
                                   41.17891 (Kcal/Mol)
 Warning -- explicit consideration of   4 degrees of freedom as
           vibrations may cause significant error
 Vibrational temperatures:    361.28   515.51   626.31   891.74  1015.22
          (Kelvin)           1169.16  1304.30  1355.64  1413.71  1445.04
                             1500.53  1603.79  1656.90  1820.30  1912.08
                             2101.95  2353.36  4542.65  4581.46  4584.49
                             4688.60

 Zero-point correction=                           0.065623 (Hartree/Particle)
 Thermal correction to Energy=                    0.070184
 Thermal correction to Enthalpy=                  0.071129
 Thermal correction to Gibbs Free Energy=         0.038131
 Sum of electronic and zero-point Energies=           -192.428955
 Sum of electronic and thermal Energies=              -192.424393
 Sum of electronic and thermal Enthalpies=            -192.423449
 Sum of electronic and thermal Free Energies=         -192.456447

                     E (Thermal)             CV                S
                      KCal/Mol        Cal/Mol-Kelvin    Cal/Mol-Kelvin
 Total                   44.041             16.090             69.450
 Electronic               0.000              0.000              1.377
 Translational            0.889              2.981             38.389
 Rotational               0.889              2.981             24.366
 Vibrational             42.264             10.128              5.318
 Vibration     1          0.663              1.761              1.723
 Vibration     2          0.733              1.558              1.129
 Vibration     3          0.796              1.393              0.841
 Vibration     4          0.980              0.990              0.417

 Optimization completed.
    -- Stationary point found.
 Normal termination of Gaussian 09 at Thu Jan 31 07:16:20 2019.
