 Gaussian 09, Revision E.01,
 Gaussian 09:  EM64L-G09RevE.01 30-Nov-2015

 ------------------------------------------------------
 #p b3lyp/6-311++G(3df,2p) freq IOp(2/17=3) IOp(2/18=3)
 ------------------------------------------------------

 ---------
 b3lyp opt
 ---------
 Symbolic Z-matrix:
 Charge =  0 Multiplicity = 1

                         Standard orientation:
 ---------------------------------------------------------------------
 Center     Atomic      Atomic             Coordinates (Angstroms)
 Number     Number       Type             X           Y           Z
 ---------------------------------------------------------------------
      1          6           0        0.642279   -0.000000   -1.069484
      2          6           0       -0.642279    0.000000   -1.069484
      3          6           0       -1.210747    0.000000    0.145530
      4          1           0       -2.243356    0.000000    0.455992
      5          6           0        0.000000    0.000000    1.105671
      6          1           0        0.000000    0.873713    1.770601
      7          1           0       -0.000000   -0.873713    1.770601
      8          6           0        1.210747   -0.000000    0.145530
      9          1           0        2.243356   -0.000000    0.455992
 ---------------------------------------------------------------------

 SCF Done:  E(RB3LYP) =  -192.778900087     A.U. after   11 cycles

 The electronic state is 1-A1.
 Alpha  occ. eigenvalues --  -10.20389 -10.20387 -10.20317 -10.19728 -10.19604
 Alpha  occ. eigenvalues --   -0.89001  -0.71937  -0.71587  -0.58483  -0.50082
 Alpha  occ. eigenvalues --   -0.49299  -0.45433  -0.40729  -0.39197  -0.34132
 Alpha  occ. eigenvalues --   -0.25972  -0.23615
 Alpha virt. eigenvalues --   -0.12775  -0.05256  -0.00771   0.01268   0.02246
 Alpha virt. eigenvalues --    0.02426   0.05384   0.05864   0.06537   0.07097
 Alpha virt. eigenvalues --    0.08034   0.09513   0.10416   0.10979   0.11763

 Mulliken charges:
               1
     1  C    0.176289
     2  C    0.176289
     3  C   -0.315133
     4  H    0.185592
     5  C   -0.347583
     6  H    0.127043
     7  H    0.127043
     8  C   -0.315133
     9  H    0.185592
 Sum of Mulliken charges =  -0.00000

 Dipole moment (field-independent basis, Debye):
    X=             -0.0000    Y=              0.0000    Z=              1.9873  Tot=              1.9873
 Quadrupole moment (field-independent basis, Debye-Ang):
   XX=            -28.1366   YY=            -31.5898   ZZ=            -29.9143
   XY=              0.0000   XZ=              0.0000   YZ=              0.0000

  Exact polarizability:  76.079  -0.000  41.366  -0.000   0.000  63.865
 Approx polarizability: 160.802  -0.000  59.587  -0.000  -0.000 105.696

                      1                      2                      3
                     B1                     B2                     A2
 Frequencies --    178.8756               250.9080               558.6429
 Red. masses --     10.1780                 1.6413                10.5357
 Frc consts  --      0.1919                 0.0609                 1.9372
 IR Inten    --    214.7292                 0.2441                 0.0000

                      4                      5                      6
                     B2                     A2                     A1
 Frequencies --    639.8248               732.7474               795.0171
 Red. masses --      1.2641                 1.1597                 5.1478
 Frc consts  --      0.3049                 0.3669                 1.9170
 IR Inten    --     32.0638                 0.0000                 0.5297

                      7                      8                      9
                     A1                     B2                     B1
 Frequencies --    853.2863               886.7417               904.6985
 Red. masses --      3.5577                 1.8819                 2.1707
 Frc consts  --      1.5262                 0.8718                 1.0468
 IR Inten    --      2.1262                26.8469                 5.6743

                     10                     11                     12
                     A2                     A1                     B1
 Frequencies --   1074.3811              1183.8096              1184.6697
 Red. masses --      1.0828                 1.4640                 1.5814
 Frc consts  --      0.7364                 1.2088                 1.3076
 IR Inten    --      0.0000                16.8695                34.7600

                     13                     14                     15
                     B1                     A1                     A1
 Frequencies --   1227.0250              1371.5558              1409.6275
 Red. masses --      1.2914                 2.6108                 1.3265
 Frc consts  --      1.1455                 2.8936                 1.5530
 IR Inten    --     13.0136                17.8714                 5.0830

                     16                     17                     18
                     B1                     A1                     A1
 Frequencies --   1510.4653              1770.6786              2992.7612
 Red. masses --      7.3949                10.6194                 1.0597
 Frc consts  --      9.9405                19.6168                 5.5921
 IR Inten    --     16.6644                 0.1050                12.3234

                     19                     20                     21
                     B2                     B1                     A1
 Frequencies --   3020.6634              3215.5330              3219.9945
 Red. masses --      1.0978                 1.0918                 1.0966
 Frc consts  --      5.9016                 6.6514                 6.6990
 IR Inten    --      2.9617                 7.3951                 4.7145

 - Thermochemistry -
 -------------------
 Temperature   298.150 Kelvin.  Pressure   1.00000 Atm.
 Atom     1 has atomic number  6 and mass  12.00000

 Molecular mass:    64.03130 amu.
 Principal axes and moments of inertia in atomic units:
                           1         2         3
     Eigenvalues --   180.70122 202.71182 372.42346
           X            1.00000   0.00000   0.00000
           Y            0.00000  -0.00000   1.00000
           Z           -0.00000   1.00000   0.00000
 This molecule is an asymmetric top.
 Rotational symmetry number  2.
 Rotational temperatures (Kelvin)      0.47932     0.42728     0.23257
 Rotational constants (GHZ):           9.98743     8.90299     4.84594
 Zero-point vibrational energy     173350.3 (Joules/Mol)
                                   41.43172 (Kcal/Mol)
 Warning -- explicit consideration of   3 degrees of freedom as
           vibrations may cause significant error
 Vibrational temperatures:    257.36   361.00   803.76   920.56  1054.26
          (Kelvin)           1143.85  1227.69  1275.82  1301.66  1545.79
                             1703.24  1704.47  1765.41  1973.36  2028.14
                             2173.22  2547.61  4305.91  4346.06  4626.43
                             4632.85

 Zero-point correction=                           0.066026 (Hartree/Particle)
 Thermal correction to Energy=                    0.070716
 Thermal correction to Enthalpy=                  0.071660
 Thermal correction to Gibbs Free Energy=         0.039686
 Sum of electronic and zero-point Energies=           -192.712874
 Sum of electronic and thermal Energies=              -192.708184
 Sum of electronic and thermal Enthalpies=            -192.707240
 Sum of electronic and thermal Free Energies=         -192.739214

                     E (Thermal)             CV                S
                      KCal/Mol        Cal/Mol-Kelvin    Cal/Mol-Kelvin
 Total                   44.375             15.908             67.295
 Electronic               0.000              0.000              0.000
 Translational            0.889              2.981             38.389
 Rotational               0.889              2.981             22.749
 Vibrational             42.597              9.946              6.157
 Vibration     1          0.629              1.868              2.340
 Vibration     2          0.663              1.761              1.724
 Vibration     3          0.914              1.121              0.527

 Optimization completed.
    -- Stationary point found.
 Normal termination of Gaussian 09 at Thu Jan 31 06:34:13 2019.
