 Gaussian 09, Revision E.01,
 Gaussian 09:  EM64L-G09RevE.01 30-Nov-2015

 ---------------------------------------------
 #p b3lyp/6-311++G(3df,2p) freq symmetry=Loose
 ---------------------------------------------

 ---------
 b3lyp opt
 ---------
 Symbolic Z-matrix:
 Charge =  3 Multiplicity = 2

                         Standard orientation:
 ---------------------------------------------------------------------
 Center     Atomic      Atomic             Coordinates (Angstroms)
 Number     Number       Type             X           Y           Z
 ---------------------------------------------------------------------
      1          1           0       -2.413862   -0.088742   -0.672656
      2          6           0       -0.419059   -1.021783   -0.099613
      3          6           0        0.709127   -0.047217   -0.021849
      4          6           0        2.010924   -0.034383    0.039089
      5          1           0        3.133071   -0.019561    0.113784
      6          6           0       -0.455359    0.908688   -0.024071
      7          1           0       -0.428846    2.019141   -0.167369
      8          6           0       -1.530746   -0.096698    0.058637
      9          1           0       -2.179686   -0.162480    1.013093
 ---------------------------------------------------------------------

 SCF Done:  E(UB3LYP) =  -191.066829611     A.U. after   20 cycles

 The electronic state is 2-A.
 Alpha  occ. eigenvalues --  -11.07144 -11.06133 -11.03777 -10.96857 -10.91755
 Alpha  occ. eigenvalues --   -1.66181  -1.51654  -1.36265  -1.35637  -1.24078
 Alpha  occ. eigenvalues --   -1.18432  -1.16390  -1.14831  -1.13942  -1.04069
 Alpha  occ. eigenvalues --   -0.99583
 Alpha virt. eigenvalues --   -0.87047  -0.86575  -0.83542  -0.65957  -0.54941
 Alpha virt. eigenvalues --   -0.53622  -0.50956  -0.50499  -0.47308  -0.47118
 Alpha virt. eigenvalues --   -0.45781  -0.43753  -0.41148  -0.40002  -0.38777

  Beta  occ. eigenvalues --  -11.05759 -11.05592 -11.03766 -10.96783 -10.91597
  Beta  occ. eigenvalues --   -1.65491  -1.50559  -1.35361  -1.34563  -1.23710
  Beta  occ. eigenvalues --   -1.15916  -1.14833  -1.14568  -1.13554  -1.03925
  Beta virt. eigenvalues --   -0.86891  -0.85884  -0.82608  -0.80552  -0.65354
  Beta virt. eigenvalues --   -0.54260  -0.52881  -0.50501  -0.50246  -0.47012
  Beta virt. eigenvalues --   -0.46887  -0.45483  -0.42500  -0.40872  -0.39816

 Mulliken charges and spin densities:
               1          2
     1  H    0.342321  -0.007362
     2  C    1.029369   0.590508
     3  C   -0.147212   0.105547
     4  C    0.378086   0.266177
     5  H    0.515170  -0.005140
     6  C    0.818397  -0.067025
     7  H    0.419128   0.018931
     8  C   -0.699825   0.104919
     9  H    0.344567  -0.006556
 Sum of Mulliken charges =   3.00000   1.00000

 Dipole moment (field-independent basis, Debye):
    X=              1.7195    Y=              1.1155    Z=              0.3326  Tot=              2.0765
 Quadrupole moment (field-independent basis, Debye-Ang):
   XX=             26.3437   YY=            -11.0638   ZZ=            -20.3171
   XY=             -0.2270   XZ=              0.0351   YZ=             -0.4371

  Exact polarizability:  78.923   1.530  35.714   0.210   0.022  25.167
 Approx polarizability: 196.887   9.110  67.481   0.195   1.003  38.980

                      1                      2                      3
                      A                      A                      A
 Frequencies --    106.4471               288.9164               350.2717
 Red. masses --      1.9743                 2.6068                 3.3357
 Frc consts  --      0.0132                 0.1282                 0.2411
 IR Inten    --     23.9055                26.0203                23.0465

                      4                      5                      6
                      A                      A                      A
 Frequencies --    423.4969               555.7359               659.9109
 Red. masses --      5.8227                 1.2383                 4.8839
 Frc consts  --      0.6153                 0.2253                 1.2531
 IR Inten    --     22.0862                58.2308                49.8909

                      7                      8                      9
                      A                      A                      A
 Frequencies --    702.0041               806.4798               814.9217
 Red. masses --      1.2643                 2.1986                 1.3668
 Frc consts  --      0.3671                 0.8425                 0.5348
 IR Inten    --      6.1924                13.6908                27.7330

                     10                     11                     12
                      A                      A                      A
 Frequencies --    880.5428               951.0489               962.9376
 Red. masses --      3.2758                 1.3972                 1.7483
 Frc consts  --      1.4965                 0.7446                 0.9551
 IR Inten    --     29.1462               525.7187               180.2391

                     13                     14                     15
                      A                      A                      A
 Frequencies --    997.6315              1060.8088              1148.6334
 Red. masses --      1.7297                 1.4262                 1.9761
 Frc consts  --      1.0143                 0.9456                 1.5361
 IR Inten    --     17.6737                 9.2849               131.2623

                     16                     17                     18
                      A                      A                      A
 Frequencies --   1236.5451              1659.1347              2443.2225
 Red. masses --      2.4272                 5.9916                 1.0782
 Frc consts  --      2.1866                 9.7176                 3.7921
 IR Inten    --      0.8846              1042.8407               516.5617

                     19                     20                     21
                      A                      A                      A
 Frequencies --   2570.1843              2839.2148              2865.2471
 Red. masses --      1.0713                 1.1052                 1.1482
 Frc consts  --      4.1695                 5.2493                 5.5538
 IR Inten    --   1136.0660               503.3764               453.9883

 - Thermochemistry -
 -------------------
 Temperature   298.150 Kelvin.  Pressure   1.00000 Atm.
 Atom     1 has atomic number  1 and mass   1.00783

 Molecular mass:    64.03130 amu.
 Principal axes and moments of inertia in atomic units:
                           1         2         3
     Eigenvalues --   101.44123 391.65369 480.85262
           X            0.99999  -0.00504  -0.00147
           Y            0.00501   0.99984  -0.01723
           Z            0.00156   0.01722   0.99985
 This molecule is an asymmetric top.
 Rotational symmetry number  1.
 Rotational temperatures (Kelvin)      0.85383     0.22115     0.18013
 Rotational constants (GHZ):          17.79100     4.60800     3.75321
 Zero-point vibrational energy     145485.9 (Joules/Mol)
                                   34.77195 (Kcal/Mol)
 Warning -- explicit consideration of   5 degrees of freedom as
           vibrations may cause significant error
 Vibrational temperatures:    153.15   415.69   503.96   609.32   799.58
          (Kelvin)            949.46  1010.03  1160.34  1172.49  1266.90
                             1368.35  1385.45  1435.37  1526.27  1652.63
                             1779.11  2387.12  3515.25  3697.92  4084.99
                             4122.45

 Zero-point correction=                           0.055413 (Hartree/Particle)
 Thermal correction to Energy=                    0.060877
 Thermal correction to Enthalpy=                  0.061822
 Thermal correction to Gibbs Free Energy=         0.026989
 Sum of electronic and zero-point Energies=           -191.011417
 Sum of electronic and thermal Energies=              -191.005952
 Sum of electronic and thermal Enthalpies=            -191.005008
 Sum of electronic and thermal Free Energies=         -191.039840

                     E (Thermal)             CV                S
                      KCal/Mol        Cal/Mol-Kelvin    Cal/Mol-Kelvin
 Total                   38.201             19.266             73.311
 Electronic               0.000              0.000              1.377
 Translational            0.889              2.981             38.389
 Rotational               0.889              2.981             24.461
 Vibrational             36.424             13.305              9.083
 Vibration     1          0.605              1.944              3.333
 Vibration     2          0.685              1.694              1.480
 Vibration     3          0.727              1.575              1.165
 Vibration     4          0.786              1.419              0.880
 Vibration     5          0.911              1.127              0.532

 Normal termination of Gaussian 09 at Mon Jun 20 11:27:45 2016.
