 Gaussian 09, Revision E.01,
 Gaussian 09:  EM64L-G09RevE.01 30-Nov-2015

 ------------------------------------------------------
 #p b3lyp/6-311++G(3df,2p) freq IOp(2/17=3) IOp(2/18=3)
 ------------------------------------------------------

 ---------
 b3lyp opt
 ---------
 Symbolic Z-matrix:
 Charge =  0 Multiplicity = 3

                         Standard orientation:
 ---------------------------------------------------------------------
 Center     Atomic      Atomic             Coordinates (Angstroms)
 Number     Number       Type             X           Y           Z
 ---------------------------------------------------------------------
      1          6           0       -0.645714   -0.921838    0.000000
      2          6           0        0.000000    0.983468    0.000000
      3          1           0        0.259035    1.523717    0.904301
      4          1           0        0.259035    1.523717   -0.904301
      5          1           0       -2.013262    0.558192    0.891008
      6          6           0       -1.419440    0.355957    0.000000
      7          1           0       -2.013262    0.558192   -0.891008
      8          6           0        0.668918   -0.481794    0.000000
      9          6           0        1.981019   -0.629762    0.000000
 ---------------------------------------------------------------------

 SCF Done:  E(UB3LYP) =  -192.697156862     A.U. after   18 cycles

 The electronic state is 3-A".
 Alpha  occ. eigenvalues --  -10.24708 -10.24106 -10.22672 -10.21852 -10.19996
 Alpha  occ. eigenvalues --   -0.91255  -0.76092  -0.68601  -0.64424  -0.51555
 Alpha  occ. eigenvalues --   -0.46983  -0.45075  -0.41567  -0.41200  -0.33742
 Alpha  occ. eigenvalues --   -0.30268  -0.25885  -0.21579
 Alpha virt. eigenvalues --   -0.11396  -0.01499   0.00825   0.01162   0.03113
 Alpha virt. eigenvalues --    0.03600   0.05295   0.05383   0.06450   0.06814
 Alpha virt. eigenvalues --    0.08378   0.08997   0.10409   0.11159   0.11719

  Beta  occ. eigenvalues --  -10.24686 -10.21840 -10.21727 -10.21687 -10.20168
  Beta  occ. eigenvalues --   -0.89828  -0.74517  -0.66793  -0.62830  -0.50912
  Beta  occ. eigenvalues --   -0.44673  -0.41829  -0.40997  -0.40450  -0.30521
  Beta  occ. eigenvalues --   -0.28614
  Beta virt. eigenvalues --   -0.12570  -0.09157  -0.08109  -0.01406   0.01038
  Beta virt. eigenvalues --    0.01291   0.03666   0.04322   0.05589   0.06116
  Beta virt. eigenvalues --    0.06733   0.07179   0.08424   0.10491   0.11470

 Mulliken charges and spin densities:
               1          2
     1  C   -0.005077   1.426391
     2  C   -0.397100  -0.028160
     3  H    0.189850   0.006487
     4  H    0.189850   0.006487
     5  H    0.151560   0.030799
     6  C   -0.346309   0.025164
     7  H    0.151560   0.030799
     8  C    0.680741  -0.143160
     9  C   -0.615074   0.645193
 Sum of Mulliken charges =  -0.00000   2.00000

 Dipole moment (field-independent basis, Debye):
    X=             -3.2562    Y=              2.3833    Z=             -0.0000  Tot=              4.0352
 Quadrupole moment (field-independent basis, Debye-Ang):
   XX=            -37.3302   YY=            -29.4929   ZZ=            -30.2284
   XY=              0.9090   XZ=              0.0000   YZ=             -0.0000

  Exact polarizability:  81.408  -5.174  54.585   0.000   0.000  43.251
 Approx polarizability: 137.958  -4.368  83.387   0.000  -0.000  61.824

                      1                      2                      3
                     A"                     A'                     A"
 Frequencies --    188.7249               218.4053               426.8177
 Red. masses --      2.6424                 7.1703                 4.5649
 Frc consts  --      0.0555                 0.2015                 0.4900
 IR Inten    --      0.7930                10.3483                 0.6349

                      4                      5                      6
                     A'                     A'                     A"
 Frequencies --    487.8931               733.0581               798.9453
 Red. masses --      7.6715                 7.6686                 1.1159
 Frc consts  --      1.0759                 2.4280                 0.4197
 IR Inten    --     65.1882                11.1593                 1.9152

                      7                      8                      9
                     A'                     A'                     A"
 Frequencies --    894.4464               974.4820               989.7011
 Red. masses --      3.4865                 6.1635                 1.5073
 Frc consts  --      1.6434                 3.4485                 0.8699
 IR Inten    --      5.5214                10.9863                 0.0208

                     10                     11                     12
                     A"                     A'                     A"
 Frequencies --   1052.5488              1089.2527              1178.5260
 Red. masses --      1.1066                 2.5226                 1.1619
 Frc consts  --      0.7223                 1.7634                 0.9508
 IR Inten    --      0.5345                 4.0606                 0.2158

                     13                     14                     15
                     A'                     A'                     A'
 Frequencies --   1208.3509              1225.9305              1457.3936
 Red. masses --      1.4601                 1.7029                 1.1368
 Frc consts  --      1.2561                 1.5079                 1.4227
 IR Inten    --     12.2440                 1.9214                21.5238

                     16                     17                     18
                     A'                     A'                     A'
 Frequencies --   1485.0978              1529.3865              3046.3038
 Red. masses --      1.1121                 8.1993                 1.0547
 Frc consts  --      1.4451                11.2995                 5.7666
 IR Inten    --      1.3819               128.9255                30.2647

                     19                     20                     21
                     A"                     A'                     A"
 Frequencies --   3086.6777              3088.1852              3173.2561
 Red. masses --      1.1091                 1.0524                 1.1163
 Frc consts  --      6.2259                 5.9135                 6.6225
 IR Inten    --      7.6195                 8.0059                 1.5798

 - Thermochemistry -
 -------------------
 Temperature   298.150 Kelvin.  Pressure   1.00000 Atm.
 Atom     1 has atomic number  6 and mass  12.00000

 Molecular mass:    64.03130 amu.
 Principal axes and moments of inertia in atomic units:
                           1         2         3
     Eigenvalues --   118.30237 353.67454 448.77547
           X            0.95315   0.30249   0.00000
           Y           -0.30249   0.95315   0.00000
           Z            0.00000  -0.00000   1.00000
 This molecule is an asymmetric top.
 Rotational symmetry number  1.
 Rotational temperatures (Kelvin)      0.73214     0.24490     0.19300
 Rotational constants (GHZ):          15.25533     5.10283     4.02148
 Zero-point vibrational energy     169471.3 (Joules/Mol)
                                   40.50460 (Kcal/Mol)
 Warning -- explicit consideration of   4 degrees of freedom as
           vibrations may cause significant error
 Vibrational temperatures:    271.53   314.24   614.09   701.97  1054.71
          (Kelvin)           1149.50  1286.91  1402.06  1423.96  1514.38
                             1567.19  1695.63  1738.55  1763.84  2096.86
                             2136.72  2200.44  4382.95  4441.04  4443.20
                             4565.60

 Zero-point correction=                           0.064548 (Hartree/Particle)
 Thermal correction to Energy=                    0.069443
 Thermal correction to Enthalpy=                  0.070387
 Thermal correction to Gibbs Free Energy=         0.036221
 Sum of electronic and zero-point Energies=           -192.632609
 Sum of electronic and thermal Energies=              -192.627714
 Sum of electronic and thermal Enthalpies=            -192.626770
 Sum of electronic and thermal Free Energies=         -192.660936

                     E (Thermal)             CV                S
                      KCal/Mol        Cal/Mol-Kelvin    Cal/Mol-Kelvin
 Total                   43.576             16.495             71.909
 Electronic               0.000              0.000              2.183
 Translational            0.889              2.981             38.389
 Rotational               0.889              2.981             24.444
 Vibrational             41.799             10.533              6.892
 Vibration     1          0.633              1.855              2.240
 Vibration     2          0.646              1.813              1.972
 Vibration     3          0.788              1.412              0.869
 Vibration     4          0.844              1.277              0.689

 Optimization completed.
    -- Stationary point found.
 Normal termination of Gaussian 09 at Thu Jan 31 06:57:28 2019.
