 Gaussian 09, Revision E.01,
 Gaussian 09:  EM64L-G09RevE.01 30-Nov-2015

 ---------------------------------------------
 #p b3lyp/6-311++G(3df,2p) freq symmetry=Loose
 ---------------------------------------------

 ---------
 b3lyp opt
 ---------
 Symbolic Z-matrix:
 Charge =  3 Multiplicity = 4

                         Standard orientation:
 ---------------------------------------------------------------------
 Center     Atomic      Atomic             Coordinates (Angstroms)
 Number     Number       Type             X           Y           Z
 ---------------------------------------------------------------------
      1          6           0        1.148967    0.262652    0.000084
      2          1           0        1.264200    1.399007    0.000051
      3          6           0       -2.675380   -0.195227   -0.000211
      4          6           0        2.420017   -0.118534    0.000202
      5          1           0        3.524449   -0.287504    0.000298
      6          6           0       -0.108510   -0.416692    0.000007
      7          1           0       -0.112633   -1.509201    0.000047
      8          6           0       -1.322694    0.297340   -0.000119
      9          1           0       -1.450419    1.420464   -0.000171
 ---------------------------------------------------------------------

 SCF Done:  E(UB3LYP) =  -191.021440147     A.U. after   18 cycles

 The electronic state is 4-A.
 Alpha  occ. eigenvalues --  -11.08386 -11.00566 -10.96787 -10.92148 -10.90195
 Alpha  occ. eigenvalues --   -1.54255  -1.50408  -1.39698  -1.24936  -1.21935
 Alpha  occ. eigenvalues --   -1.17449  -1.14786  -1.08919  -1.06645  -1.05763
 Alpha  occ. eigenvalues --   -1.02081  -0.91199
 Alpha virt. eigenvalues --   -0.83465  -0.79353  -0.73182  -0.61769  -0.51728
 Alpha virt. eigenvalues --   -0.49990  -0.49391  -0.45856  -0.44165  -0.41051
 Alpha virt. eigenvalues --   -0.40287  -0.40048  -0.39076  -0.37535  -0.36322

  Beta  occ. eigenvalues --  -11.04875 -10.99565 -10.96015 -10.92084 -10.89677
  Beta  occ. eigenvalues --   -1.51608  -1.46883  -1.36080  -1.22659  -1.19867
  Beta  occ. eigenvalues --   -1.16654  -1.13066  -1.05704  -0.99660
  Beta virt. eigenvalues --   -0.89230  -0.86528  -0.78873  -0.77584  -0.76363
  Beta virt. eigenvalues --   -0.64796  -0.57360  -0.50660  -0.49881  -0.48346
  Beta virt. eigenvalues --   -0.45287  -0.42405  -0.40087  -0.39801  -0.39489

 Mulliken charges and spin densities:
               1          2
     1  C    0.130965   0.098871
     2  H    0.269255  -0.008786
     3  C    0.434825   1.552319
     4  C    0.426218   0.540230
     5  H    0.506907  -0.013184
     6  C    0.325595   0.312966
     7  H    0.263428  -0.008023
     8  C    0.354222   0.527107
     9  H    0.288586  -0.001500
 Sum of Mulliken charges =   3.00000   3.00000

 Dipole moment (field-independent basis, Debye):
    X=              0.3746    Y=              0.7420    Z=              0.0000  Tot=              0.8312
 Quadrupole moment (field-independent basis, Debye-Ang):
   XX=             53.5542   YY=            -12.5155   ZZ=            -24.3445
   XY=             -0.7762   XZ=              0.0064   YZ=             -0.0005

  Exact polarizability: 116.002   0.948  34.020   0.007  -0.000  23.365
 Approx polarizability: 237.795  -2.613  54.256   0.017  -0.001  33.098

                      1                      2                      3
                      A                      A                      A
 Frequencies --    156.5217               204.9400               248.0738
 Red. masses --      4.2829                 3.7368                 1.9968
 Frc consts  --      0.0618                 0.0925                 0.0724
 IR Inten    --     22.1580                24.2577                 0.1079

                      4                      5                      6
                      A                      A                      A
 Frequencies --    342.1011               433.9395               585.5729
 Red. masses --      3.5282                 5.2643                 1.1979
 Frc consts  --      0.2433                 0.5841                 0.2420
 IR Inten    --     12.0283                10.3221                65.7663

                      7                      8                      9
                      A                      A                      A
 Frequencies --    675.7349               701.8467               791.2575
 Red. masses --      4.9338                 1.7075                 1.9293
 Frc consts  --      1.3274                 0.4955                 0.7117
 IR Inten    --    305.5545                 5.3633                25.8170

                     10                     11                     12
                      A                      A                      A
 Frequencies --    817.2406              1036.3338              1066.5342
 Red. masses --      1.7634                 1.6102                 1.7146
 Frc consts  --      0.6939                 1.0189                 1.1491
 IR Inten    --     51.0829                44.4569               138.6118

                     13                     14                     15
                      A                      A                      A
 Frequencies --   1148.6981              1274.6967              1389.9121
 Red. masses --      1.6503                 2.2257                 1.6052
 Frc consts  --      1.2830                 2.1307                 1.8270
 IR Inten    --     61.4890               172.3356               310.3966

                     16                     17                     18
                      A                      A                      A
 Frequencies --   1516.1682              1524.5863              2642.9670
 Red. masses --      3.7930                 1.2499                 1.0783
 Frc consts  --      5.1372                 1.7117                 4.4379
 IR Inten    --     55.5911                37.7077               239.3121

                     19                     20                     21
                      A                      A                      A
 Frequencies --   2736.3217              2916.0609              3090.1824
 Red. masses --      1.0850                 1.1222                 1.0933
 Frc consts  --      4.7862                 5.6221                 6.1514
 IR Inten    --    339.0938               642.9359               125.4382

 - Thermochemistry -
 -------------------
 Temperature   298.150 Kelvin.  Pressure   1.00000 Atm.
 Atom     1 has atomic number  6 and mass  12.00000

 Molecular mass:    64.03130 amu.
 Principal axes and moments of inertia in atomic units:
                           1         2         3
     Eigenvalues --    39.14338 747.26377 786.40715
           X            0.99999  -0.00542  -0.00008
           Y            0.00542   0.99999   0.00004
           Z            0.00008  -0.00004   1.00000
 This molecule is an asymmetric top.
 Rotational symmetry number  1.
 Rotational temperatures (Kelvin)      2.21273     0.11591     0.11014
 Rotational constants (GHZ):          46.10591     2.41513     2.29492
 Zero-point vibrational energy     151325.8 (Joules/Mol)
                                   36.16772 (Kcal/Mol)
 Warning -- explicit consideration of   6 degrees of freedom as
           vibrations may cause significant error
 Vibrational temperatures:    225.20   294.86   356.92   492.21   624.34
          (Kelvin)            842.51   972.23  1009.80  1138.44  1175.83
                             1491.05  1534.50  1652.72  1834.00  1999.77
                             2181.43  2193.54  3802.64  3936.95  4195.56
                             4446.08

 Zero-point correction=                           0.057637 (Hartree/Particle)
 Thermal correction to Energy=                    0.063459
 Thermal correction to Enthalpy=                  0.064403
 Thermal correction to Gibbs Free Energy=         0.028265
 Sum of electronic and zero-point Energies=           -190.963803
 Sum of electronic and thermal Energies=              -190.957981
 Sum of electronic and thermal Enthalpies=            -190.957037
 Sum of electronic and thermal Free Energies=         -190.993175

                     E (Thermal)             CV                S
                      KCal/Mol        Cal/Mol-Kelvin    Cal/Mol-Kelvin
 Total                   39.821             19.798             76.059
 Electronic               0.000              0.000              2.755
 Translational            0.889              2.981             38.389
 Rotational               0.889              2.981             24.646
 Vibrational             38.044             13.836             10.270
 Vibration     1          0.620              1.895              2.591
 Vibration     2          0.640              1.833              2.088
 Vibration     3          0.662              1.766              1.744
 Vibration     4          0.721              1.591              1.202
 Vibration     5          0.795              1.396              0.846
 Vibration     6          0.943              1.063              0.475

 Normal termination of Gaussian 09 at Wed Jul 20 19:27:45 2016.
