 Gaussian 09, Revision E.01,
 Gaussian 09:  EM64L-G09RevE.01 30-Nov-2015

 ---------------------------------------------
 #p b3lyp/6-311++G(3df,2p) freq symmetry=Loose
 ---------------------------------------------

 ---------
 b3lyp opt
 ---------
 Symbolic Z-matrix:
 Charge =  0 Multiplicity = 3

                         Standard orientation:
 ---------------------------------------------------------------------
 Center     Atomic      Atomic             Coordinates (Angstroms)
 Number     Number       Type             X           Y           Z
 ---------------------------------------------------------------------
      1          6           0       -0.549014   -0.001225    0.434900
      2          6           0        0.586904    0.883329   -0.072431
      3          1           0       -0.603735   -0.004545    1.518316
      4          6           0       -1.837174    0.001227   -0.247862
      5          1           0       -1.877855    0.007130   -1.326855
      6          1           0       -2.761723   -0.005678    0.308327
      7          6           0        0.587255   -0.883310   -0.076893
      8          6           0        1.637866    0.000274   -0.072166
      9          1           0        2.688290    0.001321   -0.293075
 ---------------------------------------------------------------------

 SCF Done:  E(UB3LYP) =  -192.730310713     A.U. after   15 cycles

 The electronic state is 3-A.
 Alpha  occ. eigenvalues --  -10.23133 -10.22722 -10.22716 -10.21902 -10.20300
 Alpha  occ. eigenvalues --   -0.94417  -0.77401  -0.65105  -0.57678  -0.55845
 Alpha  occ. eigenvalues --   -0.49556  -0.44367  -0.42256  -0.40323  -0.34701
 Alpha  occ. eigenvalues --   -0.30088  -0.24230  -0.19841
 Alpha virt. eigenvalues --   -0.03911  -0.02947   0.00452   0.00849   0.01612
 Alpha virt. eigenvalues --    0.03999   0.05052   0.06327   0.07365   0.08019
 Alpha virt. eigenvalues --    0.08204   0.08971   0.10556   0.11048   0.11704

  Beta  occ. eigenvalues --  -10.23125 -10.21952 -10.21717 -10.21712 -10.18962
  Beta  occ. eigenvalues --   -0.93197  -0.75434  -0.63287  -0.55309  -0.54779
  Beta  occ. eigenvalues --   -0.48645  -0.43254  -0.40148  -0.39515  -0.32509
  Beta  occ. eigenvalues --   -0.27025
  Beta virt. eigenvalues --   -0.10388  -0.07867  -0.02115  -0.01992   0.00738
  Beta virt. eigenvalues --    0.01204   0.01689   0.04136   0.05669   0.06347
  Beta virt. eigenvalues --    0.08137   0.08314   0.08543   0.09688   0.10687

 Mulliken charges and spin densities:
               1          2
     1  C    0.779110  -0.195243
     2  C   -0.638049   0.630836
     3  H    0.210536  -0.006848
     4  C   -0.817566   1.100577
     5  H    0.200711  -0.027900
     6  H    0.174794  -0.031338
     7  C   -0.637235   0.631118
     8  C    0.466768  -0.101998
     9  H    0.260931   0.000795
 Sum of Mulliken charges =  -0.00000   2.00000

 Dipole moment (field-independent basis, Debye):
    X=             -0.1535    Y=             -0.0030    Z=              0.8138  Tot=              0.8282
 Quadrupole moment (field-independent basis, Debye-Ang):
   XX=            -23.8030   YY=            -36.0650   ZZ=            -29.3248
   XY=              0.0119   XZ=             -0.6188   YZ=             -0.0240

  Exact polarizability:  70.308  -0.004  61.390  -0.360   0.039  43.277
 Approx polarizability:  98.044  -0.015 126.576  -0.572   0.148  62.339

                      1                      2                      3
                      A                      A                      A
 Frequencies --    188.5910               287.4594               340.7471
 Red. masses --      1.0758                 2.7854                 3.2916
 Frc consts  --      0.0225                 0.1356                 0.2252
 IR Inten    --      0.1288                 3.0866                21.7111

                      4                      5                      6
                      A                      A                      A
 Frequencies --    564.2536               587.2115               667.1622
 Red. masses --      2.1219                 4.0480                 2.9720
 Frc consts  --      0.3980                 0.8224                 0.7794
 IR Inten    --      1.6697                21.2879                71.3476

                      7                      8                      9
                      A                      A                      A
 Frequencies --    738.9325               860.0994               911.8006
 Red. masses --      5.5420                 1.3027                 2.4717
 Frc consts  --      1.7829                 0.5678                 1.2107
 IR Inten    --      4.1400                12.5496                 6.0621

                     10                     11                     12
                      A                      A                      A
 Frequencies --    930.6432              1076.8335              1106.3970
 Red. masses --      1.8268                 1.3379                 2.0835
 Frc consts  --      0.9322                 0.9141                 1.5027
 IR Inten    --     36.0862                 0.2310                 3.8526

                     13                     14                     15
                      A                      A                      A
 Frequencies --   1137.6206              1176.6394              1361.6418
 Red. masses --      1.8687                 2.6280                 1.4900
 Frc consts  --      1.4249                 2.1437                 1.6277
 IR Inten    --      0.5871                17.5880                18.0003

                     16                     17                     18
                      A                      A                      A
 Frequencies --   1471.3366              1491.6381              3129.4201
 Red. masses --      1.3297                 4.5152                 1.0863
 Frc consts  --      1.6960                 5.9190                 6.2681
 IR Inten    --      7.9998                 1.6962                 0.5730

                     19                     20                     21
                      A                      A                      A
 Frequencies --   3154.1606              3262.8571              3290.5319
 Red. masses --      1.0510                 1.1202                 1.1071
 Frc consts  --      6.1608                 7.0265                 7.0627
 IR Inten    --      3.4022                 2.5132                 1.2807

 - Thermochemistry -
 -------------------
 Temperature   298.150 Kelvin.  Pressure   1.00000 Atm.
 Atom     1 has atomic number  6 and mass  12.00000

 Molecular mass:    64.03130 amu.
 Principal axes and moments of inertia in atomic units:
                           1         2         3
     Eigenvalues --    93.59335 395.87564 436.02754
           X            1.00000   0.00010  -0.00075
           Y           -0.00010   1.00000  -0.00163
           Z            0.00075   0.00163   1.00000
 This molecule is an asymmetric top.
 Rotational symmetry number  1.
 Rotational temperatures (Kelvin)      0.92543     0.21879     0.19864
 Rotational constants (GHZ):          19.28279     4.55886     4.13905
 Zero-point vibrational energy     165898.0 (Joules/Mol)
                                   39.65057 (Kcal/Mol)
 Warning -- explicit consideration of   5 degrees of freedom as
           vibrations may cause significant error
 Vibrational temperatures:    271.34   413.59   490.26   811.83   844.87
          (Kelvin)            959.90  1063.16  1237.49  1311.88  1338.99
                             1549.32  1591.86  1636.78  1692.92  1959.10
                             2116.92  2146.13  4502.53  4538.13  4694.52
                             4734.34

 Zero-point correction=                           0.063187 (Hartree/Particle)
 Thermal correction to Energy=                    0.068252
 Thermal correction to Enthalpy=                  0.069196
 Thermal correction to Gibbs Free Energy=         0.034939
 Sum of electronic and zero-point Energies=           -192.667124
 Sum of electronic and thermal Energies=              -192.662059
 Sum of electronic and thermal Enthalpies=            -192.661115
 Sum of electronic and thermal Free Energies=         -192.695371

                     E (Thermal)             CV                S
                      KCal/Mol        Cal/Mol-Kelvin    Cal/Mol-Kelvin
 Total                   42.829             17.752             72.100
 Electronic               0.000              0.000              2.183
 Translational            0.889              2.981             38.389
 Rotational               0.889              2.981             24.295
 Vibrational             41.051             11.790              7.233
 Vibration     1          0.633              1.856              2.242
 Vibration     2          0.685              1.697              1.489
 Vibration     3          0.720              1.594              1.209
 Vibration     4          0.920              1.109              0.515
 Vibration     5          0.944              1.059              0.472

 Normal termination of Gaussian 09 at Mon Jun 20 02:30:01 2016.
