 Gaussian 09, Revision E.01,
 Gaussian 09:  EM64L-G09RevE.01 30-Nov-2015

 ---------------------------------------------
 #p b3lyp/6-311++G(3df,2p) freq symmetry=Loose
 ---------------------------------------------

 ---------
 b3lyp opt
 ---------
 Symbolic Z-matrix:
 Charge =  0 Multiplicity = 1

                         Standard orientation:
 ---------------------------------------------------------------------
 Center     Atomic      Atomic             Coordinates (Angstroms)
 Number     Number       Type             X           Y           Z
 ---------------------------------------------------------------------
      1          6           0       -0.245059   -0.487571    1.142518
      2          6           0       -0.245059   -0.487571   -1.142518
      3          6           0        0.513696   -0.990521    0.000000
      4          1           0       -1.334721   -0.453865    1.173853
      5          1           0        0.262354   -0.416904   -2.095589
      6          1           0       -1.334721   -0.453865   -1.173853
      7          1           0        0.262354   -0.416904    2.095589
      8          6           0        0.333895    0.500037    0.000000
      9          6           0        0.000000    1.755882   -0.000000
 ---------------------------------------------------------------------

 SCF Done:  E(RB3LYP) =  -192.701281363     A.U. after   13 cycles

 The electronic state is 1-A'.
 Alpha  occ. eigenvalues --  -10.25257 -10.25255 -10.24360 -10.24011 -10.21795
 Alpha  occ. eigenvalues --   -0.96651  -0.75031  -0.73773  -0.61616  -0.52195
 Alpha  occ. eigenvalues --   -0.48574  -0.45503  -0.42370  -0.37449  -0.33562
 Alpha  occ. eigenvalues --   -0.31143  -0.23722
 Alpha virt. eigenvalues --   -0.11364  -0.06862  -0.00792   0.01004   0.01582
 Alpha virt. eigenvalues --    0.02710   0.04248   0.04403   0.05207   0.05498
 Alpha virt. eigenvalues --    0.06841   0.08566   0.10235   0.10259   0.11098

 Mulliken charges:
               1
     1  C   -0.388929
     2  C   -0.388929
     3  C    0.249268
     4  H    0.161803
     5  H    0.189102
     6  H    0.161803
     7  H    0.189102
     8  C    0.310446
     9  C   -0.483664
 Sum of Mulliken charges =   0.00000

 Dipole moment (field-independent basis, Debye):
    X=             -1.7815    Y=             -1.7322    Z=              0.0000  Tot=              2.4848
 Quadrupole moment (field-independent basis, Debye-Ang):
   XX=            -32.3156   YY=            -39.2960   ZZ=            -24.4502
   XY=              3.1932   XZ=              0.0000   YZ=             -0.0000

  Exact polarizability:  49.540  -4.144  74.253   0.000   0.000  56.076
 Approx polarizability:  75.572 -13.336 162.009  -0.000  -0.000  85.056

                      1                      2                      3
                     A"                     A'                     A'
 Frequencies --     96.1166               261.7446               431.4740
 Red. masses --      6.2449                 6.7226                 2.1533
 Frc consts  --      0.0340                 0.2714                 0.2362
 IR Inten    --      9.5045                 4.9007                 3.6116

                      4                      5                      6
                     A"                     A'                     A'
 Frequencies --    595.5976               602.3529               700.0856
 Red. masses --      7.2092                 5.8622                 4.3644
 Frc consts  --      1.5067                 1.2532                 1.2603
 IR Inten    --     42.6375                78.8372                23.4532

                      7                      8                      9
                     A"                     A'                     A"
 Frequencies --    866.1537               964.3888              1030.5575
 Red. masses --      1.0717                 1.2500                 1.2831
 Frc consts  --      0.4737                 0.6849                 0.8029
 IR Inten    --      3.1101                 0.2921                 0.3934

                     10                     11                     12
                     A'                     A"                     A'
 Frequencies --   1054.2234              1091.0902              1115.3983
 Red. masses --      2.3352                 1.2214                 1.5307
 Frc consts  --      1.5291                 0.8567                 1.1220
 IR Inten    --     31.1218                 2.0416                 0.3662

                     13                     14                     15
                     A'                     A"                     A"
 Frequencies --   1148.3914              1196.1106              1491.6059
 Red. masses --      1.7349                 4.8524                 1.1313
 Frc consts  --      1.3481                 4.0902                 1.4830
 IR Inten    --     14.3109                 2.2881                 0.0899

                     16                     17                     18
                     A'                     A'                     A'
 Frequencies --   1516.4461              1689.5074              3052.5110
 Red. masses --      1.1621                10.1629                 1.0593
 Frc consts  --      1.5746                17.0918                 5.8157
 IR Inten    --      3.2803                82.9887                42.7560

                     19                     20                     21
                     A"                     A'                     A"
 Frequencies --   3054.1438              3193.6728              3194.4523
 Red. masses --      1.0607                 1.1089                 1.1076
 Frc consts  --      5.8293                 6.6641                 6.6590
 IR Inten    --     13.9651                 3.4521                 2.2122

 - Thermochemistry -
 -------------------
 Temperature   298.150 Kelvin.  Pressure   1.00000 Atm.
 Atom     1 has atomic number  6 and mass  12.00000

 Molecular mass:    64.03130 amu.
 Principal axes and moments of inertia in atomic units:
                           1         2         3
     Eigenvalues --   187.69613 242.11946 361.23101
           X           -0.00600   0.00000   0.99998
           Y            0.99998   0.00000   0.00600
           Z           -0.00000   1.00000  -0.00000
 This molecule is an asymmetric top.
 Rotational symmetry number  1.
 Rotational temperatures (Kelvin)      0.46146     0.35773     0.23977
 Rotational constants (GHZ):           9.61523     7.45393     4.99609
 Zero-point vibrational energy     169546.9 (Joules/Mol)
                                   40.52268 (Kcal/Mol)
 Warning -- explicit consideration of   5 degrees of freedom as
           vibrations may cause significant error
 Vibrational temperatures:    138.29   376.59   620.79   856.93   866.65
          (Kelvin)           1007.27  1246.20  1387.54  1482.74  1516.79
                             1569.83  1604.81  1652.28  1720.93  2146.09
                             2181.82  2430.82  4391.88  4394.23  4594.98
                             4596.10

 Zero-point correction=                           0.064577 (Hartree/Particle)
 Thermal correction to Energy=                    0.069600
 Thermal correction to Enthalpy=                  0.070545
 Thermal correction to Gibbs Free Energy=         0.036994
 Sum of electronic and zero-point Energies=           -192.636704
 Sum of electronic and thermal Energies=              -192.631681
 Sum of electronic and thermal Enthalpies=            -192.630737
 Sum of electronic and thermal Free Energies=         -192.664288

                     E (Thermal)             CV                S
                      KCal/Mol        Cal/Mol-Kelvin    Cal/Mol-Kelvin
 Total                   43.675             16.777             70.614
 Electronic               0.000              0.000              0.000
 Translational            0.889              2.981             38.389
 Rotational               0.889              2.981             24.310
 Vibrational             41.897             10.815              7.915
 Vibration     1          0.603              1.952              3.532
 Vibration     2          0.669              1.743              1.650
 Vibration     3          0.793              1.402              0.854
 Vibration     4          0.953              1.041              0.457
 Vibration     5          0.961              1.027              0.446

 Optimization completed.
    -- Stationary point found.
 Normal termination of Gaussian 09 at Wed Jul 20 01:33:42 2016.
