 Gaussian 09, Revision E.01,
 Gaussian 09:  EM64L-G09RevE.01 30-Nov-2015

 ---------------------------------------------
 #p b3lyp/6-311++G(3df,2p) freq symmetry=Loose
 ---------------------------------------------

 ---------
 b3lyp opt
 ---------
 Symbolic Z-matrix:
 Charge =  3 Multiplicity = 4

                         Standard orientation:
 ---------------------------------------------------------------------
 Center     Atomic      Atomic             Coordinates (Angstroms)
 Number     Number       Type             X           Y           Z
 ---------------------------------------------------------------------
      1          6           0       -0.672082   -0.921581   -0.239480
      2          6           0        0.414786    0.005156   -0.064356
      3          6           0       -0.692470    0.907913   -0.246499
      4          6           0        1.850540    0.117664    0.110380
      5          1           0        2.533135   -0.814311   -0.367098
      6          1           0        2.377051    1.081164    0.209184
      7          1           0        2.478629   -0.804138    0.675351
      8          6           0       -1.684444   -0.015539    0.233723
      9          1           0       -2.686798   -0.024399    0.719963
 ---------------------------------------------------------------------

 SCF Done:  E(UB3LYP) =  -190.988608401     A.U. after   15 cycles

 The electronic state is 4-A.
 Alpha  occ. eigenvalues --  -11.02800 -11.02771 -11.01474 -11.00017 -10.98566
 Alpha  occ. eigenvalues --   -1.69996  -1.51691  -1.38353  -1.34465  -1.26781
 Alpha  occ. eigenvalues --   -1.18729  -1.15549  -1.15172  -1.12767  -1.07512
 Alpha  occ. eigenvalues --   -1.03490  -0.96620
 Alpha virt. eigenvalues --   -0.81426  -0.78183  -0.69547  -0.62564  -0.55402
 Alpha virt. eigenvalues --   -0.54396  -0.51646  -0.49321  -0.47479  -0.47116
 Alpha virt. eigenvalues --   -0.42451  -0.42229  -0.41253  -0.40189  -0.37970

  Beta  occ. eigenvalues --  -11.01513 -11.00542 -11.00509 -10.99791 -10.97452
  Beta  occ. eigenvalues --   -1.67836  -1.48687  -1.36704  -1.29156  -1.25242
  Beta  occ. eigenvalues --   -1.17293  -1.14428  -1.11248  -1.10402
  Beta virt. eigenvalues --   -0.91218  -0.88048  -0.78940  -0.78241  -0.70735
  Beta virt. eigenvalues --   -0.65431  -0.60580  -0.53557  -0.51433  -0.50197
  Beta virt. eigenvalues --   -0.47753  -0.45729  -0.45583  -0.41693  -0.41409

 Mulliken charges and spin densities:
               1          2
     1  C    0.393011   1.129690
     2  C    0.719508  -0.123497
     3  C    0.343566   1.159380
     4  C   -0.107303   0.673518
     5  H    0.325483   0.070744
     6  H    0.371226  -0.014636
     7  H    0.326096   0.079143
     8  C    0.209443   0.016772
     9  H    0.418971   0.008886
 Sum of Mulliken charges =   3.00000   3.00000

 Dipole moment (field-independent basis, Debye):
    X=              4.0107    Y=             -1.4246    Z=              1.3030  Tot=              4.4512
 Quadrupole moment (field-independent basis, Debye-Ang):
   XX=             30.2857   YY=            -13.4270   ZZ=            -20.4019
   XY=             -3.9918   XZ=             -0.8325   YZ=             -0.2123

  Exact polarizability:  65.842  -1.792  34.967  -0.224  -0.058  24.625
 Approx polarizability: 103.789  -3.101  67.712  -1.058  -0.132  37.656

                      1                      2                      3
                      A                      A                      A
 Frequencies --    191.1640               251.2313               348.8481
 Red. masses --      1.1647                 2.6663                 2.6306
 Frc consts  --      0.0251                 0.0992                 0.1886
 IR Inten    --     30.4927                34.3350                31.6447

                      4                      5                      6
                      A                      A                      A
 Frequencies --    435.3301               580.2391               644.6905
 Red. masses --      1.0426                 2.9417                 5.0728
 Frc consts  --      0.1164                 0.5835                 1.2422
 IR Inten    --     10.1855                22.2746                29.7228

                      7                      8                      9
                      A                      A                      A
 Frequencies --    760.5282               792.4198               828.0224
 Red. masses --      3.2685                 1.8111                 2.9908
 Frc consts  --      1.1139                 0.6701                 1.2081
 IR Inten    --      8.0201                68.0231                 5.7205

                     10                     11                     12
                      A                      A                      A
 Frequencies --    890.3007               965.7922               983.6903
 Red. masses --      2.5995                 1.9141                 1.5045
 Frc consts  --      1.2140                 1.0519                 0.8577
 IR Inten    --      8.8495                51.7247                24.4094

                     13                     14                     15
                      A                      A                      A
 Frequencies --   1160.9993              1213.0934              1259.6721
 Red. masses --      2.7098                 1.4917                 4.0678
 Frc consts  --      2.1520                 1.2934                 3.8030
 IR Inten    --     95.3299               473.2840                41.4615

                     16                     17                     18
                      A                      A                      A
 Frequencies --   1392.5464              1516.9924              1743.3123
 Red. masses --      2.5561                 1.4554                 1.0254
 Frc consts  --      2.9205                 1.9733                 1.8361
 IR Inten    --     18.0785                70.2057               247.5679

                     19                     20                     21
                      A                      A                      A
 Frequencies --   2265.4312              2919.9113              3011.0127
 Red. masses --      1.0807                 1.1137                 1.0969
 Frc consts  --      3.2677                 5.5944                 5.8592
 IR Inten    --    401.6743               495.5883               241.3634

 - Thermochemistry -
 -------------------
 Temperature   298.150 Kelvin.  Pressure   1.00000 Atm.
 Atom     1 has atomic number  6 and mass  12.00000

 Molecular mass:    64.03130 amu.
 Principal axes and moments of inertia in atomic units:
                           1         2         3
     Eigenvalues --    93.30271 418.17260 487.16423
           X            0.99986  -0.01595  -0.00540
           Y            0.01594   0.99987  -0.00197
           Z            0.00543   0.00188   0.99998
 This molecule is an asymmetric top.
 Rotational symmetry number  1.
 Rotational temperatures (Kelvin)      0.92831     0.20712     0.17779
 Rotational constants (GHZ):          19.34286     4.31578     3.70458
 Zero-point vibrational energy     144480.3 (Joules/Mol)
                                   34.53163 (Kcal/Mol)
 Warning -- explicit consideration of   5 degrees of freedom as
           vibrations may cause significant error
 Vibrational temperatures:    275.04   361.47   501.91   626.34   834.83
          (Kelvin)            927.56  1094.23  1140.11  1191.34  1280.94
                             1389.56  1415.31  1670.42  1745.37  1812.38
                             2003.56  2182.61  2508.23  3259.45  4201.10
                             4332.17

 Zero-point correction=                           0.055030 (Hartree/Particle)
 Thermal correction to Energy=                    0.060311
 Thermal correction to Enthalpy=                  0.061255
 Thermal correction to Gibbs Free Energy=         0.026303
 Sum of electronic and zero-point Energies=           -190.933579
 Sum of electronic and thermal Energies=              -190.928297
 Sum of electronic and thermal Enthalpies=            -190.927353
 Sum of electronic and thermal Free Energies=         -190.962305

                     E (Thermal)             CV                S
                      KCal/Mol        Cal/Mol-Kelvin    Cal/Mol-Kelvin
 Total                   37.846             18.682             73.563
 Electronic               0.000              0.000              2.755
 Translational            0.889              2.981             38.389
 Rotational               0.889              2.981             24.456
 Vibrational             36.068             12.721              7.963
 Vibration     1          0.634              1.852              2.217
 Vibration     2          0.663              1.761              1.722
 Vibration     3          0.726              1.578              1.171
 Vibration     4          0.796              1.393              0.841
 Vibration     5          0.937              1.074              0.485

 Normal termination of Gaussian 09 at Mon Jun 20 12:37:18 2016.
