 Gaussian 09, Revision E.01,
 Gaussian 09:  EM64L-G09RevE.01 30-Nov-2015

 ---------------------------------------------
 #p b3lyp/6-311++G(3df,2p) freq symmetry=Loose
 ---------------------------------------------

 ---------
 b3lyp opt
 ---------
 Symbolic Z-matrix:
 Charge =  0 Multiplicity = 1

                         Standard orientation:
 ---------------------------------------------------------------------
 Center     Atomic      Atomic             Coordinates (Angstroms)
 Number     Number       Type             X           Y           Z
 ---------------------------------------------------------------------
      1          6           0       -0.585665   -1.906648    0.000000
      2          6           0       -0.140995    1.902424    0.000000
      3          1           0       -1.121669    2.354725    0.000000
      4          1           0        0.722480    2.550812   -0.000000
      5          6           0       -0.000000    0.589042    0.000000
      6          6           0       -0.679359   -0.636760    0.000000
      7          6           0        0.979419   -0.511936   -0.000000
      8          1           0        1.479393   -0.761136    0.925008
      9          1           0        1.479393   -0.761136   -0.925008
 ---------------------------------------------------------------------

 SCF Done:  E(RB3LYP) =  -192.790419847     A.U. after   13 cycles

 The electronic state is 1-A'.
 Alpha  occ. eigenvalues --  -10.25754 -10.24599 -10.20652 -10.20529 -10.20438
 Alpha  occ. eigenvalues --   -0.92609  -0.77745  -0.69602  -0.63255  -0.51329
 Alpha  occ. eigenvalues --   -0.50243  -0.48920  -0.39575  -0.35263  -0.34040
 Alpha  occ. eigenvalues --   -0.28931  -0.26802
 Alpha virt. eigenvalues --   -0.06470  -0.03805  -0.00874   0.00186   0.01003
 Alpha virt. eigenvalues --    0.02799   0.03666   0.05082   0.05610   0.06120
 Alpha virt. eigenvalues --    0.07237   0.08760   0.09835   0.10481   0.10639

 Mulliken charges:
               1
     1  C   -0.610661
     2  C   -0.570505
     3  H    0.184551
     4  H    0.184281
     5  C    0.556551
     6  C    0.497639
     7  C   -0.647956
     8  H    0.203049
     9  H    0.203049
 Sum of Mulliken charges =  -0.00000

 Dipole moment (field-independent basis, Debye):
    X=              1.9121    Y=              3.4910    Z=             -0.0000  Tot=              3.9803
 Quadrupole moment (field-independent basis, Debye-Ang):
   XX=            -27.5578   YY=            -36.0835   ZZ=            -31.1026
   XY=             -3.2625   XZ=             -0.0000   YZ=              0.0000

  Exact polarizability:  52.744   3.769  91.275   0.000   0.000  40.758
 Approx polarizability:  86.401  10.452 157.821  -0.000   0.000  59.153

                      1                      2                      3
                     A'                     A"                     A'
 Frequencies --    176.3378               202.9411               382.9689
 Red. masses --      6.9747                 6.0620                 2.8750
 Frc consts  --      0.1278                 0.1471                 0.2484
 IR Inten    --      4.6372                 0.6761                 0.2027

                      4                      5                      6
                     A"                     A'                     A"
 Frequencies --    432.0747               656.7808               720.2634
 Red. masses --      2.9326                 7.4619                 1.1246
 Frc consts  --      0.3226                 1.8964                 0.3437
 IR Inten    --      2.0256                18.1329                 0.2589

                      7                      8                      9
                     A'                     A"                     A'
 Frequencies --    861.2152               913.3174               941.4920
 Red. masses --      3.3284                 1.2919                 2.7567
 Frc consts  --      1.4545                 0.6349                 1.4397
 IR Inten    --      7.1477                46.2269                 3.5684

                     10                     11                     12
                     A"                     A"                     A'
 Frequencies --    948.3359              1044.6697              1052.1481
 Red. masses --      1.1499                 1.3312                 1.4042
 Frc consts  --      0.6093                 0.8560                 0.9159
 IR Inten    --      0.1504                 0.0248                 3.0381

                     13                     14                     15
                     A'                     A'                     A'
 Frequencies --   1122.7582              1449.9029              1472.6974
 Red. masses --      1.9806                 1.1184                 1.1328
 Frc consts  --      1.4710                 1.3852                 1.4475
 IR Inten    --      2.3455                 5.5025                 0.1771

                     16                     17                     18
                     A'                     A'                     A'
 Frequencies --   1746.8864              1918.9858              3128.2424
 Red. masses --      8.3223                11.3374                 1.0482
 Frc consts  --     14.9631                24.5984                 6.0434
 IR Inten    --      6.9713               174.1261                 2.9336

                     19                     20                     21
                     A'                     A"                     A'
 Frequencies --   3157.0561              3234.2706              3247.0420
 Red. masses --      1.0585                 1.1224                 1.1180
 Frc consts  --      6.2162                 6.9177                 6.9448
 IR Inten    --      0.0319                 0.0662                 0.5557

 - Thermochemistry -
 -------------------
 Temperature   298.150 Kelvin.  Pressure   1.00000 Atm.
 Atom     1 has atomic number  6 and mass  12.00000

 Molecular mass:    64.03130 amu.
 Principal axes and moments of inertia in atomic units:
                           1         2         3
     Eigenvalues --   102.81243 409.00695 499.50155
           X            0.07189   0.99741   0.00000
           Y            0.99741  -0.07189   0.00000
           Z           -0.00000   0.00000   1.00000
 This molecule is an asymmetric top.
 Rotational symmetry number  1.
 Rotational temperatures (Kelvin)      0.84244     0.21177     0.17340
 Rotational constants (GHZ):          17.55373     4.41250     3.61308
 Zero-point vibrational energy     172324.4 (Joules/Mol)
                                   41.18652 (Kcal/Mol)
 Warning -- explicit consideration of   4 degrees of freedom as
           vibrations may cause significant error
 Vibrational temperatures:    253.71   291.99   551.01   621.66   944.96
          (Kelvin)           1036.30  1239.10  1314.06  1354.60  1364.44
                             1503.04  1513.80  1615.40  2086.08  2118.88
                             2513.38  2760.99  4500.84  4542.29  4653.39
                             4671.76

 Zero-point correction=                           0.065635 (Hartree/Particle)
 Thermal correction to Energy=                    0.070767
 Thermal correction to Enthalpy=                  0.071711
 Thermal correction to Gibbs Free Energy=         0.038112
 Sum of electronic and zero-point Energies=           -192.724785
 Sum of electronic and thermal Energies=              -192.719653
 Sum of electronic and thermal Enthalpies=            -192.718709
 Sum of electronic and thermal Free Energies=         -192.752308

                     E (Thermal)             CV                S
                      KCal/Mol        Cal/Mol-Kelvin    Cal/Mol-Kelvin
 Total                   44.407             17.336             70.715
 Electronic               0.000              0.000              0.000
 Translational            0.889              2.981             38.389
 Rotational               0.889              2.981             24.555
 Vibrational             42.630             11.374              7.770
 Vibration     1          0.628              1.872              2.367
 Vibration     2          0.639              1.836              2.106
 Vibration     3          0.752              1.507              1.027
 Vibration     4          0.793              1.400              0.852

 Optimization completed.
    -- Stationary point found.
 Normal termination of Gaussian 09 at Wed Jul 20 00:31:53 2016.
