 Gaussian 09, Revision E.01,
 Gaussian 09:  EM64L-G09RevE.01 30-Nov-2015

 ---------------------------------------------
 #p b3lyp/6-311++G(3df,2p) freq symmetry=Loose
 ---------------------------------------------

 ---------
 b3lyp opt
 ---------
 Symbolic Z-matrix:
 Charge =  1 Multiplicity = 4

                         Standard orientation:
 ---------------------------------------------------------------------
 Center     Atomic      Atomic             Coordinates (Angstroms)
 Number     Number       Type             X           Y           Z
 ---------------------------------------------------------------------
      1          6           0        0.000000    1.114211    0.000078
      2          1           0       -0.000056    1.770383   -0.878742
      3          1           0        0.000056    1.769951    0.879247
      4          6           0        1.182349    0.178896   -0.000112
      5          1           0        2.219088    0.489910   -0.000621
      6          6           0        0.702012   -1.112681   -0.000008
      7          6           0       -0.702012   -1.112681    0.000081
      8          6           0       -1.182350    0.178896    0.000037
      9          1           0       -2.219088    0.489910   -0.000340
 ---------------------------------------------------------------------

 SCF Done:  E(UB3LYP) =  -192.456637913     A.U. after   12 cycles

 The electronic state is 4-A.
 Alpha  occ. eigenvalues --  -10.47941 -10.47894 -10.47466 -10.47463 -10.43358
 Alpha  occ. eigenvalues --   -1.15253  -0.98536  -0.96957  -0.82324  -0.76587
 Alpha  occ. eigenvalues --   -0.73973  -0.69711  -0.64975  -0.64569  -0.57939
 Alpha  occ. eigenvalues --   -0.54263  -0.51115  -0.50059
 Alpha virt. eigenvalues --   -0.30952  -0.19677  -0.15921  -0.12799  -0.12268
 Alpha virt. eigenvalues --   -0.12036  -0.11021  -0.08541  -0.07739  -0.06612
 Alpha virt. eigenvalues --   -0.06060  -0.05598  -0.05130  -0.02489  -0.02439

  Beta  occ. eigenvalues --  -10.46668 -10.46665 -10.46037 -10.45993 -10.43185
  Beta  occ. eigenvalues --   -1.12024  -0.94923  -0.94620  -0.80332  -0.73653
  Beta  occ. eigenvalues --   -0.71013  -0.67977  -0.63259  -0.63206  -0.54588
  Beta virt. eigenvalues --   -0.40169  -0.36944  -0.30797  -0.26247  -0.15785
  Beta virt. eigenvalues --   -0.14560  -0.12442  -0.12134  -0.11623  -0.10321
  Beta virt. eigenvalues --   -0.08137  -0.06891  -0.06378  -0.05409  -0.04735

 Mulliken charges and spin densities:
               1          2
     1  C   -0.099383   0.023029
     2  H    0.188845   0.002004
     3  H    0.188877   0.001999
     4  C   -0.068756   0.441209
     5  H    0.248333   0.001817
     6  C    0.181253   1.043459
     7  C    0.181253   1.043459
     8  C   -0.068756   0.441209
     9  H    0.248333   0.001817
 Sum of Mulliken charges =   1.00000   3.00000

 Dipole moment (field-independent basis, Debye):
    X=              0.0000    Y=              1.8935    Z=             -0.0003  Tot=              1.8935
 Quadrupole moment (field-independent basis, Debye-Ang):
   XX=            -16.8603   YY=            -21.4048   ZZ=            -26.4979
   XY=             -0.0000   XZ=             -0.0006   YZ=             -0.0001

  Exact polarizability:  58.042  -0.000  51.831  -0.002   0.000  31.755
 Approx polarizability:  97.745  -0.000  88.239  -0.003   0.001  48.075

                      1                      2                      3
                      A                      A                      A
 Frequencies --    294.2989               477.1449               657.1473
 Red. masses --      1.6564                 5.4555                 1.1747
 Frc consts  --      0.0845                 0.7318                 0.2989
 IR Inten    --      0.1817                 0.0000                35.0061

                      4                      5                      6
                      A                      A                      A
 Frequencies --    736.5739               756.7396               835.6570
 Red. masses --      9.6300                 5.9843                 1.1784
 Frc consts  --      3.0783                 2.0191                 0.4848
 IR Inten    --      1.5004                 2.7509                 0.0000

                      7                      8                      9
                      A                      A                      A
 Frequencies --    908.4557               932.1894               959.8509
 Red. masses --      2.5367                 1.8375                 2.0634
 Frc consts  --      1.2335                 0.9408                 1.1201
 IR Inten    --     14.0010                 5.1299                 3.4953

                     10                     11                     12
                      A                      A                      A
 Frequencies --   1122.8845              1139.9611              1151.8101
 Red. masses --      2.3727                 1.1732                 1.5547
 Frc consts  --      1.7627                 0.8983                 1.2152
 IR Inten    --      7.4823                 0.0001                17.3538

                     13                     14                     15
                      A                      A                      A
 Frequencies --   1260.9303              1338.6563              1342.7286
 Red. masses --      2.2780                 2.6631                 1.6143
 Frc consts  --      2.1339                 2.8118                 1.7148
 IR Inten    --      0.8445               124.7190                 2.9229

                     16                     17                     18
                      A                      A                      A
 Frequencies --   1386.4767              1462.7906              3011.0877
 Red. masses --      1.9338                 3.6905                 1.0604
 Frc consts  --      2.1903                 4.6527                 5.6646
 IR Inten    --     45.4771                 0.0054                34.0892

                     19                     20                     21
                      A                      A                      A
 Frequencies --   3041.9141              3202.0692              3205.8206
 Red. masses --      1.0992                 1.0914                 1.0968
 Frc consts  --      5.9926                 6.5929                 6.6415
 IR Inten    --     19.1646                57.8465                 6.2363

 - Thermochemistry -
 -------------------
 Temperature   298.150 Kelvin.  Pressure   1.00000 Atm.
 Atom     1 has atomic number  6 and mass  12.00000

 Molecular mass:    64.03130 amu.
 Principal axes and moments of inertia in atomic units:
                           1         2         3
     Eigenvalues --   190.77395 203.05652 382.70764
           X            1.00000   0.00000   0.00006
           Y           -0.00000   1.00000   0.00000
           Z           -0.00006  -0.00000   1.00000
 This molecule is an asymmetric top.
 Rotational symmetry number  1.
 Rotational temperatures (Kelvin)      0.45401     0.42655     0.22632
 Rotational constants (GHZ):           9.46010     8.88788     4.71572
 Zero-point vibrational energy     174805.4 (Joules/Mol)
                                   41.77950 (Kcal/Mol)
 Warning -- explicit consideration of   2 degrees of freedom as
           vibrations may cause significant error
 Vibrational temperatures:    423.43   686.50   945.49  1059.76  1088.78
          (Kelvin)           1202.32  1307.06  1341.21  1381.01  1615.58
                             1640.15  1657.20  1814.20  1926.03  1931.88
                             1994.83  2104.63  4332.28  4376.63  4607.06
                             4612.45

 Zero-point correction=                           0.066580 (Hartree/Particle)
 Thermal correction to Energy=                    0.070725
 Thermal correction to Enthalpy=                  0.071669
 Thermal correction to Gibbs Free Energy=         0.038785
 Sum of electronic and zero-point Energies=           -192.390058
 Sum of electronic and thermal Energies=              -192.385913
 Sum of electronic and thermal Enthalpies=            -192.384969
 Sum of electronic and thermal Free Energies=         -192.417853

                     E (Thermal)             CV                S
                      KCal/Mol        Cal/Mol-Kelvin    Cal/Mol-Kelvin
 Total                   44.381             14.680             69.212
 Electronic               0.000              0.000              2.755
 Translational            0.889              2.981             38.389
 Rotational               0.889              2.981             24.209
 Vibrational             42.603              8.718              3.858
 Vibration     1          0.689              1.684              1.449
 Vibration     2          0.834              1.301              0.718

 Optimization completed.
    -- Stationary point found.
 Normal termination of Gaussian 09 at Wed Jul 20 23:03:41 2016.
