 Gaussian 09, Revision E.01,
 Gaussian 09:  EM64L-G09RevE.01 30-Nov-2015

 ---------------------------------------------
 #p b3lyp/6-311++G(3df,2p) freq symmetry=Loose
 ---------------------------------------------

 ---------
 b3lyp opt
 ---------
 Symbolic Z-matrix:
 Charge =  1 Multiplicity = 3

                         Standard orientation:
 ---------------------------------------------------------------------
 Center     Atomic      Atomic             Coordinates (Angstroms)
 Number     Number       Type             X           Y           Z
 ---------------------------------------------------------------------
      1          1           0        0.000000    0.000000   -0.978702
      2          6           0        0.000000    0.000000    0.163117
 ---------------------------------------------------------------------

 SCF Done:  E(UB3LYP) =  -38.0573612341     A.U. after    9 cycles

 Unable to determine electronic state:  partially filled degenerate orbitals.
 Alpha  occ. eigenvalues --  -10.76227  -1.06441  -0.79298  -0.67398
 Alpha virt. eigenvalues --   -0.54541  -0.23488  -0.14871  -0.11921  -0.11439
 Alpha virt. eigenvalues --   -0.10892  -0.04675   0.02052   0.02099   0.05507
 Alpha virt. eigenvalues --    0.05846   0.12096   0.22172   0.22504   0.23605

  Beta  occ. eigenvalues --  -10.72672  -0.97359
  Beta virt. eigenvalues --   -0.56563  -0.49859  -0.44605  -0.20797  -0.11746
  Beta virt. eigenvalues --   -0.10862  -0.10044  -0.09535  -0.04176   0.03830
  Beta virt. eigenvalues --    0.05223   0.07515   0.07517   0.14336   0.25111

 Mulliken charges and spin densities:
               1          2
     1  H    0.356090   0.174866
     2  C    0.643910   1.825134
 Sum of Mulliken charges =   1.00000   2.00000

 Dipole moment (field-independent basis, Debye):
    X=              0.0000    Y=              0.0000    Z=             -0.7405  Tot=              0.7405
 Quadrupole moment (field-independent basis, Debye-Ang):
   XX=             -5.2497   YY=             -3.7036   ZZ=             -2.4944
   XY=              0.0000   XZ=              0.0000   YZ=              0.0000

  Exact polarizability:   6.241   0.000   6.538  -0.000  -0.000   8.425
 Approx polarizability:   6.589  -0.000   8.504  -0.000  -0.000  10.109

                      1
                     SG
 Frequencies --   2614.3758
 Red. masses --      1.0848
 Frc consts  --      4.3686
 IR Inten    --    315.7503

 - Thermochemistry -
 -------------------
 Temperature   298.150 Kelvin.  Pressure   1.00000 Atm.
 Atom     1 has atomic number  1 and mass   1.00783

 Molecular mass:    13.00783 amu.
 Principal axes and moments of inertia in atomic units:
                           1         2         3
     Eigenvalues --     0.00000   4.32866   4.32866
           X            0.00000  -0.00000   1.00000
           Y            0.00000   1.00000   0.00000
           Z            1.00000   0.00000   0.00000
 This molecule is a prolate symmetric top.
 Rotational symmetry number  1.
 Rotational temperature (Kelvin)     20.00936
 Rotational constant (GHZ):         416.927904
 Zero-point vibrational energy      15637.4 (Joules/Mol)
                                    3.73744 (Kcal/Mol)
 Vibrational temperatures:   3761.50
          (Kelvin)

 Zero-point correction=                           0.005956 (Hartree/Particle)
 Thermal correction to Energy=                    0.008316
 Thermal correction to Enthalpy=                  0.009261
 Thermal correction to Gibbs Free Energy=        -0.011254
 Sum of electronic and zero-point Energies=            -38.051405
 Sum of electronic and thermal Energies=               -38.049045
 Sum of electronic and thermal Enthalpies=             -38.048101
 Sum of electronic and thermal Free Energies=          -38.068615

                     E (Thermal)             CV                S
                      KCal/Mol        Cal/Mol-Kelvin    Cal/Mol-Kelvin
 Total                    5.219              4.969             43.177
 Electronic               0.000              0.000              2.183
 Translational            0.889              2.981             33.638
 Rotational               0.592              1.987              7.355
 Vibrational              3.737              0.001              0.000

 Optimization completed.
    -- Stationary point found.
 Normal termination of Gaussian 09 at Mon Jun 20 15:21:32 2016.
