 Gaussian 09, Revision E.01,
 Gaussian 09:  EM64L-G09RevE.01 30-Nov-2015

 ---------------------------------------------
 #p b3lyp/6-311++G(3df,2p) freq symmetry=Loose
 ---------------------------------------------

 ---------
 b3lyp opt
 ---------
 Symbolic Z-matrix:
 Charge =  0 Multiplicity = 2

                         Standard orientation:
 ---------------------------------------------------------------------
 Center     Atomic      Atomic             Coordinates (Angstroms)
 Number     Number       Type             X           Y           Z
 ---------------------------------------------------------------------
      1          1           0        0.000000    0.000000   -0.961970
      2          6           0        0.000000    0.000000    0.160328
 ---------------------------------------------------------------------

 SCF Done:  E(UB3LYP) =  -38.4959051643     A.U. after    9 cycles

 Unable to determine electronic state:  an orbital has unidentified symmetry.
 Alpha  occ. eigenvalues --  -10.28060  -0.65403  -0.32818  -0.26325
 Alpha virt. eigenvalues --   -0.15249  -0.00196   0.06888   0.07001   0.07706
 Alpha virt. eigenvalues --    0.11319   0.14303   0.31303   0.31463   0.32952
 Alpha virt. eigenvalues --    0.33285   0.37529   0.51646   0.53598   0.54599

  Beta  occ. eigenvalues --  -10.26581  -0.61180  -0.30786
  Beta virt. eigenvalues --   -0.13695  -0.09340   0.00024   0.07137   0.07913
  Beta virt. eigenvalues --    0.08830   0.11681   0.14924   0.31487   0.32997
  Beta virt. eigenvalues --    0.34802   0.34938   0.38396   0.54420   0.55276

 Mulliken charges and spin densities:
               1          2
     1  H    0.145523  -0.014970
     2  C   -0.145523   1.014970
 Sum of Mulliken charges =  -0.00000   1.00000

 Dipole moment (field-independent basis, Debye):
    X=              0.0000    Y=              0.0000    Z=             -1.4667  Tot=              1.4667
 Quadrupole moment (field-independent basis, Debye-Ang):
   XX=             -5.7903   YY=             -7.8898   ZZ=             -7.7980
   XY=              0.0000   XZ=              0.0000   YZ=              0.0000

  Exact polarizability:  12.178   0.000  14.505   0.000  -0.000  16.481
 Approx polarizability:  17.114  -0.000  14.990  -0.000  -0.000  19.026

                      1
                     SG
 Frequencies --   2830.6066
 Red. masses --      1.0848
 Frc consts  --      5.1211
 IR Inten    --    141.1856

 - Thermochemistry -
 -------------------
 Temperature   298.150 Kelvin.  Pressure   1.00000 Atm.
 Atom     1 has atomic number  1 and mass   1.00783

 Molecular mass:    13.00783 amu.
 Principal axes and moments of inertia in atomic units:
                           1         2         3
     Eigenvalues --     0.00000   4.18192   4.18192
           X            0.00000  -0.00000   1.00000
           Y            0.00000   1.00000   0.00000
           Z            1.00000   0.00000   0.00000
 This molecule is a prolate symmetric top.
 Rotational symmetry number  1.
 Rotational temperature (Kelvin)     20.71149
 Rotational constant (GHZ):         431.557944
 Zero-point vibrational energy      16930.8 (Joules/Mol)
                                    4.04656 (Kcal/Mol)
 Vibrational temperatures:   4072.61
          (Kelvin)

 Zero-point correction=                           0.006449 (Hartree/Particle)
 Thermal correction to Energy=                    0.008809
 Thermal correction to Enthalpy=                  0.009753
 Thermal correction to Gibbs Free Energy=        -0.010346
 Sum of electronic and zero-point Energies=            -38.489457
 Sum of electronic and thermal Energies=               -38.487096
 Sum of electronic and thermal Enthalpies=             -38.486152
 Sum of electronic and thermal Free Energies=          -38.506251

                     E (Thermal)             CV                S
                      KCal/Mol        Cal/Mol-Kelvin    Cal/Mol-Kelvin
 Total                    5.528              4.968             42.303
 Electronic               0.000              0.000              1.377
 Translational            0.889              2.981             33.638
 Rotational               0.592              1.987              7.287
 Vibrational              4.047              0.000              0.000

 Optimization completed.
    -- Stationary point found.
 Normal termination of Gaussian 09 at Mon Jun 20 15:21:32 2016.
