 Gaussian 09, Revision E.01,
 Gaussian 09:  EM64L-G09RevE.01 30-Nov-2015

 ---------------------------------------------
 #p b3lyp/6-311++G(3df,2p) freq symmetry=Loose
 ---------------------------------------------

 ---------
 b3lyp opt
 ---------
 Symbolic Z-matrix:
 Charge =  0 Multiplicity = 4

                         Standard orientation:
 ---------------------------------------------------------------------
 Center     Atomic      Atomic             Coordinates (Angstroms)
 Number     Number       Type             X           Y           Z
 ---------------------------------------------------------------------
      1          1           0        0.000000    0.000000   -0.937165
      2          6           0        0.000000    0.000000    0.156194
 ---------------------------------------------------------------------

 SCF Done:  E(UB3LYP) =  -38.4621800165     A.U. after    9 cycles

 The electronic state is 4-SG.
 Alpha  occ. eigenvalues --  -10.25521  -0.67300  -0.39382  -0.26391  -0.26391
 Alpha virt. eigenvalues --    0.00223   0.06207   0.07025   0.07025   0.11199
 Alpha virt. eigenvalues --    0.14505   0.30346   0.30346   0.32950   0.32950
 Alpha virt. eigenvalues --    0.35947   0.51736   0.51736   0.52006   0.60752

  Beta  occ. eigenvalues --  -10.21106  -0.55914
  Beta virt. eigenvalues --   -0.17259  -0.06589  -0.06589   0.00868   0.08119
  Beta virt. eigenvalues --    0.09774   0.09774   0.12449   0.17396   0.33789
  Beta virt. eigenvalues --    0.33789   0.36764   0.36764   0.39701   0.58654

 Mulliken charges and spin densities:
               1          2
     1  H    0.220862   0.153439
     2  C   -0.220862   2.846561
 Sum of Mulliken charges =  -0.00000   3.00000

 Dipole moment (field-independent basis, Debye):
    X=              0.0000    Y=              0.0000    Z=             -0.6924  Tot=              0.6924
 Quadrupole moment (field-independent basis, Debye-Ang):
   XX=             -7.5911   YY=             -7.5911   ZZ=             -5.5009
   XY=              0.0000   XZ=              0.0000   YZ=              0.0000

  Exact polarizability:  12.830  -0.000  12.830   0.000   0.000  13.372
 Approx polarizability:  13.595  -0.000  13.595  -0.000  -0.000  16.164

                      1
                     SG
 Frequencies --   3047.0349
 Red. masses --      1.0848
 Frc consts  --      5.9342
 IR Inten    --     51.2430

 - Thermochemistry -
 -------------------
 Temperature   298.150 Kelvin.  Pressure   1.00000 Atm.
 Atom     1 has atomic number  1 and mass   1.00783

 Molecular mass:    13.00783 amu.
 Principal axes and moments of inertia in atomic units:
                           1         2         3
     Eigenvalues --     0.00000   3.96904   3.96904
           X            0.00000  -0.00000   1.00000
           Y            0.00000   1.00000   0.00000
           Z            1.00000   0.00000   0.00000
 This molecule is a prolate symmetric top.
 Rotational symmetry number  1.
 Rotational temperature (Kelvin)     21.82238
 Rotational constant (GHZ):         454.705205
 Zero-point vibrational energy      18225.3 (Joules/Mol)
                                    4.35596 (Kcal/Mol)
 Vibrational temperatures:   4384.00
          (Kelvin)

 Zero-point correction=                           0.006942 (Hartree/Particle)
 Thermal correction to Energy=                    0.009302
 Thermal correction to Enthalpy=                  0.010246
 Thermal correction to Gibbs Free Energy=        -0.010458
 Sum of electronic and zero-point Energies=            -38.455238
 Sum of electronic and thermal Energies=               -38.452878
 Sum of electronic and thermal Enthalpies=             -38.451934
 Sum of electronic and thermal Free Energies=          -38.472638

                     E (Thermal)             CV                S
                      KCal/Mol        Cal/Mol-Kelvin    Cal/Mol-Kelvin
 Total                    5.837              4.968             43.576
 Electronic               0.000              0.000              2.755
 Translational            0.889              2.981             33.638
 Rotational               0.592              1.987              7.183
 Vibrational              4.356              0.000              0.000

 Optimization completed.
    -- Stationary point found.
 Normal termination of Gaussian 09 at Mon Jun 20 15:21:32 2016.
