 Gaussian 09, Revision E.01,
 Gaussian 09:  EM64L-G09RevE.01 30-Nov-2015

 ---------------------------------------------
 #p b3lyp/6-311++G(3df,2p) freq symmetry=Loose
 ---------------------------------------------

 ---------
 b3lyp opt
 ---------
 Symbolic Z-matrix:
 Charge =  1 Multiplicity = 1

                         Standard orientation:
 ---------------------------------------------------------------------
 Center     Atomic      Atomic             Coordinates (Angstroms)
 Number     Number       Type             X           Y           Z
 ---------------------------------------------------------------------
      1          1           0        0.000000    0.000000   -0.974430
      2          6           0        0.000000    0.000000    0.162405
 ---------------------------------------------------------------------

 SCF Done:  E(RB3LYP) =  -38.0908545418     A.U. after    7 cycles

 The electronic state is 1-SG.
 Alpha  occ. eigenvalues --  -10.79609  -1.05152  -0.72259
 Alpha virt. eigenvalues --   -0.54588  -0.54588  -0.23092  -0.13659  -0.11603
 Alpha virt. eigenvalues --   -0.11603  -0.10145  -0.04927   0.02818   0.02818
 Alpha virt. eigenvalues --    0.05522   0.05522   0.13140   0.23300   0.23300

 Mulliken charges:
               1
     1  H    0.280452
     2  C    0.719548
 Sum of Mulliken charges =   1.00000

 Dipole moment (field-independent basis, Debye):
    X=              0.0000    Y=              0.0000    Z=             -1.4532  Tot=              1.4532
 Quadrupole moment (field-independent basis, Debye-Ang):
   XX=             -3.9213   YY=             -3.9213   ZZ=             -4.4125
   XY=              0.0000   XZ=              0.0000   YZ=              0.0000

  Exact polarizability:   7.497   0.000   7.497  -0.000  -0.000   8.540
 Approx polarizability:  10.936  -0.000  10.936  -0.000  -0.000   9.928

                      1
                     SG
 Frequencies --   2801.7734
 Red. masses --      1.0848
 Frc consts  --      5.0173
 IR Inten    --      1.2701

 - Thermochemistry -
 -------------------
 Temperature   298.150 Kelvin.  Pressure   1.00000 Atm.
 Atom     1 has atomic number  1 and mass   1.00783

 Molecular mass:    13.00783 amu.
 Principal axes and moments of inertia in atomic units:
                           1         2         3
     Eigenvalues --     0.00000   4.29096   4.29096
           X            0.00000  -0.00000   1.00000
           Y            0.00000   1.00000   0.00000
           Z            1.00000   0.00000   0.00000
 This molecule is a prolate symmetric top.
 Rotational symmetry number  1.
 Rotational temperature (Kelvin)     20.18519
 Rotational constant (GHZ):         420.591626
 Zero-point vibrational energy      16758.3 (Joules/Mol)
                                    4.00534 (Kcal/Mol)
 Vibrational temperatures:   4031.12
          (Kelvin)

 Zero-point correction=                           0.006383 (Hartree/Particle)
 Thermal correction to Energy=                    0.008743
 Thermal correction to Enthalpy=                  0.009688
 Thermal correction to Gibbs Free Energy=        -0.009782
 Sum of electronic and zero-point Energies=            -38.084472
 Sum of electronic and thermal Energies=               -38.082111
 Sum of electronic and thermal Enthalpies=             -38.081167
 Sum of electronic and thermal Free Energies=          -38.100636

                     E (Thermal)             CV                S
                      KCal/Mol        Cal/Mol-Kelvin    Cal/Mol-Kelvin
 Total                    5.487              4.969             40.976
 Electronic               0.000              0.000              0.000
 Translational            0.889              2.981             33.638
 Rotational               0.592              1.987              7.338
 Vibrational              4.005              0.000              0.000

 Optimization completed.
    -- Stationary point found.
 Normal termination of Gaussian 09 at Mon Jun 20 15:21:31 2016.
