 Gaussian 09, Revision E.01,
 Gaussian 09:  EM64L-G09RevE.01 30-Nov-2015

 ---------------------------------------------
 #p b3lyp/6-311++G(3df,2p) freq symmetry=Loose
 ---------------------------------------------

 ---------
 b3lyp opt
 ---------
 Symbolic Z-matrix:
 Charge =  0 Multiplicity = 4

                         Standard orientation:
 ---------------------------------------------------------------------
 Center     Atomic      Atomic             Coordinates (Angstroms)
 Number     Number       Type             X           Y           Z
 ---------------------------------------------------------------------
      1          1           0        0.900366   -1.155585    0.000000
      2          6           0       -0.075031    0.822790    0.000000
      3          6           0       -0.075031   -0.630192    0.000000
 ---------------------------------------------------------------------

 SCF Done:  E(UB3LYP) =  -76.5020129602     A.U. after   13 cycles

 The electronic state is 4-A".
 Alpha  occ. eigenvalues --  -10.28443 -10.26418  -0.80086  -0.56783  -0.38746
 Alpha  occ. eigenvalues --   -0.34832  -0.34603  -0.20079
 Alpha virt. eigenvalues --   -0.08229  -0.00171   0.04553   0.05372   0.05831
 Alpha virt. eigenvalues --    0.08918   0.10093   0.10942   0.11923   0.14283
 Alpha virt. eigenvalues --    0.16260   0.25780   0.26004   0.31836   0.37651

  Beta  occ. eigenvalues --  -10.26341 -10.24059  -0.72184  -0.51231  -0.30598
  Beta virt. eigenvalues --   -0.19882  -0.18332  -0.03515  -0.00871   0.00289
  Beta virt. eigenvalues --    0.05155   0.06574   0.06868   0.09193   0.11576
  Beta virt. eigenvalues --    0.12179   0.12511   0.15598   0.17380   0.28324

 Mulliken charges and spin densities:
               1          2
     1  H    0.155225   0.055069
     2  C   -0.164943   1.555853
     3  C    0.009719   1.389077
 Sum of Mulliken charges =   0.00000   3.00000

 Dipole moment (field-independent basis, Debye):
    X=              0.3978    Y=             -1.6248    Z=              0.0000  Tot=              1.6728
 Quadrupole moment (field-independent basis, Debye-Ang):
   XX=            -13.1294   YY=            -14.2002   ZZ=            -11.8572
   XY=             -1.6470   XZ=              0.0000   YZ=              0.0000

  Exact polarizability:  22.911   0.556  45.999  -0.000  -0.000  21.544
 Approx polarizability:  27.366   0.999  67.520  -0.000  -0.000  25.644

                      1                      2                      3
                     A'                     A'                     A'
 Frequencies --    868.4361              1171.1385              2873.8471
 Red. masses --      1.3258                 5.7201                 1.0813
 Frc consts  --      0.5891                 4.6224                 5.2618
 IR Inten    --    222.3548                14.0559                69.4471

 - Thermochemistry -
 -------------------
 Temperature   298.150 Kelvin.  Pressure   1.00000 Atm.
 Atom     1 has atomic number  1 and mass   1.00783

 Molecular mass:    25.00783 amu.
 Principal axes and moments of inertia in atomic units:
                           1         2         3
     Eigenvalues --     2.91345  51.02022  53.93367
           X           -0.08801   0.99612   0.00000
           Y            0.99612   0.08801   0.00000
           Z           -0.00000   0.00000   1.00000
 This molecule is an asymmetric top.
 Rotational symmetry number  1.
 Rotational temperatures (Kelvin)     29.72891     1.69764     1.60593
 Rotational constants (GHZ):         619.45070    35.37306    33.46224
 Zero-point vibrational energy      29388.8 (Joules/Mol)
                                    7.02409 (Kcal/Mol)
 Vibrational temperatures:   1249.48  1685.00  4134.82
          (Kelvin)

 Zero-point correction=                           0.011194 (Hartree/Particle)
 Thermal correction to Energy=                    0.014106
 Thermal correction to Enthalpy=                  0.015050
 Thermal correction to Gibbs Free Energy=        -0.011216
 Sum of electronic and zero-point Energies=            -76.490819
 Sum of electronic and thermal Energies=               -76.487907
 Sum of electronic and thermal Enthalpies=             -76.486963
 Sum of electronic and thermal Free Energies=          -76.513229

                     E (Thermal)             CV                S
                      KCal/Mol        Cal/Mol-Kelvin    Cal/Mol-Kelvin
 Total                    8.852              6.731             55.281
 Electronic               0.000              0.000              2.755
 Translational            0.889              2.981             35.587
 Rotational               0.889              2.981             16.735
 Vibrational              7.074              0.769              0.205

 Optimization completed.
    -- Stationary point found.
 Normal termination of Gaussian 09 at Mon Jun 20 13:26:01 2016.
