 Gaussian 09, Revision E.01,
 Gaussian 09:  EM64L-G09RevE.01 30-Nov-2015

 ---------------------------------------------
 #p b3lyp/6-311++G(3df,2p) freq symmetry=Loose
 ---------------------------------------------

 ---------
 b3lyp opt
 ---------
 Symbolic Z-matrix:
 Charge =  1 Multiplicity = 1

                         Standard orientation:
 ---------------------------------------------------------------------
 Center     Atomic      Atomic             Coordinates (Angstroms)
 Number     Number       Type             X           Y           Z
 ---------------------------------------------------------------------
      1          1           0       -0.517838    1.479991    0.000000
      2          6           0        0.043153    0.541989   -0.000000
      3          6           0        0.043153   -0.788654   -0.000000
 ---------------------------------------------------------------------

 SCF Done:  E(RB3LYP) =  -76.1567268005     A.U. after   12 cycles

 The electronic state is 1-A'.
 Alpha  occ. eigenvalues --  -10.65628 -10.64003  -1.14098  -0.89888  -0.66884
 Alpha  occ. eigenvalues --   -0.65473
 Alpha virt. eigenvalues --   -0.58778  -0.36750  -0.34314  -0.18598  -0.16097
 Alpha virt. eigenvalues --   -0.11943  -0.11595  -0.08548  -0.05500  -0.04818
 Alpha virt. eigenvalues --   -0.04781  -0.01965   0.00470   0.02269   0.03400

 Mulliken charges:
               1
     1  H    0.312323
     2  C    0.364893
     3  C    0.322783
 Sum of Mulliken charges =   1.00000

 Dipole moment (field-independent basis, Debye):
    X=              0.4722    Y=              1.8534    Z=              0.0000  Tot=              1.9127
 Quadrupole moment (field-independent basis, Debye-Ang):
   XX=             -7.8764   YY=             -4.8934   ZZ=            -10.9282
   XY=             -1.7831   XZ=              0.0000   YZ=              0.0000

  Exact polarizability:  12.487  -1.320  28.408  -0.000   0.000  34.391
 Approx polarizability:  18.722  -1.232  75.919  -0.000   0.000  18.745

                      1                      2                      3
                     A'                     A'                     A'
 Frequencies --    644.5767              1385.1719              3137.9457
 Red. masses --      1.3235                 6.5817                 1.1043
 Frc consts  --      0.3240                 7.4404                 6.4064
 IR Inten    --    156.4086                77.6425               163.1521

 - Thermochemistry -
 -------------------
 Temperature   298.150 Kelvin.  Pressure   1.00000 Atm.
 Atom     1 has atomic number  1 and mass   1.00783

 Molecular mass:    25.00783 amu.
 Principal axes and moments of inertia in atomic units:
                           1         2         3
     Eigenvalues --     0.87691  47.02681  47.90372
           X           -0.06747   0.99772   0.00000
           Y            0.99772   0.06747   0.00000
           Z            0.00000   0.00000   1.00000
 This molecule is an asymmetric top.
 Rotational symmetry number  1.
 Rotational temperatures (Kelvin)     98.77126     1.84180     1.80808
 Rotational constants (GHZ):        2058.06167    38.37686    37.67434
 Zero-point vibrational energy      30909.7 (Joules/Mol)
                                    7.38759 (Kcal/Mol)
 Vibrational temperatures:    927.40  1992.95  4514.80
          (Kelvin)

 Zero-point correction=                           0.011773 (Hartree/Particle)
 Thermal correction to Energy=                    0.014750
 Thermal correction to Enthalpy=                  0.015695
 Thermal correction to Gibbs Free Energy=        -0.008693
 Sum of electronic and zero-point Energies=            -76.144954
 Sum of electronic and thermal Energies=               -76.141976
 Sum of electronic and thermal Enthalpies=             -76.141032
 Sum of electronic and thermal Free Energies=          -76.165420

                     E (Thermal)             CV                S
                      KCal/Mol        Cal/Mol-Kelvin    Cal/Mol-Kelvin
 Total                    9.256              7.012             51.328
 Electronic               0.000              0.000              0.000
 Translational            0.889              2.981             35.587
 Rotational               0.889              2.981             15.343
 Vibrational              7.479              1.050              0.398

 Optimization completed.
    -- Stationary point found.
 Normal termination of Gaussian 09 at Mon Jun 20 13:25:55 2016.
