 Gaussian 09, Revision E.01,
 Gaussian 09:  EM64L-G09RevE.01 30-Nov-2015

 ---------------------------------------------
 #p b3lyp/6-311++G(3df,2p) freq symmetry=Loose
 ---------------------------------------------

 ---------
 b3lyp opt
 ---------
 Symbolic Z-matrix:
 Charge =  2 Multiplicity = 4

                         Standard orientation:
 ---------------------------------------------------------------------
 Center     Atomic      Atomic             Coordinates (Angstroms)
 Number     Number       Type             X           Y           Z
 ---------------------------------------------------------------------
      1          1           0        0.000000    0.000000   -1.676687
      2          6           0        0.000000    0.000000   -0.534504
      3          6           0        0.000000    0.000000    0.813952
 ---------------------------------------------------------------------

 SCF Done:  E(UB3LYP) =  -75.4457042830     A.U. after   11 cycles

 The electronic state is 4-SG.
 Alpha  occ. eigenvalues --  -11.10568 -11.06529  -1.55824  -1.24509  -1.11978
 Alpha  occ. eigenvalues --   -1.06520  -1.06520
 Alpha virt. eigenvalues --   -0.75236  -0.75236  -0.52340  -0.38430  -0.31546
 Alpha virt. eigenvalues --   -0.31546  -0.30560  -0.28318  -0.24835  -0.24835
 Alpha virt. eigenvalues --   -0.23362  -0.23362  -0.16662  -0.14286  -0.12478

  Beta  occ. eigenvalues --  -11.06378 -11.04587  -1.45733  -1.20385
  Beta virt. eigenvalues --   -0.88178  -0.88178  -0.85543  -0.63296  -0.63296
  Beta virt. eigenvalues --   -0.48715  -0.37238  -0.30417  -0.30417  -0.26516
  Beta virt. eigenvalues --   -0.26149  -0.22374  -0.22373  -0.22041  -0.22041

 Mulliken charges and spin densities:
               1          2
     1  H    0.517479  -0.004431
     2  C    0.661304   0.995518
     3  C    0.821217   2.008914
 Sum of Mulliken charges =   2.00000   3.00000

 Dipole moment (field-independent basis, Debye):
    X=              0.0000    Y=              0.0000    Z=             -0.8106  Tot=              0.8106
 Quadrupole moment (field-independent basis, Debye-Ang):
   XX=             -7.3143   YY=             -7.3143   ZZ=              3.1923
   XY=              0.0000   XZ=              0.0000   YZ=              0.0000

  Exact polarizability:   8.221   0.000   8.221  -0.000  -0.000  17.751
 Approx polarizability:  10.676  -0.000  10.676  -0.000  -0.000  31.142

                      1                      2                      3
                     PI                     PI                     SG
 Frequencies --    695.4368               695.4368              1531.5408
 Red. masses --      1.3189                 1.3189                 5.7590
 Frc consts  --      0.3758                 0.3758                 7.9589
 IR Inten    --     38.3687                38.3687                24.6124

                      4
                     SG
 Frequencies --   2702.9639
 Red. masses --      1.1557
 Frc consts  --      4.9747
 IR Inten    --    640.5498

 - Thermochemistry -
 -------------------
 Temperature   298.150 Kelvin.  Pressure   1.00000 Atm.
 Atom     1 has atomic number  1 and mass   1.00783

 Molecular mass:    25.00783 amu.
 Principal axes and moments of inertia in atomic units:
                           1         2         3
     Eigenvalues --     0.00000  50.35617  50.35617
           X            0.00000  -0.00000   1.00000
           Y            0.00000   1.00000   0.00000
           Z            1.00000   0.00000   0.00000
 This molecule is a prolate symmetric top.
 Rotational symmetry number  1.
 Rotational temperature (Kelvin)      1.72002
 Rotational constant (GHZ):          35.839528
 Zero-point vibrational energy      33647.2 (Joules/Mol)
                                    8.04188 (Kcal/Mol)
 Vibrational temperatures:   1000.58  1000.58  2203.54  3888.96
          (Kelvin)

 Zero-point correction=                           0.012816 (Hartree/Particle)
 Thermal correction to Energy=                    0.015409
 Thermal correction to Enthalpy=                  0.016354
 Thermal correction to Gibbs Free Energy=        -0.007976
 Sum of electronic and zero-point Energies=            -75.432889
 Sum of electronic and thermal Energies=               -75.430295
 Sum of electronic and thermal Enthalpies=             -75.429351
 Sum of electronic and thermal Free Energies=          -75.453681

                     E (Thermal)             CV                S
                      KCal/Mol        Cal/Mol-Kelvin    Cal/Mol-Kelvin
 Total                    9.670              6.712             51.207
 Electronic               0.000              0.000              2.755
 Translational            0.889              2.981             35.587
 Rotational               0.592              1.987             12.232
 Vibrational              8.188              1.744              0.633

 Optimization completed.
    -- Stationary point found.
 Normal termination of Gaussian 09 at Mon Jun 20 13:25:56 2016.
