 Gaussian 09, Revision E.01,
 Gaussian 09:  EM64L-G09RevE.01 30-Nov-2015

 ---------------------------------------------
 #p b3lyp/6-311++G(3df,2p) freq symmetry=Loose
 ---------------------------------------------

 ---------
 b3lyp opt
 ---------
 Symbolic Z-matrix:
 Charge =  2 Multiplicity = 2

                         Standard orientation:
 ---------------------------------------------------------------------
 Center     Atomic      Atomic             Coordinates (Angstroms)
 Number     Number       Type             X           Y           Z
 ---------------------------------------------------------------------
      1          1           0        0.000000    0.000000    1.681010
      2          6           0        0.000000    0.000000    0.535725
      3          6           0        0.000000   -0.000000   -0.815893
 ---------------------------------------------------------------------

 SCF Done:  E(UB3LYP) =  -75.4170670961     A.U. after   15 cycles

 Unable to determine electronic state:  partially filled degenerate orbitals.
 Alpha  occ. eigenvalues --  -11.11243 -11.05328  -1.52045  -1.22829  -1.11396
 Alpha  occ. eigenvalues --   -1.05706
 Alpha virt. eigenvalues --   -0.91326  -0.74510  -0.67694  -0.51210  -0.38203
 Alpha virt. eigenvalues --   -0.31585  -0.30687  -0.30025  -0.28436  -0.23937
 Alpha virt. eigenvalues --   -0.23684  -0.23476  -0.22846  -0.16543  -0.14188

  Beta  occ. eigenvalues --  -11.08684 -11.05244  -1.50100  -1.21381  -1.04036
  Beta virt. eigenvalues --   -0.89399  -0.88541  -0.71829  -0.64526  -0.50210
  Beta virt. eigenvalues --   -0.37699  -0.31596  -0.30532  -0.27375  -0.27005
  Beta virt. eigenvalues --   -0.23850  -0.23541  -0.23206  -0.22250  -0.16303

 Mulliken charges and spin densities:
               1          2
     1  H    0.519097   0.028423
     2  C    0.649810  -0.088694
     3  C    0.831093   1.060272
 Sum of Mulliken charges =   2.00000   1.00000

 Dipole moment (field-independent basis, Debye):
    X=              0.0000    Y=              0.0000    Z=              0.7519  Tot=              0.7519
 Quadrupole moment (field-independent basis, Debye-Ang):
   XX=             -7.3856   YY=             -7.3741   ZZ=              3.2500
   XY=              0.0000   XZ=             -0.0000   YZ=              0.0000

  Exact polarizability:  10.001  -0.000   8.273   0.000  -0.000  18.031
 Approx polarizability:  12.272   0.000  10.672   0.000   0.000  31.459

                      1                      2                      3
                     PI                     PI                     SG
 Frequencies --    287.4029               723.8264              1512.7417
 Red. masses --      1.3190                 1.3190                 5.5934
 Frc consts  --      0.0642                 0.4072                 7.5414
 IR Inten    --      8.7914                39.3001                30.2312

                      4
                     SG
 Frequencies --   2673.3555
 Red. masses --      1.1626
 Frc consts  --      4.8954
 IR Inten    --    701.2243

 - Thermochemistry -
 -------------------
 Temperature   298.150 Kelvin.  Pressure   1.00000 Atm.
 Atom     1 has atomic number  1 and mass   1.00783

 Molecular mass:    25.00783 amu.
 Principal axes and moments of inertia in atomic units:
                           1         2         3
     Eigenvalues --     0.00000  50.59792  50.59792
           X            0.00000   0.99998  -0.00640
           Y            0.00000   0.00640   0.99998
           Z            1.00000  -0.00000  -0.00000
 This molecule is a prolate symmetric top.
 Rotational symmetry number  1.
 Rotational temperature (Kelvin)      1.71181
 Rotational constant (GHZ):          35.668285
 Zero-point vibrational energy      31086.9 (Joules/Mol)
                                    7.42995 (Kcal/Mol)
 Warning -- explicit consideration of   1 degrees of freedom as
           vibrations may cause significant error
 Vibrational temperatures:    413.51  1041.42  2176.50  3846.36
          (Kelvin)

 Zero-point correction=                           0.011840 (Hartree/Particle)
 Thermal correction to Energy=                    0.014745
 Thermal correction to Enthalpy=                  0.015689
 Thermal correction to Gibbs Free Energy=        -0.008535
 Sum of electronic and zero-point Energies=            -75.405227
 Sum of electronic and thermal Energies=               -75.402322
 Sum of electronic and thermal Enthalpies=             -75.401378
 Sum of electronic and thermal Free Energies=          -75.425602

                     E (Thermal)             CV                S
                      KCal/Mol        Cal/Mol-Kelvin    Cal/Mol-Kelvin
 Total                    9.253              7.522             50.985
 Electronic               0.000              0.000              1.377
 Translational            0.889              2.981             35.587
 Rotational               0.592              1.987             12.241
 Vibrational              7.771              2.554              1.780
 Vibration     1          0.685              1.697              1.489

 Optimization completed.
    -- Stationary point found.
 Normal termination of Gaussian 09 at Mon Jun 20 13:26:00 2016.
