 Gaussian 09, Revision E.01,
 Gaussian 09:  EM64L-G09RevE.01 30-Nov-2015

 ---------------------------------------------
 #p b3lyp/6-311++G(3df,2p) freq symmetry=Loose
 ---------------------------------------------

 ---------
 b3lyp opt
 ---------
 Symbolic Z-matrix:
 Charge =  1 Multiplicity = 1

                         Standard orientation:
 ---------------------------------------------------------------------
 Center     Atomic      Atomic             Coordinates (Angstroms)
 Number     Number       Type             X           Y           Z
 ---------------------------------------------------------------------
      1          1           0        0.000000   -0.000000    1.448151
      2          6           0        0.000000   -0.000000    0.334635
      3          6           0        0.000000    1.201987   -0.287997
      4          6           0       -0.000000   -1.201987   -0.287997
 ---------------------------------------------------------------------

 SCF Done:  E(RB3LYP) =  -114.287622275     A.U. after   10 cycles

 The electronic state is 1-A1.
 Alpha  occ. eigenvalues --  -10.63133 -10.63129 -10.51163  -1.16485  -0.98543
 Alpha  occ. eigenvalues --   -0.82772  -0.66011  -0.64548  -0.61656
 Alpha virt. eigenvalues --   -0.44537  -0.44295  -0.41827  -0.25602  -0.17574
 Alpha virt. eigenvalues --   -0.13679  -0.11731  -0.10920  -0.07915  -0.07154
 Alpha virt. eigenvalues --   -0.06578  -0.05323  -0.04829  -0.03468  -0.02213

 Mulliken charges:
               1
     1  H    0.237851
     2  C    0.612823
     3  C    0.074663
     4  C    0.074663
 Sum of Mulliken charges =   1.00000

 Dipole moment (field-independent basis, Debye):
    X=             -0.0000    Y=             -0.0000    Z=              1.6612  Tot=              1.6612
 Quadrupole moment (field-independent basis, Debye-Ang):
   XX=            -15.2940   YY=            -13.6607   ZZ=            -11.0847
   XY=             -0.0000   XZ=             -0.0000   YZ=              0.0000

  Exact polarizability:  20.021   0.000  39.316  -0.000   0.000  23.730
 Approx polarizability:  29.459   0.000  95.769   0.000  -0.000  39.416

                      1                      2                      3
                     A1                     B1                     B2
 Frequencies --    354.6010               463.1683               707.5523
 Red. masses --      9.4035                 1.6896                 1.0918
 Frc consts  --      0.6967                 0.2136                 0.3220
 IR Inten    --     12.3299                13.1262                20.7073

                      4                      5                      6
                     A1                     B2                     A1
 Frequencies --   1229.6004              1622.1109              2895.2342
 Red. masses --      9.5267                11.8577                 1.0836
 Frc consts  --      8.4864                18.3827                 5.3517
 IR Inten    --     15.3744               656.8943               338.1464

 - Thermochemistry -
 -------------------
 Temperature   298.150 Kelvin.  Pressure   1.00000 Atm.
 Atom     1 has atomic number  1 and mass   1.00783

 Molecular mass:    37.00783 amu.
 Principal axes and moments of inertia in atomic units:
                           1         2         3
     Eigenvalues --    19.25571 123.82505 143.08076
           X            0.00000   0.00000   1.00000
           Y            1.00000   0.00000  -0.00000
           Z            0.00000   1.00000   0.00000
 This molecule is an asymmetric top.
 Rotational symmetry number  2.
 Rotational temperatures (Kelvin)      4.49808     0.69949     0.60535
 Rotational constants (GHZ):          93.72498    14.57493    12.61344
 Zero-point vibrational energy      43497.8 (Joules/Mol)
                                   10.39623 (Kcal/Mol)
 Warning -- explicit consideration of   2 degrees of freedom as
           vibrations may cause significant error
 Vibrational temperatures:    510.19   666.39  1018.01  1769.12  2333.85
          (Kelvin)           4165.59

 Zero-point correction=                           0.016567 (Hartree/Particle)
 Thermal correction to Energy=                    0.020137
 Thermal correction to Enthalpy=                  0.021081
 Thermal correction to Gibbs Free Energy=        -0.006516
 Sum of electronic and zero-point Energies=           -114.271055
 Sum of electronic and thermal Energies=              -114.267486
 Sum of electronic and thermal Enthalpies=            -114.266542
 Sum of electronic and thermal Free Energies=         -114.294138

                     E (Thermal)             CV                S
                      KCal/Mol        Cal/Mol-Kelvin    Cal/Mol-Kelvin
 Total                   12.636              9.909             58.083
 Electronic               0.000              0.000              0.000
 Translational            0.889              2.981             36.755
 Rotational               0.889              2.981             19.084
 Vibrational             10.858              3.948              2.243
 Vibration     1          0.730              1.566              1.146
 Vibration     2          0.821              1.332              0.757

 Optimization completed.
    -- Stationary point found.
 Normal termination of Gaussian 09 at Mon Jun 20 13:27:34 2016.
