 Gaussian 09, Revision E.01,
 Gaussian 09:  EM64L-G09RevE.01 30-Nov-2015

 ---------------------------------------------
 #p b3lyp/6-311++G(3df,2p) freq symmetry=Loose
 ---------------------------------------------

 ---------
 b3lyp opt
 ---------
 Symbolic Z-matrix:
 Charge =  3 Multiplicity = 3

                         Standard orientation:
 ---------------------------------------------------------------------
 Center     Atomic      Atomic             Coordinates (Angstroms)
 Number     Number       Type             X           Y           Z
 ---------------------------------------------------------------------
      1          1           0        0.000000    0.000000   -2.430424
      2          6           0       -0.000000   -0.000000   -1.232165
      3          6           0        0.000000    0.000000    1.493231
      4          6           0        0.000000    0.000000    0.144005
 ---------------------------------------------------------------------

 SCF Done:  E(UB3LYP) =  -112.615102579     A.U. after   16 cycles

 Unable to determine electronic state:  an orbital has unidentified symmetry.
 Alpha  occ. eigenvalues --  -11.36950 -11.31604 -11.24171  -1.77123  -1.66031
 Alpha  occ. eigenvalues --   -1.40401  -1.33571  -1.29136  -1.26441
 Alpha virt. eigenvalues --   -1.08676  -1.06807  -0.88660  -0.86003  -0.77726
 Alpha virt. eigenvalues --   -0.63572  -0.55036  -0.48187  -0.47865  -0.47593
 Alpha virt. eigenvalues --   -0.45747  -0.45683  -0.41352  -0.41251  -0.40812

  Beta  occ. eigenvalues --  -11.33479 -11.31744 -11.22917  -1.72795  -1.62832
  Beta  occ. eigenvalues --   -1.39945  -1.24551
  Beta virt. eigenvalues --   -1.14762  -1.07354  -1.04413  -1.01554  -0.82798
  Beta virt. eigenvalues --   -0.79934  -0.75421  -0.62397  -0.53244  -0.47608
  Beta virt. eigenvalues --   -0.47266  -0.45501  -0.44843  -0.44631  -0.40772

 Mulliken charges and spin densities:
               1          2
     1  H    0.589878   0.002538
     2  C    0.724941   0.001847
     3  C    0.925407   1.375032
     4  C    0.759774   0.620583
 Sum of Mulliken charges =   3.00000   2.00000

 Dipole moment (field-independent basis, Debye):
    X=              0.0000    Y=              0.0000    Z=             -1.4402  Tot=              1.4402
 Quadrupole moment (field-independent basis, Debye-Ang):
   XX=             -9.6712   YY=            -11.1304   ZZ=             23.8439
   XY=              0.0000   XZ=              0.0000   YZ=              0.0000

  Exact polarizability:  11.338  -0.000  11.347  -0.000  -0.000  38.415
 Approx polarizability:  15.555   0.000  14.674   0.000   0.000  99.644

                      1                      2                      3
                     ?A                     ?A                     ?A
 Frequencies --    284.4961               295.5065               739.5617
 Red. masses --      4.4284                 5.0051                 1.3528
 Frc consts  --      0.2112                 0.2575                 0.4359
 IR Inten    --     27.8172                43.8425                29.9781

                      4                      5                      6
                     ?A                     SG                     SG
 Frequencies --    807.3623              1037.9686              1630.1975
 Red. masses --      1.4022                 6.4278                 5.4366
 Frc consts  --      0.5385                 4.0802                 8.5125
 IR Inten    --     18.4535                44.0925              1492.8071

                      7
                     SG
 Frequencies --   2256.6562
 Red. masses --      1.2584
 Frc consts  --      3.7758
 IR Inten    --    560.9327

 - Thermochemistry -
 -------------------
 Temperature   298.150 Kelvin.  Pressure   1.00000 Atm.
 Atom     1 has atomic number  1 and mass   1.00783

 Molecular mass:    37.00783 amu.
 Principal axes and moments of inertia in atomic units:
                           1         2         3
     Eigenvalues --     0.00000 182.19765 182.19765
           X            0.00000   1.00000  -0.00000
           Y            0.00000   0.00000   1.00000
           Z            1.00000  -0.00000  -0.00000
 This molecule is a prolate symmetric top.
 Rotational symmetry number  1.
 Rotational temperature (Kelvin)      0.47538
 Rotational constant (GHZ):           9.905403
 Zero-point vibrational energy      42178.8 (Joules/Mol)
                                   10.08098 (Kcal/Mol)
 Warning -- explicit consideration of   2 degrees of freedom as
           vibrations may cause significant error
 Vibrational temperatures:    409.33   425.17  1064.06  1161.61  1493.40
          (Kelvin)           2345.49  3246.82

 Zero-point correction=                           0.016065 (Hartree/Particle)
 Thermal correction to Energy=                    0.019500
 Thermal correction to Enthalpy=                  0.020444
 Thermal correction to Gibbs Free Energy=        -0.006745
 Sum of electronic and zero-point Energies=           -112.599038
 Sum of electronic and thermal Energies=              -112.595602
 Sum of electronic and thermal Enthalpies=            -112.594658
 Sum of electronic and thermal Free Energies=         -112.621848

                     E (Thermal)             CV                S
                      KCal/Mol        Cal/Mol-Kelvin    Cal/Mol-Kelvin
 Total                   12.237             10.136             57.226
 Electronic               0.000              0.000              2.183
 Translational            0.889              2.981             36.755
 Rotational               0.592              1.987             14.787
 Vibrational             10.755              5.168              3.500
 Vibration     1          0.683              1.702              1.506
 Vibration     2          0.690              1.682              1.442

 Optimization completed.
    -- Stationary point found.
 Normal termination of Gaussian 09 at Mon Jun 20 13:29:22 2016.
