 Gaussian 09, Revision E.01,
 Gaussian 09:  EM64L-G09RevE.01 30-Nov-2015

 ---------------------------------------------
 #p b3lyp/6-311++G(3df,2p) freq symmetry=Loose
 ---------------------------------------------

 ---------
 b3lyp opt
 ---------
 Symbolic Z-matrix:
 Charge =  3 Multiplicity = 1

                         Standard orientation:
 ---------------------------------------------------------------------
 Center     Atomic      Atomic             Coordinates (Angstroms)
 Number     Number       Type             X           Y           Z
 ---------------------------------------------------------------------
      1          1           0       -0.000000   -0.000000   -2.583835
      2          6           0       -0.000000   -0.000000   -1.410836
      3          6           0       -0.000000   -0.000000   -0.014605
      4          6           0        0.000000    0.000000    1.856080
 ---------------------------------------------------------------------

 SCF Done:  E(RB3LYP) =  -112.570254809     A.U. after   11 cycles

 Unable to determine electronic state:  an orbital has unidentified symmetry.
 Alpha  occ. eigenvalues --  -11.37500 -11.23193 -11.22753  -1.65886  -1.50809
 Alpha  occ. eigenvalues --   -1.35949  -1.23621  -1.16827
 Alpha virt. eigenvalues --   -1.10070  -1.01852  -1.01392  -0.91361  -0.86660
 Alpha virt. eigenvalues --   -0.86024  -0.65581  -0.54403  -0.46472  -0.46197
 Alpha virt. eigenvalues --   -0.45876  -0.41835  -0.41709  -0.41400  -0.38723

 Mulliken charges:
               1
     1  H    0.579055
     2  C    1.268557
     3  C    0.031392
     4  C    1.120995
 Sum of Mulliken charges =   3.00000

 Dipole moment (field-independent basis, Debye):
    X=             -0.0000    Y=             -0.0000    Z=             -0.0453  Tot=              0.0453
 Quadrupole moment (field-independent basis, Debye-Ang):
   XX=            -12.1111   YY=             -9.0764   ZZ=             30.3910
   XY=              0.0000   XZ=              0.0000   YZ=              0.0000

  Exact polarizability:  13.978   0.000  13.639  -0.000   0.000  49.272
 Approx polarizability:  19.745   0.000  21.616   0.000   0.000 104.234

                      1                      2                      3
                     ?A                     ?A                     SG
 Frequencies --    214.1592               275.8722               434.8256
 Red. masses --      6.7892                 3.5877                10.7112
 Frc consts  --      0.1835                 0.1609                 1.1932
 IR Inten    --     25.7042                13.2601               294.4136

                      4                      5                      6
                     ?A                     ?A                     SG
 Frequencies --    628.9739               796.2023              1322.6867
 Red. masses --      1.2290                 1.4657                 5.4371
 Frc consts  --      0.2865                 0.5475                 5.6045
 IR Inten    --     55.2087                 8.4788               679.2156

                      7
                     SG
 Frequencies --   2432.8362
 Red. masses --      1.1670
 Frc consts  --      4.0697
 IR Inten    --    916.5555

 - Thermochemistry -
 -------------------
 Temperature   298.150 Kelvin.  Pressure   1.00000 Atm.
 Atom     1 has atomic number  1 and mass   1.00783

 Molecular mass:    37.00783 amu.
 Principal axes and moments of inertia in atomic units:
                           1         2         3
     Eigenvalues --     0.00000 256.32852 256.32852
           X            0.00000   0.86065   0.50920
           Y            0.00000  -0.50920   0.86065
           Z            1.00000  -0.00000  -0.00000
 This molecule is a prolate symmetric top.
 Rotational symmetry number  1.
 Rotational temperature (Kelvin)      0.33790
 Rotational constant (GHZ):           7.040735
 Zero-point vibrational energy      36519.3 (Joules/Mol)
                                    8.72833 (Kcal/Mol)
 Warning -- explicit consideration of   3 degrees of freedom as
           vibrations may cause significant error
 Vibrational temperatures:    308.13   396.92   625.62   904.95  1145.56
          (Kelvin)           1903.05  3500.30

 Zero-point correction=                           0.013909 (Hartree/Particle)
 Thermal correction to Energy=                    0.017772
 Thermal correction to Enthalpy=                  0.018716
 Thermal correction to Gibbs Free Energy=        -0.008494
 Sum of electronic and zero-point Energies=           -112.556345
 Sum of electronic and thermal Energies=              -112.552483
 Sum of electronic and thermal Enthalpies=            -112.551539
 Sum of electronic and thermal Free Energies=         -112.578749

                     E (Thermal)             CV                S
                      KCal/Mol        Cal/Mol-Kelvin    Cal/Mol-Kelvin
 Total                   11.152             11.667             57.269
 Electronic               0.000              0.000              0.000
 Translational            0.889              2.981             36.755
 Rotational               0.592              1.987             15.466
 Vibrational              9.671              6.699              5.048
 Vibration     1          0.644              1.819              2.008
 Vibration     2          0.678              1.718              1.559
 Vibration     3          0.795              1.394              0.843

 Optimization completed.
    -- Stationary point found.
 Normal termination of Gaussian 09 at Mon Jun 20 13:27:46 2016.
