 Gaussian 09, Revision E.01,
 Gaussian 09:  EM64L-G09RevE.01 30-Nov-2015

 ---------------------------------------------
 #p b3lyp/6-311++G(3df,2p) freq symmetry=Loose
 ---------------------------------------------

 ---------
 b3lyp opt
 ---------
 Symbolic Z-matrix:
 Charge =  3 Multiplicity = 3

                         Standard orientation:
 ---------------------------------------------------------------------
 Center     Atomic      Atomic             Coordinates (Angstroms)
 Number     Number       Type             X           Y           Z
 ---------------------------------------------------------------------
      1          1           0        0.000000   -0.000000    1.588768
      2          6           0        0.000000   -0.000000    0.299969
      3          6           0        0.000000    1.229850   -0.282382
      4          6           0       -0.000000   -1.229850   -0.282382
 ---------------------------------------------------------------------

 SCF Done:  E(UB3LYP) =  -112.536522431     A.U. after   13 cycles

 The electronic state is 3-B2.
 Alpha  occ. eigenvalues --  -11.39046 -11.39042 -11.18528  -1.78701  -1.63696
 Alpha  occ. eigenvalues --   -1.38606  -1.33926  -1.32798  -1.26803
 Alpha virt. eigenvalues --   -1.09229  -1.07521  -1.05788  -0.86911  -0.68422
 Alpha virt. eigenvalues --   -0.56900  -0.56400  -0.52260  -0.49825  -0.47100
 Alpha virt. eigenvalues --   -0.47058  -0.46785  -0.42273  -0.41925  -0.39596

  Beta  occ. eigenvalues --  -11.36478 -11.36474 -11.18086  -1.76453  -1.59994
  Beta  occ. eigenvalues --   -1.36118  -1.25127
  Beta virt. eigenvalues --   -1.12101  -1.09528  -1.04280  -1.01452  -1.00899
  Beta virt. eigenvalues --   -0.83716  -0.68075  -0.56147  -0.52183  -0.51226
  Beta virt. eigenvalues --   -0.49798  -0.46488  -0.45616  -0.43461  -0.40580

 Mulliken charges and spin densities:
               1          2
     1  H    0.445928  -0.024549
     2  C    0.469286   0.071225
     3  C    1.042393   0.976662
     4  C    1.042393   0.976662
 Sum of Mulliken charges =   3.00000   2.00000

 Dipole moment (field-independent basis, Debye):
    X=             -0.0000    Y=              0.0000    Z=              0.6972  Tot=              0.6972
 Quadrupole moment (field-independent basis, Debye-Ang):
   XX=            -11.3133   YY=              9.6089   ZZ=             -2.2878
   XY=              0.0000   XZ=              0.0000   YZ=              0.0000

  Exact polarizability:  12.785  -0.000  29.841  -0.000  -0.000  18.766
 Approx polarizability:  16.308   0.000  90.301   0.000   0.000  32.307

                      1                      2                      3
                     A1                     B1                     B2
 Frequencies --    385.8644               491.3376               746.6986
 Red. masses --      8.5384                 1.9163                 1.1079
 Frc consts  --      0.7490                 0.2726                 0.3640
 IR Inten    --      0.0788               107.5309                21.8069

                      4                      5                      6
                     A1                     A1                     B2
 Frequencies --   1054.6169              1461.5201              1550.1396
 Red. masses --     10.3157                 1.0868                11.1279
 Frc consts  --      6.7599                 1.3678                15.7545
 IR Inten    --    225.4463              1308.9400               596.5934

 - Thermochemistry -
 -------------------
 Temperature   298.150 Kelvin.  Pressure   1.00000 Atm.
 Atom     1 has atomic number  1 and mass   1.00783

 Molecular mass:    37.00783 amu.
 Principal axes and moments of inertia in atomic units:
                           1         2         3
     Eigenvalues --    19.53486 129.63231 149.16718
           X            0.00000   0.00000   1.00000
           Y            1.00000   0.00000  -0.00000
           Z            0.00000   1.00000   0.00000
 This molecule is an asymmetric top.
 Rotational symmetry number  2.
 Rotational temperatures (Kelvin)      4.43381     0.66815     0.58065
 Rotational constants (GHZ):          92.38566    13.92200    12.09878
 Zero-point vibrational energy      34034.8 (Joules/Mol)
                                    8.13452 (Kcal/Mol)
 Warning -- explicit consideration of   2 degrees of freedom as
           vibrations may cause significant error
 Vibrational temperatures:    555.17   706.92  1074.33  1517.36  2102.80
          (Kelvin)           2230.30

 Zero-point correction=                           0.012963 (Hartree/Particle)
 Thermal correction to Energy=                    0.016484
 Thermal correction to Enthalpy=                  0.017429
 Thermal correction to Gibbs Free Energy=        -0.011162
 Sum of electronic and zero-point Energies=           -112.523559
 Sum of electronic and thermal Energies=              -112.520038
 Sum of electronic and thermal Enthalpies=            -112.519094
 Sum of electronic and thermal Free Energies=         -112.547684

                     E (Thermal)             CV                S
                      KCal/Mol        Cal/Mol-Kelvin    Cal/Mol-Kelvin
 Total                   10.344              9.943             60.173
 Electronic               0.000              0.000              2.183
 Translational            0.889              2.981             36.755
 Rotational               0.889              2.981             19.185
 Vibrational              8.567              3.982              2.050
 Vibration     1          0.755              1.500              1.016
 Vibration     2          0.847              1.269              0.680

 Optimization completed.
    -- Stationary point found.
 Normal termination of Gaussian 09 at Mon Jun 20 13:29:12 2016.
