 Gaussian 09, Revision E.01,
 Gaussian 09:  EM64L-G09RevE.01 30-Nov-2015

 ---------------------------------------------
 #p b3lyp/6-311++G(3df,2p) freq symmetry=Loose
 ---------------------------------------------

 ---------
 b3lyp opt
 ---------
 Symbolic Z-matrix:
 Charge =  3 Multiplicity = 1

                         Standard orientation:
 ---------------------------------------------------------------------
 Center     Atomic      Atomic             Coordinates (Angstroms)
 Number     Number       Type             X           Y           Z
 ---------------------------------------------------------------------
      1          1           0        0.000000   -0.000000    1.612904
      2          6           0        0.000000   -0.000000    0.341659
      3          6           0        0.000000    1.253760   -0.305238
      4          6           0       -0.000000   -1.253760   -0.305238
 ---------------------------------------------------------------------

 SCF Done:  E(RB3LYP) =  -112.468543009     A.U. after   12 cycles

 The electronic state is 1-A1.
 Alpha  occ. eigenvalues --  -11.39562 -11.39561 -11.20343  -1.76570  -1.60601
 Alpha  occ. eigenvalues --   -1.37219  -1.27100  -1.25077
 Alpha virt. eigenvalues --   -1.20306  -1.07354  -1.05263  -1.05184  -0.88006
 Alpha virt. eigenvalues --   -0.68345  -0.58977  -0.56034  -0.54993  -0.49166
 Alpha virt. eigenvalues --   -0.47822  -0.47008  -0.46923  -0.42142  -0.41595

 Mulliken charges:
               1
     1  H    0.426173
     2  C    0.455120
     3  C    1.059353
     4  C    1.059353
 Sum of Mulliken charges =   3.00000

 Dipole moment (field-independent basis, Debye):
    X=             -0.0000    Y=             -0.0000    Z=              0.1526  Tot=              0.1526
 Quadrupole moment (field-independent basis, Debye-Ang):
   XX=            -11.6813   YY=              9.2834   ZZ=             -1.7464
   XY=              0.0000   XZ=              0.0000   YZ=             -0.0000

  Exact polarizability:  11.860   0.000  47.152  -0.000  -0.000  19.448
 Approx polarizability:  16.567   0.000 443.806   0.000  -0.000  35.621

                      1                      2                      3
                     A1                     B2                     B1
 Frequencies --    335.1763               499.3505               500.1942
 Red. masses --      8.8288                 1.5452                 1.7808
 Frc consts  --      0.5844                 0.2270                 0.2625
 IR Inten    --      0.1069                52.1393               130.7612

                      4                      5                      6
                     A1                     B2                     A1
 Frequencies --    887.1845              1019.2873              1567.3113
 Red. masses --     11.9070                 2.8865                 1.0673
 Frc consts  --      5.5218                 1.7669                 1.5448
 IR Inten    --    112.8721                86.6515              1344.0513

 - Thermochemistry -
 -------------------
 Temperature   298.150 Kelvin.  Pressure   1.00000 Atm.
 Atom     1 has atomic number  1 and mass   1.00783

 Molecular mass:    37.00783 amu.
 Principal axes and moments of inertia in atomic units:
                           1         2         3
     Eigenvalues --    22.10301 134.72178 156.82479
           X            0.00000   0.00000   1.00000
           Y            1.00000   0.00000  -0.00000
           Z            0.00000   1.00000   0.00000
 This molecule is an asymmetric top.
 Rotational symmetry number  2.
 Rotational temperatures (Kelvin)      3.91864     0.64291     0.55230
 Rotational constants (GHZ):          81.65138    13.39606    11.50801
 Zero-point vibrational energy      28761.2 (Joules/Mol)
                                    6.87410 (Kcal/Mol)
 Warning -- explicit consideration of   3 degrees of freedom as
           vibrations may cause significant error
 Vibrational temperatures:    482.24   718.45   719.67  1276.46  1466.53
          (Kelvin)           2255.01

 Zero-point correction=                           0.010955 (Hartree/Particle)
 Thermal correction to Energy=                    0.014708
 Thermal correction to Enthalpy=                  0.015652
 Thermal correction to Gibbs Free Energy=        -0.012355
 Sum of electronic and zero-point Energies=           -112.457588
 Sum of electronic and thermal Energies=              -112.453835
 Sum of electronic and thermal Enthalpies=            -112.452891
 Sum of electronic and thermal Free Energies=         -112.480898

                     E (Thermal)             CV                S
                      KCal/Mol        Cal/Mol-Kelvin    Cal/Mol-Kelvin
 Total                    9.230             11.001             58.946
 Electronic               0.000              0.000              0.000
 Translational            0.889              2.981             36.755
 Rotational               0.889              2.981             19.396
 Vibrational              7.452              5.040              2.795
 Vibration     1          0.716              1.605              1.235
 Vibration     2          0.855              1.251              0.660
 Vibration     3          0.856              1.250              0.658

 Optimization completed.
    -- Stationary point found.
 Normal termination of Gaussian 09 at Mon Jun 20 13:28:55 2016.
