 Gaussian 09, Revision E.01,
 Gaussian 09:  EM64L-G09RevE.01 30-Nov-2015

 ---------------------------------------------
 #p b3lyp/6-311++G(3df,2p) freq symmetry=Loose
 ---------------------------------------------

 ---------
 b3lyp opt
 ---------
 Symbolic Z-matrix:
 Charge =  2 Multiplicity = 4

                         Standard orientation:
 ---------------------------------------------------------------------
 Center     Atomic      Atomic             Coordinates (Angstroms)
 Number     Number       Type             X           Y           Z
 ---------------------------------------------------------------------
      1          1           0        0.000000   -0.000000    1.765156
      2          6           0        0.000000   -0.000000    0.615289
      3          6           0        0.000000    0.835405   -0.454741
      4          6           0       -0.000000   -0.835405   -0.454741
 ---------------------------------------------------------------------

 SCF Done:  E(UB3LYP) =  -113.548140585     A.U. after   12 cycles

 The electronic state is 4-B2.
 Alpha  occ. eigenvalues --  -11.00655 -11.00646 -10.90679  -1.59142  -1.22920
 Alpha  occ. eigenvalues --   -1.18759  -1.07216  -1.01542  -0.99163  -0.95868
 Alpha virt. eigenvalues --   -0.73012  -0.61919  -0.58994  -0.41684  -0.37225
 Alpha virt. eigenvalues --   -0.35183  -0.30329  -0.29040  -0.25626  -0.24683
 Alpha virt. eigenvalues --   -0.23415  -0.23119  -0.22242  -0.21712  -0.21707

  Beta  occ. eigenvalues --  -10.97670 -10.97668 -10.90203  -1.54839  -1.15398
  Beta  occ. eigenvalues --   -1.13119  -0.99465
  Beta virt. eigenvalues --   -0.86316  -0.77935  -0.76307  -0.67504  -0.59634
  Beta virt. eigenvalues --   -0.47928  -0.39503  -0.34836  -0.34047  -0.30188
  Beta virt. eigenvalues --   -0.27658  -0.23547  -0.22892  -0.22223  -0.21779

 Mulliken charges and spin densities:
               1          2
     1  H    0.413691   0.137439
     2  C    0.346798   0.013863
     3  C    0.619755   1.424349
     4  C    0.619755   1.424349
 Sum of Mulliken charges =   2.00000   3.00000

 Dipole moment (field-independent basis, Debye):
    X=             -0.0000    Y=              0.0000    Z=              0.3849  Tot=              0.3849
 Quadrupole moment (field-independent basis, Debye-Ang):
   XX=            -12.5603   YY=             -6.0346   ZZ=             -3.4679
   XY=              0.0000   XZ=              0.0000   YZ=             -0.0000

  Exact polarizability:  14.757  -0.000  22.004  -0.000  -0.000  22.280
 Approx polarizability:  19.792   0.000  49.071   0.000   0.000  39.171

                      1                      2                      3
                     B1                     A1                     B2
 Frequencies --    123.1092               607.9603               818.2237
 Red. masses --      1.3737                 9.7057                 1.2182
 Frc consts  --      0.0123                 2.1136                 0.4805
 IR Inten    --     14.6051                50.3113                81.3102

                      4                      5                      6
                     B2                     A1                     A1
 Frequencies --   1161.9574              1479.3347              2537.0716
 Red. masses --      7.8569                 6.5513                 1.1383
 Frc consts  --      6.2500                 8.4472                 4.3170
 IR Inten    --     24.6052                19.8126               851.0085

 - Thermochemistry -
 -------------------
 Temperature   298.150 Kelvin.  Pressure   1.00000 Atm.
 Atom     1 has atomic number  1 and mass   1.00783

 Molecular mass:    37.00783 amu.
 Principal axes and moments of inertia in atomic units:
                           1         2         3
     Eigenvalues --    44.86396  59.81404 104.67800
           X            0.00000   0.00000   1.00000
           Y            1.00000   0.00000  -0.00000
           Z            0.00000   1.00000   0.00000
 This molecule is an asymmetric top.
 Rotational symmetry number  2.
 Rotational temperatures (Kelvin)      1.93059     1.44805     0.82743
 Rotational constants (GHZ):          40.22697    30.17254    17.24088
 Zero-point vibrational energy      40240.3 (Joules/Mol)
                                    9.61767 (Kcal/Mol)
 Warning -- explicit consideration of   2 degrees of freedom as
           vibrations may cause significant error
 Vibrational temperatures:    177.13   874.72  1177.24  1671.80  2128.43
          (Kelvin)           3650.28

 Zero-point correction=                           0.015327 (Hartree/Particle)
 Thermal correction to Energy=                    0.019104
 Thermal correction to Enthalpy=                  0.020049
 Thermal correction to Gibbs Free Energy=        -0.009477
 Sum of electronic and zero-point Energies=           -113.532814
 Sum of electronic and thermal Energies=              -113.529036
 Sum of electronic and thermal Enthalpies=            -113.528092
 Sum of electronic and thermal Free Energies=         -113.557618

                     E (Thermal)             CV                S
                      KCal/Mol        Cal/Mol-Kelvin    Cal/Mol-Kelvin
 Total                   11.988              9.841             62.142
 Electronic               0.000              0.000              2.755
 Translational            0.889              2.981             36.755
 Rotational               0.889              2.981             18.891
 Vibrational             10.211              3.879              3.741
 Vibration     1          0.610              1.930              3.051
 Vibration     2          0.967              1.015              0.436

 Optimization completed.
    -- Stationary point found.
 Normal termination of Gaussian 09 at Mon Jun 20 13:27:53 2016.
