 Gaussian 09, Revision E.01,
 Gaussian 09:  EM64L-G09RevE.01 30-Nov-2015

 ---------------------------------------------
 #p b3lyp/6-311++G(3df,2p) freq symmetry=Loose
 ---------------------------------------------

 ---------
 b3lyp opt
 ---------
 Symbolic Z-matrix:
 Charge =  2 Multiplicity = 2

                         Standard orientation:
 ---------------------------------------------------------------------
 Center     Atomic      Atomic             Coordinates (Angstroms)
 Number     Number       Type             X           Y           Z
 ---------------------------------------------------------------------
      1          6           0        0.000000   -0.000000   -1.396780
      2          6           0       -0.000000    0.000000   -0.126631
      3          6           0        0.000000    0.000000    1.146630
      4          1           0        0.000000   -0.000000    2.260686
 ---------------------------------------------------------------------

 SCF Done:  E(UB3LYP) =  -113.670737945     A.U. after   15 cycles

 The electronic state is 2-SG.
 Alpha  occ. eigenvalues --  -10.99818 -10.93683 -10.84095  -1.44876  -1.33945
 Alpha  occ. eigenvalues --   -1.12691  -1.03445  -0.96465  -0.96465
 Alpha virt. eigenvalues --   -0.75957  -0.75957  -0.50366  -0.50366  -0.41274
 Alpha virt. eigenvalues --   -0.37072  -0.28909  -0.28324  -0.28324  -0.24830
 Alpha virt. eigenvalues --   -0.22541  -0.22541  -0.22048  -0.20789  -0.20789

  Beta  occ. eigenvalues --  -10.96622 -10.94411 -10.83897  -1.44012  -1.32532
  Beta  occ. eigenvalues --   -1.13162  -0.95628  -0.95628
  Beta virt. eigenvalues --   -0.78163  -0.73872  -0.73872  -0.48369  -0.48369
  Beta virt. eigenvalues --   -0.41944  -0.37014  -0.28720  -0.28311  -0.28311
  Beta virt. eigenvalues --   -0.22880  -0.22414  -0.22414  -0.20856  -0.20856

 Mulliken charges and spin densities:
               1          2
     1  C    0.475722   1.326219
     2  C    0.676979  -0.006095
     3  C    0.352513  -0.332365
     4  H    0.494786   0.012241
 Sum of Mulliken charges =   2.00000   1.00000

 Dipole moment (field-independent basis, Debye):
    X=              0.0000    Y=             -0.0000    Z=              0.9129  Tot=              0.9129
 Quadrupole moment (field-independent basis, Debye-Ang):
   XX=            -12.3443   YY=            -12.3443   ZZ=             10.8610
   XY=             -0.0000   XZ=              0.0000   YZ=             -0.0000

  Exact polarizability:  12.865  -0.000  12.865  -0.001  -0.011  38.574
 Approx polarizability:  16.981  -0.000  16.981  -0.000   0.000 115.604

                      1                      2                      3
                     PI                     PI                     PI
 Frequencies --    251.1417               251.1478               837.0839
 Red. masses --      4.8744                 4.8744                 1.3615
 Frc consts  --      0.1811                 0.1811                 0.5621
 IR Inten    --     31.3032                31.3032                12.6393

                      4                      5                      6
                     PI                     SG                     SG
 Frequencies --    837.0840              1262.2436              2129.6335
 Red. masses --      1.3615                 7.1910                 6.4904
 Frc consts  --      0.5621                 6.7503                17.3434
 IR Inten    --     12.6394                 5.4538               968.5897

                      7
                     SG
 Frequencies --   2983.2099
 Red. masses --      1.1890
 Frc consts  --      6.2347
 IR Inten    --    281.1106

 - Thermochemistry -
 -------------------
 Temperature   298.150 Kelvin.  Pressure   1.00000 Atm.
 Atom     1 has atomic number  6 and mass  12.00000

 Molecular mass:    37.00783 amu.
 Principal axes and moments of inertia in atomic units:
                           1         2         3
     Eigenvalues --     0.00000 158.54186 158.54186
           X            0.00000   0.11237   0.99367
           Y            0.00000   0.99367  -0.11237
           Z            1.00000  -0.00000   0.00000
 This molecule is a prolate symmetric top.
 Rotational symmetry number  1.
 Rotational temperature (Kelvin)      0.54632
 Rotational constant (GHZ):          11.383373
 Zero-point vibrational energy      51149.6 (Joules/Mol)
                                   12.22505 (Kcal/Mol)
 Warning -- explicit consideration of   2 degrees of freedom as
           vibrations may cause significant error
 Vibrational temperatures:    361.34   361.35  1204.38  1204.38  1816.08
          (Kelvin)           3064.06  4292.17

 Zero-point correction=                           0.019482 (Hartree/Particle)
 Thermal correction to Energy=                    0.022962
 Thermal correction to Enthalpy=                  0.023906
 Thermal correction to Gibbs Free Energy=        -0.002929
 Sum of electronic and zero-point Energies=           -113.651256
 Sum of electronic and thermal Energies=              -113.647776
 Sum of electronic and thermal Enthalpies=            -113.646832
 Sum of electronic and thermal Free Energies=         -113.673667

                     E (Thermal)             CV                S
                      KCal/Mol        Cal/Mol-Kelvin    Cal/Mol-Kelvin
 Total                   14.409              9.848             56.479
 Electronic               0.000              0.000              1.377
 Translational            0.889              2.981             36.755
 Rotational               0.592              1.987             14.511
 Vibrational             12.928              4.880              3.836
 Vibration     1          0.663              1.761              1.723
 Vibration     2          0.663              1.761              1.723

 Optimization completed.
    -- Stationary point found.
 Normal termination of Gaussian 09 at Mon Jun 20 13:28:01 2016.
