 Gaussian 09, Revision E.01,
 Gaussian 09:  EM64L-G09RevE.01 30-Nov-2015

 ---------------------------------------------
 #p b3lyp/6-311++G(3df,2p) freq symmetry=Loose
 ---------------------------------------------

 ---------
 b3lyp opt
 ---------
 Symbolic Z-matrix:
 Charge =  0 Multiplicity = 2

                         Standard orientation:
 ---------------------------------------------------------------------
 Center     Atomic      Atomic             Coordinates (Angstroms)
 Number     Number       Type             X           Y           Z
 ---------------------------------------------------------------------
      1          6           0        0.192169    0.758834    0.000000
      2          1           0        0.055216    1.832659    0.000000
      3          6           0       -0.585709   -0.639054   -0.000000
      4          6           0        0.192169   -0.212612    1.085579
      5          6           0        0.192169   -0.212612   -1.085579
 ---------------------------------------------------------------------

 SCF Done:  E(UB3LYP) =  -152.741023896     A.U. after   15 cycles

 The electronic state is 2-A'.
 Alpha  occ. eigenvalues --  -10.28924 -10.28145 -10.25711 -10.25707  -1.01779
 Alpha  occ. eigenvalues --   -0.69652  -0.66035  -0.52350  -0.44901  -0.41703
 Alpha  occ. eigenvalues --   -0.34759  -0.29463  -0.27906
 Alpha virt. eigenvalues --   -0.11118  -0.05248  -0.02665  -0.00029   0.03481
 Alpha virt. eigenvalues --    0.04281   0.04368   0.08104   0.08123   0.08686
 Alpha virt. eigenvalues --    0.09465   0.09784   0.10480   0.12185   0.13614

  Beta  occ. eigenvalues --  -10.28418 -10.26878 -10.25575 -10.25570  -1.00948
  Beta  occ. eigenvalues --   -0.69200  -0.64452  -0.48462  -0.43877  -0.40883
  Beta  occ. eigenvalues --   -0.33437  -0.27318
  Beta virt. eigenvalues --   -0.16508  -0.11053  -0.04037  -0.01392   0.00608
  Beta virt. eigenvalues --    0.04327   0.04434   0.04452   0.08123   0.08218
  Beta virt. eigenvalues --    0.09242   0.09418   0.10106   0.10744   0.12199

 Mulliken charges and spin densities:
               1          2
     1  C    0.205379   0.310498
     2  H    0.213563   0.015942
     3  C    0.363905   0.676859
     4  C   -0.391424  -0.001649
     5  C   -0.391424  -0.001649
 Sum of Mulliken charges =  -0.00000   1.00000

 Dipole moment (field-independent basis, Debye):
    X=             -1.1079    Y=              1.9695    Z=              0.0000  Tot=              2.2598
 Quadrupole moment (field-independent basis, Debye-Ang):
   XX=            -23.4460   YY=            -20.2019   ZZ=            -29.7759
   XY=              0.1980   XZ=              0.0000   YZ=             -0.0000

  Exact polarizability:  31.598   3.240  37.725   0.000   0.000  52.872
 Approx polarizability:  51.276   8.682  62.264   0.000  -0.000 102.026

                      1                      2                      3
                     A'                     A"                     A'
 Frequencies --    517.5507               598.6194               752.8687
 Red. masses --     11.2603                11.3652                 2.5917
 Frc consts  --      1.7771                 2.3996                 0.8655
 IR Inten    --      9.4224                 0.7000                 0.5966

                      4                      5                      6
                     A'                     A"                     A'
 Frequencies --    902.9431               983.1247              1055.0648
 Red. masses --      2.8829                 1.4276                 3.4747
 Frc consts  --      1.3848                 0.8130                 2.2789
 IR Inten    --     12.1376                29.5033                 4.6371

                      7                      8                      9
                     A"                     A'                     A'
 Frequencies --   1231.7110              1343.5848              3176.8377
 Red. masses --      3.5845                 9.1074                 1.0949
 Frc consts  --      3.2040                 9.6867                 6.5105
 IR Inten    --      5.0560                 1.4548                 1.7452

 - Thermochemistry -
 -------------------
 Temperature   298.150 Kelvin.  Pressure   1.00000 Atm.
 Atom     1 has atomic number  6 and mass  12.00000

 Molecular mass:    49.00783 amu.
 Principal axes and moments of inertia in atomic units:
                           1         2         3
     Eigenvalues --    77.35673 112.55386 166.80774
           X           -0.00000   0.38178   0.92425
           Y            0.00000   0.92425  -0.38178
           Z            1.00000  -0.00000   0.00000
 This molecule is an asymmetric top.
 Rotational symmetry number  1.
 Rotational temperatures (Kelvin)      1.11967     0.76953     0.51924
 Rotational constants (GHZ):          23.33011    16.03447    10.81929
 Zero-point vibrational energy      63176.6 (Joules/Mol)
                                   15.09957 (Kcal/Mol)
 Warning -- explicit consideration of   2 degrees of freedom as
           vibrations may cause significant error
 Vibrational temperatures:    744.64   861.28  1083.21  1299.13  1414.50
          (Kelvin)           1518.00  1772.16  1933.12  4570.76

 Zero-point correction=                           0.024063 (Hartree/Particle)
 Thermal correction to Energy=                    0.027507
 Thermal correction to Enthalpy=                  0.028451
 Thermal correction to Gibbs Free Energy=        -0.001273
 Sum of electronic and zero-point Energies=           -152.716961
 Sum of electronic and thermal Energies=              -152.713517
 Sum of electronic and thermal Enthalpies=            -152.712573
 Sum of electronic and thermal Free Energies=         -152.742297

                     E (Thermal)             CV                S
                      KCal/Mol        Cal/Mol-Kelvin    Cal/Mol-Kelvin
 Total                   17.261             10.465             62.559
 Electronic               0.000              0.000              1.377
 Translational            0.889              2.981             37.592
 Rotational               0.889              2.981             21.901
 Vibrational             15.484              4.503              1.689
 Vibration     1          0.873              1.211              0.616
 Vibration     2          0.957              1.035              0.452

 Optimization completed.
    -- Stationary point found.
 Normal termination of Gaussian 09 at Mon Jun 20 13:30:41 2016.
