 Gaussian 09, Revision E.01,
 Gaussian 09:  EM64L-G09RevE.01 30-Nov-2015

 ---------------------------------------------
 #p b3lyp/6-311++G(3df,2p) freq symmetry=Loose
 ---------------------------------------------

 ---------
 b3lyp opt
 ---------
 Symbolic Z-matrix:
 Charge =  2 Multiplicity = 4

                         Standard orientation:
 ---------------------------------------------------------------------
 Center     Atomic      Atomic             Coordinates (Angstroms)
 Number     Number       Type             X           Y           Z
 ---------------------------------------------------------------------
      1          1           0        1.549633   -0.868311    0.000000
      2          6           0        0.450305   -0.588836    0.000000
      3          6           0       -0.000000    0.666835    0.000000
      4          6           0       -0.441390    1.866246    0.000000
      5          6           0       -0.267187   -1.799526   -0.000000
 ---------------------------------------------------------------------

 SCF Done:  E(UB3LYP) =  -151.708843179     A.U. after   22 cycles

 The electronic state is 4-A".
 Alpha  occ. eigenvalues --  -10.89616 -10.88933 -10.82634 -10.79418  -1.41165
 Alpha  occ. eigenvalues --   -1.34634  -1.19092  -1.04076  -0.96212  -0.93177
 Alpha  occ. eigenvalues --   -0.90701  -0.86552  -0.83846
 Alpha virt. eigenvalues --   -0.66000  -0.63079  -0.56674  -0.45602  -0.36534
 Alpha virt. eigenvalues --   -0.32373  -0.28280  -0.27373  -0.27152  -0.23205
 Alpha virt. eigenvalues --   -0.23115  -0.22352  -0.21351  -0.20611  -0.18778

  Beta  occ. eigenvalues --  -10.88355 -10.85050 -10.82158 -10.79080  -1.38530
  Beta  occ. eigenvalues --   -1.28790  -1.16559  -1.02556  -0.89067  -0.83686
  Beta virt. eigenvalues --   -0.74304  -0.71317  -0.70182  -0.64208  -0.55774
  Beta virt. eigenvalues --   -0.49209  -0.40572  -0.35716  -0.31691  -0.27273
  Beta virt. eigenvalues --   -0.26932  -0.26542  -0.22523  -0.21528  -0.21098

 Mulliken charges and spin densities:
               1          2
     1  H    0.288040   0.032496
     2  C    0.074778   0.149718
     3  C    0.786155   0.417309
     4  C    0.509859   1.688617
     5  C    0.341168   0.711859
 Sum of Mulliken charges =   2.00000   3.00000

 Dipole moment (field-independent basis, Debye):
    X=              0.5700    Y=              0.6325    Z=              0.0000  Tot=              0.8515
 Quadrupole moment (field-independent basis, Debye-Ang):
   XX=            -12.0420   YY=              6.1574   ZZ=            -18.1117
   XY=             -4.8225   XZ=              0.0000   YZ=             -0.0000

  Exact polarizability:  26.306  -0.887  90.184   0.000  -0.000  19.971
 Approx polarizability:  43.996   1.022 246.287   0.000   0.000  26.707

                      1                      2                      3
                     A'                     A"                     A'
 Frequencies --    215.1487               349.5093               488.9109
 Red. masses --      9.7377                 3.4945                 7.1070
 Frc consts  --      0.2656                 0.2515                 1.0009
 IR Inten    --      4.9101                19.8244                 3.0848

                      4                      5                      6
                     A"                     A'                     A'
 Frequencies --    629.6636               841.1695              1003.5794
 Red. masses --      2.0965                 2.3041                 1.9418
 Frc consts  --      0.4897                 0.9606                 1.1523
 IR Inten    --     11.6768                69.6160                15.5376

                      7                      8                      9
                     A'                     A'                     A'
 Frequencies --   1321.6408              1877.4660              2685.5451
 Red. masses --      7.7813                11.3887                 1.0815
 Frc consts  --      8.0081                23.6520                 4.5957
 IR Inten    --    206.1872               427.0086               509.3872

 - Thermochemistry -
 -------------------
 Temperature   298.150 Kelvin.  Pressure   1.00000 Atm.
 Atom     1 has atomic number  1 and mass   1.00783

 Molecular mass:    49.00783 amu.
 Principal axes and moments of inertia in atomic units:
                           1         2         3
     Eigenvalues --    25.39624 327.76522 353.16147
           X           -0.10242   0.99474   0.00000
           Y            0.99474   0.10242   0.00000
           Z           -0.00000  -0.00000   1.00000
 This molecule is an asymmetric top.
 Rotational symmetry number  1.
 Rotational temperatures (Kelvin)      3.41050     0.26426     0.24525
 Rotational constants (GHZ):          71.06331     5.50620     5.11024
 Zero-point vibrational energy      56300.0 (Joules/Mol)
                                   13.45603 (Kcal/Mol)
 Warning -- explicit consideration of   3 degrees of freedom as
           vibrations may cause significant error
 Vibrational temperatures:    309.55   502.87   703.43   905.94  1210.25
          (Kelvin)           1443.93  1901.54  2701.25  3863.90

 Zero-point correction=                           0.021444 (Hartree/Particle)
 Thermal correction to Energy=                    0.025667
 Thermal correction to Enthalpy=                  0.026611
 Thermal correction to Gibbs Free Energy=        -0.005460
 Sum of electronic and zero-point Energies=           -151.687400
 Sum of electronic and thermal Energies=              -151.683176
 Sum of electronic and thermal Enthalpies=            -151.682232
 Sum of electronic and thermal Free Energies=         -151.714303

                     E (Thermal)             CV                S
                      KCal/Mol        Cal/Mol-Kelvin    Cal/Mol-Kelvin
 Total                   16.106             12.716             67.500
 Electronic               0.000              0.000              2.755
 Translational            0.889              2.981             37.592
 Rotational               0.889              2.981             22.601
 Vibrational             14.329              6.755              4.552
 Vibration     1          0.645              1.818              2.000
 Vibration     2          0.727              1.576              1.168
 Vibration     3          0.845              1.275              0.686

 Optimization completed.
    -- Stationary point found.
 Normal termination of Gaussian 09 at Mon Jun 20 13:43:48 2016.
