 Gaussian 09, Revision E.01,
 Gaussian 09:  EM64L-G09RevE.01 30-Nov-2015

 ---------------------------------------------
 #p b3lyp/6-311++G(3df,2p) freq symmetry=Loose
 ---------------------------------------------

 ---------
 b3lyp opt
 ---------
 Symbolic Z-matrix:
 Charge =  3 Multiplicity = 3

                         Standard orientation:
 ---------------------------------------------------------------------
 Center     Atomic      Atomic             Coordinates (Angstroms)
 Number     Number       Type             X           Y           Z
 ---------------------------------------------------------------------
      1          6           0       -0.001587   -0.844046    0.000000
      2          1           0       -0.004511   -2.034147    0.000000
      3          6           0        0.000780    0.892127   -0.000000
      4          6           0        0.000780    0.145474    1.150112
      5          6           0        0.000780    0.145474   -1.150112
 ---------------------------------------------------------------------

 SCF Done:  E(UB3LYP) =  -150.755038883     A.U. after   13 cycles

 The electronic state is 3-A".
 Alpha  occ. eigenvalues --  -11.26121 -11.26118 -11.24846 -11.21011  -1.89178
 Alpha  occ. eigenvalues --   -1.61512  -1.49900  -1.33815  -1.32105  -1.29713
 Alpha  occ. eigenvalues --   -1.27673  -1.19936
 Alpha virt. eigenvalues --   -1.03405  -0.98643  -0.97447  -0.81362  -0.72418
 Alpha virt. eigenvalues --   -0.66858  -0.57705  -0.56769  -0.52603  -0.48700
 Alpha virt. eigenvalues --   -0.47956  -0.45219  -0.43747  -0.43392  -0.42446

  Beta  occ. eigenvalues --  -11.24793 -11.23557 -11.23552 -11.20937  -1.87509
  Beta  occ. eigenvalues --   -1.58303  -1.49112  -1.31272  -1.29830  -1.28610
  Beta virt. eigenvalues --   -1.06695  -0.98665  -0.97797  -0.97636  -0.96483
  Beta virt. eigenvalues --   -0.77261  -0.68692  -0.64757  -0.57113  -0.56372
  Beta virt. eigenvalues --   -0.50061  -0.48595  -0.45132  -0.43884  -0.42881

 Mulliken charges and spin densities:
               1          2
     1  C    0.332635  -0.034332
     2  H    0.454430   0.027572
     3  C    0.873270  -0.180162
     4  C    0.669832   1.093461
     5  C    0.669832   1.093461
 Sum of Mulliken charges =   3.00000   2.00000

 Dipole moment (field-independent basis, Debye):
    X=             -0.0044    Y=             -1.2724    Z=             -0.0000  Tot=              1.2724
 Quadrupole moment (field-independent basis, Debye-Ang):
   XX=            -14.6630   YY=             -0.2991   ZZ=             -2.8824
   XY=              0.0252   XZ=             -0.0000   YZ=              0.0000

  Exact polarizability:  15.641   0.022  29.334   0.000  -0.000  25.695
 Approx polarizability:  22.758   0.056  65.538   0.000   0.000  55.225

                      1                      2                      3
                     A'                     A'                     A"
 Frequencies --    295.2966               647.0457               694.5887
 Red. masses --      7.0610                10.6848                 3.6629
 Frc consts  --      0.3628                 2.6356                 1.0412
 IR Inten    --     14.6718                16.8013               169.6981

                      4                      5                      6
                     A'                     A'                     A"
 Frequencies --    755.5707               865.5354               887.9534
 Red. masses --      1.3488                 7.6589                 1.4547
 Frc consts  --      0.4537                 3.3805                 0.6758
 IR Inten    --     57.7389                13.5335                 2.3282

                      7                      8                      9
                     A'                     A"                     A'
 Frequencies --   1291.6437              1431.5675              2186.4839
 Red. masses --     11.9610                 9.3188                 1.0920
 Frc consts  --     11.7572                11.2521                 3.0757
 IR Inten    --     12.0305               181.3722              1345.5522

 - Thermochemistry -
 -------------------
 Temperature   298.150 Kelvin.  Pressure   1.00000 Atm.
 Atom     1 has atomic number  6 and mass  12.00000

 Molecular mass:    49.00783 amu.
 Principal axes and moments of inertia in atomic units:
                           1         2         3
     Eigenvalues --    81.04407 113.36782 194.41179
           X            0.00000   0.00160   1.00000
           Y            0.00000   1.00000  -0.00160
           Z            1.00000   0.00000   0.00000
 This molecule is an asymmetric top.
 Rotational symmetry number  1.
 Rotational temperatures (Kelvin)      1.06872     0.76401     0.44552
 Rotational constants (GHZ):          22.26864    15.91934     9.28309
 Zero-point vibrational energy      54165.0 (Joules/Mol)
                                   12.94575 (Kcal/Mol)
 Warning -- explicit consideration of   1 degrees of freedom as
           vibrations may cause significant error
 Vibrational temperatures:    424.87   930.95   999.36  1087.10  1245.31
          (Kelvin)           1277.57  1858.38  2059.70  3145.86

 Zero-point correction=                           0.020630 (Hartree/Particle)
 Thermal correction to Energy=                    0.024368
 Thermal correction to Enthalpy=                  0.025312
 Thermal correction to Gibbs Free Energy=        -0.005386
 Sum of electronic and zero-point Energies=           -150.734409
 Sum of electronic and thermal Energies=              -150.730671
 Sum of electronic and thermal Enthalpies=            -150.729726
 Sum of electronic and thermal Free Energies=         -150.760425

                     E (Thermal)             CV                S
                      KCal/Mol        Cal/Mol-Kelvin    Cal/Mol-Kelvin
 Total                   15.291             11.463             64.611
 Electronic               0.000              0.000              2.183
 Translational            0.889              2.981             37.592
 Rotational               0.889              2.981             22.106
 Vibrational             13.514              5.501              2.729
 Vibration     1          0.690              1.683              1.443

 Optimization completed.
    -- Stationary point found.
 Normal termination of Gaussian 09 at Mon Jun 20 13:47:03 2016.
