 Gaussian 09, Revision E.01,
 Gaussian 09:  EM64L-G09RevE.01 30-Nov-2015

 ---------------------------------------------
 #p b3lyp/6-311++G(3df,2p) freq symmetry=Loose
 ---------------------------------------------

 ---------
 b3lyp opt
 ---------
 Symbolic Z-matrix:
 Charge =  1 Multiplicity = 3

                         Standard orientation:
 ---------------------------------------------------------------------
 Center     Atomic      Atomic             Coordinates (Angstroms)
 Number     Number       Type             X           Y           Z
 ---------------------------------------------------------------------
      1          6           0        0.183221    0.880687   -0.000000
      2          1           0        0.040354    1.956905   -0.000000
      3          6           0       -0.556390   -0.857025    0.000000
      4          6           0        0.183221   -0.174907    0.948446
      5          6           0        0.183221   -0.174907   -0.948446
 ---------------------------------------------------------------------

 SCF Done:  E(UB3LYP) =  -152.393418489     A.U. after   14 cycles

 The electronic state is 3-A".
 Alpha  occ. eigenvalues --  -10.57741 -10.57537 -10.56122 -10.56118  -1.29406
 Alpha  occ. eigenvalues --   -0.96114  -0.93350  -0.80719  -0.73102  -0.72617
 Alpha  occ. eigenvalues --   -0.63925  -0.58681  -0.55923
 Alpha virt. eigenvalues --   -0.37259  -0.34840  -0.29355  -0.15875  -0.13201
 Alpha virt. eigenvalues --   -0.12880  -0.12113  -0.09879  -0.07723  -0.06756
 Alpha virt. eigenvalues --   -0.06120  -0.05765  -0.05017  -0.04525  -0.03133

  Beta  occ. eigenvalues --  -10.57146 -10.56238 -10.54818 -10.54817  -1.27965
  Beta  occ. eigenvalues --   -0.94384  -0.90351  -0.78413  -0.70862  -0.69298
  Beta  occ. eigenvalues --   -0.57847
  Beta virt. eigenvalues --   -0.44220  -0.41225  -0.34822  -0.32481  -0.25597
  Beta virt. eigenvalues --   -0.15499  -0.12645  -0.12031  -0.11341  -0.09584
  Beta virt. eigenvalues --   -0.07503  -0.06402  -0.05333  -0.05276  -0.04266

 Mulliken charges and spin densities:
               1          2
     1  C    0.226837   0.139266
     2  H    0.312664   0.004234
     3  C    0.368899   0.643309
     4  C    0.045800   0.606596
     5  C    0.045800   0.606596
 Sum of Mulliken charges =   1.00000   2.00000

 Dipole moment (field-independent basis, Debye):
    X=             -0.2071    Y=              1.4767    Z=              0.0000  Tot=              1.4912
 Quadrupole moment (field-independent basis, Debye-Ang):
   XX=            -19.2770   YY=            -12.9689   ZZ=            -19.3367
   XY=              0.6661   XZ=             -0.0000   YZ=              0.0000

  Exact polarizability:  24.963   4.778  33.993   0.000   0.000  41.871
 Approx polarizability:  40.390  12.504  61.270  -0.000   0.000  93.200

                      1                      2                      3
                     A'                     A'                     A"
 Frequencies --    476.1408               531.0456               846.6425
 Red. masses --      8.2191                 4.4602                11.8493
 Frc consts  --      1.0979                 0.7411                 5.0043
 IR Inten    --     21.3673                 0.9421                 7.0477

                      4                      5                      6
                     A'                     A"                     A"
 Frequencies --    908.8511              1048.7858              1222.4195
 Red. masses --      1.5208                 1.2770                 5.3332
 Frc consts  --      0.7401                 0.8276                 4.6955
 IR Inten    --      4.7628                14.7617                 0.1671

                      7                      8                      9
                     A'                     A'                     A'
 Frequencies --   1296.0560              1430.3321              3193.9655
 Red. masses --      7.0947                10.0509                 1.1061
 Frc consts  --      7.0216                12.1152                 6.6485
 IR Inten    --     30.6407                 5.4010                82.4099

 - Thermochemistry -
 -------------------
 Temperature   298.150 Kelvin.  Pressure   1.00000 Atm.
 Atom     1 has atomic number  6 and mass  12.00000

 Molecular mass:    49.00783 amu.
 Principal axes and moments of inertia in atomic units:
                           1         2         3
     Eigenvalues --    86.07012  98.42898 166.55169
           X            0.32715   0.00000   0.94497
           Y            0.94497   0.00000  -0.32715
           Z            0.00000   1.00000   0.00000
 This molecule is an asymmetric top.
 Rotational symmetry number  1.
 Rotational temperatures (Kelvin)      1.00632     0.87996     0.52004
 Rotational constants (GHZ):          20.96827    18.33547    10.83592
 Zero-point vibrational energy      65520.9 (Joules/Mol)
                                   15.65987 (Kcal/Mol)
 Warning -- explicit consideration of   2 degrees of freedom as
           vibrations may cause significant error
 Vibrational temperatures:    685.06   764.06  1218.13  1307.63  1508.97
          (Kelvin)           1758.79  1864.73  2057.93  4595.40

 Zero-point correction=                           0.024956 (Hartree/Particle)
 Thermal correction to Energy=                    0.028415
 Thermal correction to Enthalpy=                  0.029359
 Thermal correction to Gibbs Free Energy=        -0.000773
 Sum of electronic and zero-point Energies=           -152.368463
 Sum of electronic and thermal Energies=              -152.365004
 Sum of electronic and thermal Enthalpies=            -152.364060
 Sum of electronic and thermal Free Energies=         -152.394192

                     E (Thermal)             CV                S
                      KCal/Mol        Cal/Mol-Kelvin    Cal/Mol-Kelvin
 Total                   17.830             10.274             63.418
 Electronic               0.000              0.000              2.183
 Translational            0.889              2.981             37.592
 Rotational               0.889              2.981             21.872
 Vibrational             16.053              4.312              1.771
 Vibration     1          0.833              1.303              0.721
 Vibration     2          0.886              1.181              0.585

 Optimization completed.
    -- Stationary point found.
 Normal termination of Gaussian 09 at Mon Jun 20 13:39:06 2016.
