 Gaussian 09, Revision E.01,
 Gaussian 09:  EM64L-G09RevE.01 30-Nov-2015

 -------------------------------------------------
 #p b3lyp/6-311++G(3df,2p) opt freq symmetry=Loose
 -------------------------------------------------

 ---------
 b3lyp opt
 ---------
 Symbolic Z-matrix:
 Charge =  1 Multiplicity = 1

 SCF Done:  E(RB3LYP) =  -152.425400478     A.U. after   12 cycles
 Optimization completed.
    -- Stationary point found.
 Normal termination of Gaussian 09 at Tue Jul  5 14:56:11 2016.

 ----------------------------------------------------------------------
 #P Geom=AllCheck Guess=TCheck SCRF=Check GenChk RB3LYP/6-311++G(3df,2p
 ) Freq
 ----------------------------------------------------------------------

 Structure from the checkpoint file:  "/scratch/sergio/HC4.q1.m1-1.bis.com-2105143/Gau-14688.chk"
 ---------
 b3lyp opt
 ---------
 Charge =  1 Multiplicity = 1

                         Standard orientation:
 ---------------------------------------------------------------------
 Center     Atomic      Atomic             Coordinates (Angstroms)
 Number     Number       Type             X           Y           Z
 ---------------------------------------------------------------------
      1          1           0        0.000000    0.000000   -2.872565
      2          6           0        0.000000    0.000000   -1.795981
      3          6           0        0.000000    0.000000   -0.551402
      4          6           0        0.000000    0.000000    0.742785
      5          6           0        0.000000    0.000000    2.083358
 ---------------------------------------------------------------------

 SCF Done:  E(RB3LYP) =  -152.425400478     A.U. after    1 cycles

 Unable to determine electronic state:  partially filled degenerate orbitals.
 Alpha  occ. eigenvalues --  -10.55217 -10.53997 -10.52186 -10.51978  -1.11853
 Alpha  occ. eigenvalues --   -1.04426  -0.94036  -0.82662  -0.65496  -0.65123
 Alpha  occ. eigenvalues --   -0.56498  -0.53957
 Alpha virt. eigenvalues --   -0.48858  -0.32632  -0.32316  -0.16581  -0.15732
 Alpha virt. eigenvalues --   -0.14562  -0.14353  -0.10460  -0.10371  -0.10140
 Alpha virt. eigenvalues --   -0.06823  -0.05246  -0.05114  -0.03755  -0.00966

 Mulliken charges:
               1
     1  H    0.404486
     2  C    0.474645
     3  C   -0.277817
     4  C    0.739853
     5  C   -0.341168
 Sum of Mulliken charges =   1.00000

 Dipole moment (field-independent basis, Debye):
    X=              0.0000    Y=              0.0000    Z=             -4.0117  Tot=              4.0117
 Quadrupole moment (field-independent basis, Debye-Ang):
   XX=            -18.4362   YY=            -21.7462   ZZ=             -4.2429
   XY=              0.0000   XZ=              0.0000   YZ=              0.0000

  Exact polarizability:  23.903  -0.000  23.876  -0.000   0.000  81.425
 Approx polarizability:  35.324  -0.000  32.570  -0.000  -0.000 210.278

                      1                      2                      3
                     ?A                     ?A                     ?A
 Frequencies --     53.1683               188.2138               303.7340
 Red. masses --      8.3101                 7.0805                 4.2465
 Frc consts  --      0.0138                 0.1478                 0.2308
 IR Inten    --     13.3347                 0.8390                33.2658

                      4                      5                      6
                     ?A                     ?A                     ?A
 Frequencies --    474.0405               520.9634               919.7675
 Red. masses --      4.2571                 1.4450                 1.4038
 Frc consts  --      0.5636                 0.2311                 0.6997
 IR Inten    --     21.0265                44.1986                 3.5788

                      7                      8                      9
                     SG                     SG                     SG
 Frequencies --    922.6383              1654.2771              2130.4796
 Red. masses --      9.0294                 8.1892                 8.7302
 Frc consts  --      4.5287                13.2041                23.3469
 IR Inten    --     27.4829               469.3241                 2.0052

                     10
                     SG
 Frequencies --   3321.0971
 Red. masses --      1.1414
 Frc consts  --      7.4172
 IR Inten    --    236.1247

 - Thermochemistry -
 -------------------
 Temperature   298.150 Kelvin.  Pressure   1.00000 Atm.
 Atom     1 has atomic number  1 and mass   1.00783

 Molecular mass:    49.00783 amu.
 Principal axes and moments of inertia in atomic units:
                           1         2         3
     Eigenvalues --     0.00000 389.99912 389.99912
           X            0.00000  -0.00000   1.00000
           Y            0.00000   1.00000   0.00000
           Z            1.00000   0.00000   0.00000
 This molecule is a prolate symmetric top.
 Rotational symmetry number  1.
 Rotational temperature (Kelvin)      0.22209
 Rotational constant (GHZ):           4.627552
 Zero-point vibrational energy      62734.4 (Joules/Mol)
                                   14.99389 (Kcal/Mol)
 Warning -- explicit consideration of   5 degrees of freedom as
           vibrations may cause significant error
 Vibrational temperatures:     76.50   270.80   437.00   682.04   749.55
          (Kelvin)           1323.34  1327.47  2380.13  3065.28  4778.31

 Zero-point correction=                           0.023894 (Hartree/Particle)
 Thermal correction to Energy=                    0.028634
 Thermal correction to Enthalpy=                  0.029578
 Thermal correction to Gibbs Free Energy=        -0.000748
 Sum of electronic and zero-point Energies=           -152.401506
 Sum of electronic and thermal Energies=              -152.396767
 Sum of electronic and thermal Enthalpies=            -152.395823
 Sum of electronic and thermal Free Energies=         -152.426149

                     E (Thermal)             CV                S
                      KCal/Mol        Cal/Mol-Kelvin    Cal/Mol-Kelvin
 Total                   17.968             13.972             63.827
 Electronic               0.000              0.000              0.000
 Translational            0.889              2.981             37.592
 Rotational               0.592              1.987             16.300
 Vibrational             16.487              9.004              9.935
 Vibration     1          0.596              1.976              4.696
 Vibration     2          0.633              1.856              2.245
 Vibration     3          0.695              1.667              1.396
 Vibration     4          0.831              1.308              0.726
 Vibration     5          0.876              1.204              0.608

 Optimization completed.
    -- Stationary point found.
 Normal termination of Gaussian 09 at Tue Jul  5 15:00:28 2016.
