 Gaussian 09, Revision E.01,
 Gaussian 09:  EM64L-G09RevE.01 30-Nov-2015

 ---------------------------------------------
 #p b3lyp/6-311++G(3df,2p) freq symmetry=Loose
 ---------------------------------------------

 ---------
 b3lyp opt
 ---------
 Symbolic Z-matrix:
 Charge =  0 Multiplicity = 2

                         Standard orientation:
 ---------------------------------------------------------------------
 Center     Atomic      Atomic             Coordinates (Angstroms)
 Number     Number       Type             X           Y           Z
 ---------------------------------------------------------------------
      1          6           0       -0.005840   -2.042485   -0.000000
      2          6           0       -0.096070   -0.767162   -0.000000
      3          6           0       -0.000000    0.558700    0.000000
      4          6           0        0.077937    1.777789    0.000000
      5          1           0        0.143842    2.838949    0.000000
 ---------------------------------------------------------------------

 SCF Done:  E(UB3LYP) =  -152.826106241     A.U. after   20 cycles

 The electronic state is 2-A'.
 Alpha  occ. eigenvalues --  -10.25305 -10.25078 -10.23319 -10.23007  -0.85431
 Alpha  occ. eigenvalues --   -0.78839  -0.67119  -0.57858  -0.41171  -0.39753
 Alpha  occ. eigenvalues --   -0.31857  -0.30764  -0.28951
 Alpha virt. eigenvalues --   -0.07981  -0.06610  -0.01282   0.01880   0.04457
 Alpha virt. eigenvalues --    0.04762   0.05830   0.06415   0.06894   0.08352
 Alpha virt. eigenvalues --    0.09816   0.12771   0.13108   0.13528   0.14349

  Beta  occ. eigenvalues --  -10.25308 -10.24630 -10.22782 -10.22485  -0.84346
  Beta  occ. eigenvalues --   -0.76454  -0.66069  -0.57346  -0.39490  -0.38007
  Beta  occ. eigenvalues --   -0.30103  -0.28145
  Beta virt. eigenvalues --   -0.20862  -0.06209  -0.04719  -0.01202   0.02038
  Beta virt. eigenvalues --    0.04824   0.05037   0.06071   0.06963   0.07192
  Beta virt. eigenvalues --    0.08523   0.10003   0.13069   0.13522   0.14669

 Mulliken charges and spin densities:
               1          2
     1  C   -0.719225   0.352321
     2  C    0.632686   0.326744
     3  C   -0.536659   0.013357
     4  C    0.294104   0.319490
     5  H    0.329093  -0.011912
 Sum of Mulliken charges =  -0.00000   1.00000

 Dipole moment (field-independent basis, Debye):
    X=             -0.1494    Y=              4.4647    Z=              0.0000  Tot=              4.4672
 Quadrupole moment (field-independent basis, Debye-Ang):
   XX=            -22.6538   YY=            -23.5208   ZZ=            -24.4627
   XY=              1.0832   XZ=              0.0000   YZ=             -0.0000

  Exact polarizability:  31.344   6.925 105.657  -0.000  -0.000  39.736
 Approx polarizability:  41.901   5.972 202.466   0.000   0.000  41.512

                      1                      2                      3
                     A'                     A'                     A"
 Frequencies --    152.8616               410.8148               426.7518
 Red. masses --      7.2191                 5.2235                 7.9000
 Frc consts  --      0.0994                 0.5194                 0.8477
 IR Inten    --     36.9150                57.5014                19.5340

                      4                      5                      6
                     A"                     A'                     A'
 Frequencies --    526.2018               703.0801               929.5853
 Red. masses --      1.2094                 1.3541                 8.9757
 Frc consts  --      0.1973                 0.3944                 4.5698
 IR Inten    --     71.4865                23.3799                 1.9062

                      7                      8                      9
                     A'                     A'                     A'
 Frequencies --   1831.8419              2064.6165              3442.5961
 Red. masses --      9.2269                 8.0063                 1.1382
 Frc consts  --     18.2423                20.1077                 7.9476
 IR Inten    --     29.2561                75.4580                84.9646

 - Thermochemistry -
 -------------------
 Temperature   298.150 Kelvin.  Pressure   1.00000 Atm.
 Atom     1 has atomic number  6 and mass  12.00000

 Molecular mass:    49.00783 amu.
 Principal axes and moments of inertia in atomic units:
                           1         2         3
     Eigenvalues --     0.40977 381.55421 381.96398
           X            0.02900   0.99958   0.00000
           Y            0.99958  -0.02900   0.00000
           Z            0.00000   0.00000   1.00000
 This molecule is an asymmetric top.
 Rotational symmetry number  1.
 Rotational temperatures (Kelvin)    211.37002     0.22700     0.22676
 Rotational constants (GHZ):        4404.24181     4.72997     4.72490
 Zero-point vibrational energy      62734.3 (Joules/Mol)
                                   14.99385 (Kcal/Mol)
 Warning -- explicit consideration of   4 degrees of freedom as
           vibrations may cause significant error
 Vibrational temperatures:    219.93   591.07   614.00   757.09  1011.57
          (Kelvin)           1337.46  2635.61  2970.52  4953.12

 Zero-point correction=                           0.023894 (Hartree/Particle)
 Thermal correction to Energy=                    0.028315
 Thermal correction to Enthalpy=                  0.029259
 Thermal correction to Gibbs Free Energy=        -0.000748
 Sum of electronic and zero-point Energies=           -152.802212
 Sum of electronic and thermal Energies=              -152.797791
 Sum of electronic and thermal Enthalpies=            -152.796847
 Sum of electronic and thermal Free Energies=         -152.826854

                     E (Thermal)             CV                S
                      KCal/Mol        Cal/Mol-Kelvin    Cal/Mol-Kelvin
 Total                   17.768             13.228             63.155
 Electronic               0.000              0.000              1.377
 Translational            0.889              2.981             37.592
 Rotational               0.889              2.981             18.730
 Vibrational             15.991              7.266              5.456
 Vibration     1          0.619              1.899              2.636
 Vibration     2          0.775              1.447              0.924
 Vibration     3          0.788              1.412              0.869
 Vibration     4          0.881              1.192              0.596

 Optimization completed.
    -- Stationary point found.
 Normal termination of Gaussian 09 at Wed Jul 20 15:40:15 2016.
