 Gaussian 09, Revision E.01,
 Gaussian 09:  EM64L-G09RevE.01 30-Nov-2015

 ---------------------------------------------
 #p b3lyp/6-311++G(3df,2p) freq symmetry=Loose
 ---------------------------------------------

 ---------
 b3lyp opt
 ---------
 Symbolic Z-matrix:
 Charge =  0 Multiplicity = 4

                         Standard orientation:
 ---------------------------------------------------------------------
 Center     Atomic      Atomic             Coordinates (Angstroms)
 Number     Number       Type             X           Y           Z
 ---------------------------------------------------------------------
      1          1           0       -1.045217    2.154902    0.000000
      2          6           0       -0.146056    1.550807    0.000000
      3          6           0        0.000000    0.168848    0.000000
      4          6           0       -0.525120   -1.067447    0.000000
      5          6           0        0.845379   -1.011358    0.000000
 ---------------------------------------------------------------------

 SCF Done:  E(UB3LYP) =  -152.710304404     A.U. after   16 cycles

 The electronic state is 4-A".
 Alpha  occ. eigenvalues --  -10.27819 -10.27679 -10.25293 -10.23474  -0.96354
 Alpha  occ. eigenvalues --   -0.79198  -0.56879  -0.53648  -0.45789  -0.43681
 Alpha  occ. eigenvalues --   -0.35419  -0.30923  -0.29937  -0.24656
 Alpha virt. eigenvalues --   -0.04034  -0.01446  -0.00775   0.03743   0.04364
 Alpha virt. eigenvalues --    0.05357   0.05393   0.06596   0.08432   0.08522
 Alpha virt. eigenvalues --    0.10844   0.11565   0.11846   0.13171   0.13517

  Beta  occ. eigenvalues --  -10.27359 -10.25225 -10.23730 -10.22789  -0.94430
  Beta  occ. eigenvalues --   -0.73485  -0.53850  -0.49412  -0.41074  -0.40646
  Beta  occ. eigenvalues --   -0.27312
  Beta virt. eigenvalues --   -0.18762  -0.16340  -0.10909  -0.01263  -0.00284
  Beta virt. eigenvalues --    0.01257   0.04463   0.05147   0.05774   0.07159
  Beta virt. eigenvalues --    0.07504   0.08646   0.09354   0.11577   0.12213

 Mulliken charges and spin densities:
               1          2
     1  H    0.196943   0.023051
     2  C   -0.336459   1.678042
     3  C    0.538386   0.058636
     4  C   -0.048437   0.909872
     5  C   -0.350432   0.330398
 Sum of Mulliken charges =  -0.00000   3.00000

 Dipole moment (field-independent basis, Debye):
    X=             -2.0253    Y=              2.3710    Z=              0.0000  Tot=              3.1182
 Quadrupole moment (field-independent basis, Debye-Ang):
   XX=            -26.0432   YY=            -22.7461   ZZ=            -22.9337
   XY=             -0.2866   XZ=              0.0000   YZ=              0.0000

  Exact polarizability:  49.560  -0.571  65.172   0.000   0.000  29.974
 Approx polarizability:  72.187   1.647 104.884  -0.000  -0.000  42.968

                      1                      2                      3
                     A'                     A"                     A"
 Frequencies --    344.7483               406.3054               625.0233
 Red. masses --      3.8807                 3.3264                 1.5656
 Frc consts  --      0.2717                 0.3235                 0.3603
 IR Inten    --      6.8972                 0.0099                18.2997

                      4                      5                      6
                     A'                     A'                     A'
 Frequencies --    679.4940               897.0115               950.5201
 Red. masses --      6.7735                 4.3028                 1.7911
 Frc consts  --      1.8426                 2.0398                 0.9534
 IR Inten    --     82.3198                75.8838                13.5777

                      7                      8                      9
                     A'                     A'                     A'
 Frequencies --   1315.5221              1647.6888              3173.0396
 Red. masses --     11.2086                11.6123                 1.0900
 Frc consts  --     11.4287                18.5746                 6.4660
 IR Inten    --     16.2999                11.9210                 3.9479

 - Thermochemistry -
 -------------------
 Temperature   298.150 Kelvin.  Pressure   1.00000 Atm.
 Atom     1 has atomic number  1 and mass   1.00783

 Molecular mass:    49.00783 amu.
 Principal axes and moments of inertia in atomic units:
                           1         2         3
     Eigenvalues --    41.86612 218.66569 260.53181
           X           -0.17385   0.98477   0.00000
           Y            0.98477   0.17385   0.00000
           Z           -0.00000   0.00000   1.00000
 This molecule is an asymmetric top.
 Rotational symmetry number  1.
 Rotational temperatures (Kelvin)      2.06883     0.39610     0.33245
 Rotational constants (GHZ):          43.10743     8.25343     6.92714
 Zero-point vibrational energy      60048.7 (Joules/Mol)
                                   14.35198 (Kcal/Mol)
 Warning -- explicit consideration of   2 degrees of freedom as
           vibrations may cause significant error
 Vibrational temperatures:    496.02   584.58   899.27   977.64  1290.60
          (Kelvin)           1367.58  1892.74  2370.65  4565.29

 Zero-point correction=                           0.022871 (Hartree/Particle)
 Thermal correction to Energy=                    0.026754
 Thermal correction to Enthalpy=                  0.027699
 Thermal correction to Gibbs Free Energy=        -0.003611
 Sum of electronic and zero-point Energies=           -152.687433
 Sum of electronic and thermal Energies=              -152.683550
 Sum of electronic and thermal Enthalpies=            -152.682606
 Sum of electronic and thermal Free Energies=         -152.713916

                     E (Thermal)             CV                S
                      KCal/Mol        Cal/Mol-Kelvin    Cal/Mol-Kelvin
 Total                   16.789             11.976             65.898
 Electronic               0.000              0.000              2.755
 Translational            0.889              2.981             37.592
 Rotational               0.889              2.981             22.394
 Vibrational             15.011              6.014              3.157
 Vibration     1          0.723              1.586              1.190
 Vibration     2          0.771              1.457              0.940

 Optimization completed.
    -- Stationary point found.
 Normal termination of Gaussian 09 at Mon Jun 20 13:34:57 2016.
