 Gaussian 09, Revision E.01,
 Gaussian 09:  EM64L-G09RevE.01 30-Nov-2015

 ---------------------------------------------
 #p b3lyp/6-311++G(3df,2p) freq symmetry=Loose
 ---------------------------------------------

 ---------
 b3lyp opt
 ---------
 Symbolic Z-matrix:
 Charge =  2 Multiplicity = 4

                         Standard orientation:
 ---------------------------------------------------------------------
 Center     Atomic      Atomic             Coordinates (Angstroms)
 Number     Number       Type             X           Y           Z
 ---------------------------------------------------------------------
      1          6           0        0.000000    0.000000    2.044145
      2          6           0        0.000000   -0.000000    0.763440
      3          6           0       -0.000000   -0.000000   -0.527001
      4          6           0       -0.000000    0.000000   -1.797736
      5          1           0       -0.000000    0.000000   -2.897087
 ---------------------------------------------------------------------

 SCF Done:  E(UB3LYP) =  -151.822543311     A.U. after   16 cycles

 The electronic state is 4-SG.
 Alpha  occ. eigenvalues --  -10.89003 -10.83774 -10.81282 -10.79420  -1.39723
 Alpha  occ. eigenvalues --   -1.34624  -1.22108  -1.06030  -0.96025  -0.93180
 Alpha  occ. eigenvalues --   -0.93180  -0.84488  -0.84488
 Alpha virt. eigenvalues --   -0.61859  -0.61859  -0.41036  -0.41036  -0.36612
 Alpha virt. eigenvalues --   -0.34366  -0.29447  -0.26544  -0.26544  -0.25480
 Alpha virt. eigenvalues --   -0.21342  -0.21093  -0.21093  -0.18270  -0.18270

  Beta  occ. eigenvalues --  -10.85047 -10.82329 -10.80942 -10.79203  -1.36928
  Beta  occ. eigenvalues --   -1.28717  -1.19431  -1.04609  -0.89028  -0.89028
  Beta virt. eigenvalues --   -0.71539  -0.71539  -0.69681  -0.54380  -0.54380
  Beta virt. eigenvalues --   -0.36463  -0.36463  -0.34787  -0.33959  -0.28247
  Beta virt. eigenvalues --   -0.26016  -0.26016  -0.24575  -0.19960  -0.19960

 Mulliken charges and spin densities:
               1          2
     1  C    0.478718   1.729039
     2  C    0.530163   0.345335
     3  C   -0.073341   0.389836
     4  C    0.598152   0.559589
     5  H    0.466308  -0.023799
 Sum of Mulliken charges =   2.00000   3.00000

 Dipole moment (field-independent basis, Debye):
    X=              0.0000    Y=              0.0000    Z=             -0.8900  Tot=              0.8900
 Quadrupole moment (field-independent basis, Debye-Ang):
   XX=            -17.4757   YY=            -17.4757   ZZ=             21.1244
   XY=              0.0000   XZ=              0.0000   YZ=              0.0000

  Exact polarizability:  17.290  -0.000  17.290   0.000   0.000  73.224
 Approx polarizability:  23.153  -0.000  23.153   0.000   0.000 179.210

                      1                      2                      3
                     PI                     PI                     PI
 Frequencies --    216.2108               216.2108               506.3756
 Red. masses --      5.0834                 5.0834                 7.0950
 Frc consts  --      0.1400                 0.1400                 1.0719
 IR Inten    --     19.8835                19.8835                 0.9911

                      4                      5                      6
                     PI                     PI                     PI
 Frequencies --    506.3756               743.9907               743.9907
 Red. masses --      7.0950                 1.3734                 1.3734
 Frc consts  --      1.0719                 0.4479                 0.4479
 IR Inten    --      0.9911                17.1863                17.1863

                      7                      8                      9
                     SG                     SG                     SG
 Frequencies --    974.2797              1676.1312              2166.9293
 Red. masses --      8.2794                 8.1509                 8.7708
 Frc consts  --      4.6304                13.4919                24.2650
 IR Inten    --      0.7328               468.8438                45.3684

                     10
                     SG
 Frequencies --   3102.8738
 Red. masses --      1.1547
 Frc consts  --      6.5498
 IR Inten    --    427.0667

 - Thermochemistry -
 -------------------
 Temperature   298.150 Kelvin.  Pressure   1.00000 Atm.
 Atom     1 has atomic number  6 and mass  12.00000

 Molecular mass:    49.00783 amu.
 Principal axes and moments of inertia in atomic units:
                           1         2         3
     Eigenvalues --     0.00000 384.03824 384.03824
           X            0.00000   1.00000  -0.00022
           Y            0.00000   0.00022   1.00000
           Z            1.00000  -0.00000  -0.00000
 This molecule is a prolate symmetric top.
 Rotational symmetry number  1.
 Rotational temperature (Kelvin)      0.22553
 Rotational constant (GHZ):           4.699379
 Zero-point vibrational energy      64917.6 (Joules/Mol)
                                   15.51567 (Kcal/Mol)
 Warning -- explicit consideration of   4 degrees of freedom as
           vibrations may cause significant error
 Vibrational temperatures:    311.08   311.08   728.56   728.56  1070.44
          (Kelvin)           1070.44  1401.77  2411.58  3117.72  4464.34

 Zero-point correction=                           0.024726 (Hartree/Particle)
 Thermal correction to Energy=                    0.028832
 Thermal correction to Enthalpy=                  0.029777
 Thermal correction to Gibbs Free Energy=         0.000077
 Sum of electronic and zero-point Energies=           -151.797818
 Sum of electronic and thermal Energies=              -151.793711
 Sum of electronic and thermal Enthalpies=            -151.792767
 Sum of electronic and thermal Free Energies=         -151.822466

                     E (Thermal)             CV                S
                      KCal/Mol        Cal/Mol-Kelvin    Cal/Mol-Kelvin
 Total                   18.093             13.020             62.508
 Electronic               0.000              0.000              2.755
 Translational            0.889              2.981             37.592
 Rotational               0.592              1.987             16.269
 Vibrational             16.611              8.052              5.892
 Vibration     1          0.645              1.816              1.991
 Vibration     2          0.645              1.816              1.991
 Vibration     3          0.862              1.236              0.642
 Vibration     4          0.862              1.236              0.642

 Optimization completed.
    -- Stationary point found.
 Normal termination of Gaussian 09 at Mon Jun 20 13:43:08 2016.
