 Gaussian 09, Revision E.01,
 Gaussian 09:  EM64L-G09RevE.01 30-Nov-2015

 ---------------------------------------------
 #p b3lyp/6-311++G(3df,2p) freq symmetry=Loose
 ---------------------------------------------

 ---------
 b3lyp opt
 ---------
 Symbolic Z-matrix:
 Charge =  3 Multiplicity = 1

                         Standard orientation:
 ---------------------------------------------------------------------
 Center     Atomic      Atomic             Coordinates (Angstroms)
 Number     Number       Type             X           Y           Z
 ---------------------------------------------------------------------
      1          6           0        0.000000   -0.000000    2.346026
      2          6           0       -0.000000    0.000000    0.668199
      3          6           0       -0.000000    0.000000   -0.595492
      4          6           0        0.000000   -0.000000   -1.909428
      5          1           0        0.000000   -0.000000   -3.055823
 ---------------------------------------------------------------------

 SCF Done:  E(RB3LYP) =  -150.890499977     A.U. after   12 cycles

 The electronic state is 1-SG.
 Alpha  occ. eigenvalues --  -11.25778 -11.16241 -11.11807 -11.03713  -1.62489
 Alpha  occ. eigenvalues --   -1.53675  -1.45406  -1.29867  -1.14839  -1.13957
 Alpha  occ. eigenvalues --   -1.13957
 Alpha virt. eigenvalues --   -0.98283  -0.98283  -0.89214  -0.89214  -0.74149
 Alpha virt. eigenvalues --   -0.67929  -0.67929  -0.59623  -0.53209  -0.45103
 Alpha virt. eigenvalues --   -0.43148  -0.43148  -0.42331  -0.38738  -0.38737

 Mulliken charges:
               1
     1  C    0.888247
     2  C    0.496938
     3  C    0.620149
     4  C    0.462384
     5  H    0.532282
 Sum of Mulliken charges =   3.00000

 Dipole moment (field-independent basis, Debye):
    X=              0.0000    Y=             -0.0000    Z=             -0.7100  Tot=              0.7100
 Quadrupole moment (field-independent basis, Debye-Ang):
   XX=            -15.3018   YY=            -15.3018   ZZ=             44.0356
   XY=             -0.0000   XZ=             -0.0000   YZ=              0.0000

  Exact polarizability:  17.271   0.000  17.271  -0.001   0.001  73.412
 Approx polarizability:  25.535  -0.000  25.535  -0.000  -0.000 220.436

                      1                      2                      3
                     PI                     PI                     PI
 Frequencies --    171.1233               171.1234               346.2584
 Red. masses --      4.9168                 4.9169                 6.7612
 Frc consts  --      0.0848                 0.0848                 0.4776
 IR Inten    --     28.1618                28.1619                14.6638

                      4                      5                      6
                     PI                     SG                     PI
 Frequencies --    346.2588               545.4022               848.6988
 Red. masses --      6.7611                11.1994                 1.3895
 Frc consts  --      0.4776                 1.9628                 0.5897
 IR Inten    --     14.6639               553.2993                13.9010

                      7                      8                      9
                     PI                     SG                     SG
 Frequencies --    848.6990              1207.3089              2097.7430
 Red. masses --      1.3895                 6.2516                 6.0997
 Frc consts  --      0.5897                 5.3688                15.8148
 IR Inten    --     13.9011               966.0057               577.0937

                     10
                     SG
 Frequencies --   2694.1117
 Red. masses --      1.2340
 Frc consts  --      5.2772
 IR Inten    --    490.4926

 - Thermochemistry -
 -------------------
 Temperature   298.150 Kelvin.  Pressure   1.00000 Atm.
 Atom     1 has atomic number  6 and mass  12.00000

 Molecular mass:    49.00783 amu.
 Principal axes and moments of inertia in atomic units:
                           1         2         3
     Eigenvalues --     0.00000 459.35964 459.35964
           X            0.00000  -0.37779   0.92589
           Y           -0.00000   0.92589   0.37779
           Z            1.00000   0.00000   0.00000
 This molecule is a prolate symmetric top.
 Rotational symmetry number  1.
 Warning -- assumption of classical behavior for rotation
           may cause significant error
 Rotational temperature (Kelvin)      0.18855
 Rotational constant (GHZ):           3.928820
 Zero-point vibrational energy      55487.2 (Joules/Mol)
                                   13.26175 (Kcal/Mol)
 Warning -- explicit consideration of   5 degrees of freedom as
           vibrations may cause significant error
 Vibrational temperatures:    246.21   246.21   498.19   498.19   784.71
          (Kelvin)           1221.09  1221.09  1737.05  3018.18  3876.22

 Zero-point correction=                           0.021134 (Hartree/Particle)
 Thermal correction to Energy=                    0.025780
 Thermal correction to Enthalpy=                  0.026725
 Thermal correction to Gibbs Free Energy=        -0.002908
 Sum of electronic and zero-point Energies=           -150.869366
 Sum of electronic and thermal Energies=              -150.864720
 Sum of electronic and thermal Enthalpies=            -150.863775
 Sum of electronic and thermal Free Energies=         -150.893408

                     E (Thermal)             CV                S
                      KCal/Mol        Cal/Mol-Kelvin    Cal/Mol-Kelvin
 Total                   16.177             14.396             62.367
 Electronic               0.000              0.000              0.000
 Translational            0.889              2.981             37.592
 Rotational               0.592              1.987             16.625
 Vibrational             14.696              9.428              8.150
 Vibration     1          0.626              1.878              2.423
 Vibration     2          0.626              1.878              2.423
 Vibration     3          0.724              1.583              1.183
 Vibration     4          0.724              1.583              1.183
 Vibration     5          0.901              1.150              0.554

 Optimization completed.
    -- Stationary point found.
 Normal termination of Gaussian 09 at Mon Jun 20 13:42:20 2016.
