 Gaussian 09, Revision E.01,
 Gaussian 09:  EM64L-G09RevE.01 30-Nov-2015

 ---------------------------------------------
 #p b3lyp/6-311++G(3df,2p) freq symmetry=Loose
 ---------------------------------------------

 ---------
 b3lyp opt
 ---------
 Symbolic Z-matrix:
 Charge =  2 Multiplicity = 2

                         Standard orientation:
 ---------------------------------------------------------------------
 Center     Atomic      Atomic             Coordinates (Angstroms)
 Number     Number       Type             X           Y           Z
 ---------------------------------------------------------------------
      1          1           0       -0.000000    0.000000    2.936722
      2          6           0        0.000000   -0.000000    1.833749
      3          6           0       -0.000000    0.000000    0.551818
      4          6           0       -0.000000    0.000000   -0.717727
      5          6           0        0.000000   -0.000000   -2.157292
 ---------------------------------------------------------------------

 SCF Done:  E(UB3LYP) =  -151.796859357     A.U. after   17 cycles

 Unable to determine electronic state:  an orbital has unidentified symmetry.
 Alpha  occ. eigenvalues --  -10.87840 -10.86756 -10.82692 -10.79206  -1.39091
 Alpha  occ. eigenvalues --   -1.31958  -1.21895  -1.07693  -0.92803  -0.90920
 Alpha  occ. eigenvalues --   -0.84823  -0.82385
 Alpha virt. eigenvalues --   -0.74780  -0.62873  -0.60374  -0.42659  -0.41424
 Alpha virt. eigenvalues --   -0.38633  -0.35538  -0.32701  -0.26856  -0.26837
 Alpha virt. eigenvalues --   -0.26652  -0.21317  -0.21237  -0.21101  -0.18932

  Beta  occ. eigenvalues --  -10.87310 -10.85859 -10.82250 -10.79407  -1.38100
  Beta  occ. eigenvalues --   -1.29545  -1.20684  -1.06892  -0.90712  -0.89499
  Beta  occ. eigenvalues --   -0.83734
  Beta virt. eigenvalues --   -0.73803  -0.71485  -0.59686  -0.57704  -0.41098
  Beta virt. eigenvalues --   -0.39667  -0.37605  -0.35221  -0.31912  -0.26786
  Beta virt. eigenvalues --   -0.26378  -0.26353  -0.20999  -0.20975  -0.20571

 Mulliken charges and spin densities:
               1          2
     1  H    0.473159  -0.014035
     2  C    0.505770   0.393703
     3  C    0.131412   0.089027
     4  C    0.699797   0.293820
     5  C    0.189862   0.237485
 Sum of Mulliken charges =   2.00000   1.00000

 Dipole moment (field-independent basis, Debye):
    X=             -0.0000    Y=              0.0000    Z=              3.1489  Tot=              3.1489
 Quadrupole moment (field-independent basis, Debye-Ang):
   XX=            -18.1187   YY=            -16.6080   ZZ=             16.4069
   XY=             -0.0000   XZ=              0.0000   YZ=              0.0000

  Exact polarizability:  20.353   0.000  19.677  -0.000   0.000  76.797
 Approx polarizability:  27.766  -0.000  29.293   0.000   0.000 204.877

                      1                      2                      3
                     ?A                     ?A                     ?A
 Frequencies --     61.5693               131.1214               315.4665
 Red. masses --      8.1123                 6.4415                 5.0315
 Frc consts  --      0.0181                 0.0653                 0.2950
 IR Inten    --      0.1087                 0.2903                30.4346

                      4                      5                      6
                     ?A                     ?A                     SG
 Frequencies --    346.6813               629.1424               822.7541
 Red. masses --      5.2595                 1.3245                 9.7720
 Frc consts  --      0.3724                 0.3089                 3.8974
 IR Inten    --     20.7180                30.8210               135.5971

                      7                      8                      9
                     ?A                     SG                     SG
 Frequencies --    893.1857              1385.1939              2074.1302
 Red. masses --      1.3997                 7.2734                 9.0775
 Frc consts  --      0.6579                 8.2226                23.0084
 IR Inten    --      6.0527               720.4361                54.6390

                     10
                     SG
 Frequencies --   3065.5854
 Red. masses --      1.1447
 Frc consts  --      6.3385
 IR Inten    --    470.4760

 - Thermochemistry -
 -------------------
 Temperature   298.150 Kelvin.  Pressure   1.00000 Atm.
 Atom     1 has atomic number  1 and mass   1.00783

 Molecular mass:    49.00783 amu.
 Principal axes and moments of inertia in atomic units:
                           1         2         3
     Eigenvalues --     0.00000 409.07527 409.07527
           X            0.00000   0.49468   0.86907
           Y            0.00000   0.86907  -0.49468
           Z            1.00000  -0.00000   0.00000
 This molecule is a prolate symmetric top.
 Rotational symmetry number  1.
 Rotational temperature (Kelvin)      0.21173
 Rotational constant (GHZ):           4.411758
 Zero-point vibrational energy      58167.4 (Joules/Mol)
                                   13.90234 (Kcal/Mol)
 Warning -- explicit consideration of   4 degrees of freedom as
           vibrations may cause significant error
 Vibrational temperatures:     88.58   188.65   453.89   498.80   905.19
          (Kelvin)           1183.76  1285.09  1992.98  2984.21  4410.69

 Zero-point correction=                           0.022155 (Hartree/Particle)
 Thermal correction to Energy=                    0.027049
 Thermal correction to Enthalpy=                  0.027994
 Thermal correction to Gibbs Free Energy=        -0.003351
 Sum of electronic and zero-point Energies=           -151.774705
 Sum of electronic and thermal Energies=              -151.769810
 Sum of electronic and thermal Enthalpies=            -151.768866
 Sum of electronic and thermal Free Energies=         -151.800210

                     E (Thermal)             CV                S
                      KCal/Mol        Cal/Mol-Kelvin    Cal/Mol-Kelvin
 Total                   16.974             14.303             65.970
 Electronic               0.000              0.000              1.377
 Translational            0.889              2.981             37.592
 Rotational               0.592              1.987             16.395
 Vibrational             15.493              9.335             10.606
 Vibration     1          0.597              1.973              4.406
 Vibration     2          0.612              1.922              2.930
 Vibration     3          0.703              1.644              1.334
 Vibration     4          0.725              1.582              1.181

 Optimization completed.
    -- Stationary point found.
 Normal termination of Gaussian 09 at Mon Jun 20 13:38:50 2016.
