 Gaussian 09, Revision E.01,
 Gaussian 09:  EM64L-G09RevE.01 30-Nov-2015

 ---------------------------------------------
 #p b3lyp/6-311++G(3df,2p) freq symmetry=Loose
 ---------------------------------------------

 ---------
 b3lyp opt
 ---------
 Symbolic Z-matrix:
 Charge =  2 Multiplicity = 2

                         Standard orientation:
 ---------------------------------------------------------------------
 Center     Atomic      Atomic             Coordinates (Angstroms)
 Number     Number       Type             X           Y           Z
 ---------------------------------------------------------------------
      1          1           0       -0.017429    2.625872    0.000000
      2          6           0       -0.009439    1.519932    0.000000
      3          6           0        0.000000    0.200279    0.000000
      4          6           0       -0.695846   -1.081715    0.000000
      5          6           0        0.708190   -1.076142    0.000000
 ---------------------------------------------------------------------

 SCF Done:  E(UB3LYP) =  -151.736556357     A.U. after   20 cycles

 The electronic state is 2-A'.
 Alpha  occ. eigenvalues --  -10.88362 -10.88306 -10.87664 -10.83657  -1.51387
 Alpha  occ. eigenvalues --   -1.32470  -1.09493  -1.07989  -1.01038  -0.95484
 Alpha  occ. eigenvalues --   -0.89247  -0.85455
 Alpha virt. eigenvalues --   -0.74566  -0.65133  -0.58197  -0.51239  -0.40076
 Alpha virt. eigenvalues --   -0.36294  -0.34835  -0.30995  -0.27786  -0.27416
 Alpha virt. eigenvalues --   -0.25107  -0.23738  -0.22720  -0.22291  -0.22178

  Beta  occ. eigenvalues --  -10.88630 -10.86845 -10.86802 -10.83480  -1.49620
  Beta  occ. eigenvalues --   -1.33946  -1.10172  -1.03465  -0.98563  -0.94867
  Beta  occ. eigenvalues --   -0.83101
  Beta virt. eigenvalues --   -0.74861  -0.72166  -0.65117  -0.54707  -0.51438
  Beta virt. eigenvalues --   -0.40581  -0.34467  -0.33228  -0.30538  -0.27796
  Beta virt. eigenvalues --   -0.27557  -0.24762  -0.23192  -0.22406  -0.22159

 Mulliken charges and spin densities:
               1          2
     1  H    0.484701   0.015455
     2  C    0.383617  -0.483593
     3  C    0.268266  -0.094968
     4  C    0.430729   0.783269
     5  C    0.432688   0.779837
 Sum of Mulliken charges =   2.00000   1.00000

 Dipole moment (field-independent basis, Debye):
    X=             -0.0217    Y=              2.9436    Z=              0.0000  Tot=              2.9437
 Quadrupole moment (field-independent basis, Debye-Ang):
   XX=            -15.4174   YY=              6.0278   ZZ=            -16.5115
   XY=             -0.1402   XZ=              0.0000   YZ=              0.0000

  Exact polarizability:  33.323  -0.188  55.278  -0.000   0.000  18.519
 Approx polarizability:  63.390  -0.693 148.900  -0.000  -0.000  28.592

                      1                      2                      3
                     A"                     A'                     A'
 Frequencies --    318.7487               341.5253               453.1181
 Red. masses --      3.6645                 3.3029                 1.5461
 Frc consts  --      0.2194                 0.2270                 0.1870
 IR Inten    --     14.0430                39.1746                47.8207

                      4                      5                      6
                     A'                     A'                     A"
 Frequencies --    663.5118               848.4644               919.3247
 Red. masses --      9.7316                 8.7698                 1.4716
 Frc consts  --      2.5242                 3.7197                 0.7328
 IR Inten    --      0.0030                 0.1743                 1.7417

                      7                      8                      9
                     A'                     A'                     A'
 Frequencies --   1218.5357              1379.3776              3020.4859
 Red. masses --     11.9895                 7.5457                 1.1191
 Frc consts  --     10.4888                 8.4590                 6.0155
 IR Inten    --     11.2198               198.9039               560.2356

 - Thermochemistry -
 -------------------
 Temperature   298.150 Kelvin.  Pressure   1.00000 Atm.
 Atom     1 has atomic number  1 and mass   1.00783

 Molecular mass:    49.00783 amu.
 Principal axes and moments of inertia in atomic units:
                           1         2         3
     Eigenvalues --    42.23874 224.81537 267.05412
           X           -0.00646   0.99998   0.00000
           Y            0.99998   0.00646   0.00000
           Z           -0.00000   0.00000   1.00000
 This molecule is an asymmetric top.
 Rotational symmetry number  1.
 Rotational temperatures (Kelvin)      2.05058     0.38527     0.32433
 Rotational constants (GHZ):          42.72715     8.02766     6.75796
 Zero-point vibrational energy      54807.5 (Joules/Mol)
                                   13.09930 (Kcal/Mol)
 Warning -- explicit consideration of   3 degrees of freedom as
           vibrations may cause significant error
 Vibrational temperatures:    458.61   491.38   651.94   954.64  1220.75
          (Kelvin)           1322.70  1753.20  1984.61  4345.80

 Zero-point correction=                           0.020875 (Hartree/Particle)
 Thermal correction to Energy=                    0.025004
 Thermal correction to Enthalpy=                  0.025949
 Thermal correction to Gibbs Free Energy=        -0.005146
 Sum of electronic and zero-point Energies=           -151.715681
 Sum of electronic and thermal Energies=              -151.711552
 Sum of electronic and thermal Enthalpies=            -151.710608
 Sum of electronic and thermal Free Energies=         -151.741702

                     E (Thermal)             CV                S
                      KCal/Mol        Cal/Mol-Kelvin    Cal/Mol-Kelvin
 Total                   15.690             12.802             65.443
 Electronic               0.000              0.000              1.377
 Translational            0.889              2.981             37.592
 Rotational               0.889              2.981             22.455
 Vibrational             13.913              6.840              4.019
 Vibration     1          0.705              1.638              1.317
 Vibration     2          0.721              1.592              1.205
 Vibration     3          0.812              1.354              0.786

 Normal termination of Gaussian 09 at Mon Jun 20 13:43:41 2016.
