 Gaussian 09, Revision E.01,
 Gaussian 09:  EM64L-G09RevE.01 30-Nov-2015

 ---------------------------------------------
 #p b3lyp/6-311++G(3df,2p) freq symmetry=Loose
 ---------------------------------------------

 ---------
 b3lyp opt
 ---------
 Symbolic Z-matrix:
 Charge =  0 Multiplicity = 4

                         Standard orientation:
 ---------------------------------------------------------------------
 Center     Atomic      Atomic             Coordinates (Angstroms)
 Number     Number       Type             X           Y           Z
 ---------------------------------------------------------------------
      1          6           0        1.987460    0.187444    0.000159
      2          6           0        0.690988   -0.041298   -0.000296
      3          6           0       -0.539868   -0.434292    0.000108
      4          6           0       -1.784558    0.098946    0.000027
      5          1           0       -2.124137    1.135198    0.000012
 ---------------------------------------------------------------------

 SCF Done:  E(UB3LYP) =  -152.728702522     A.U. after   18 cycles

 The electronic state is 4-A.
 Alpha  occ. eigenvalues --  -10.28914 -10.25297 -10.24945 -10.24047  -0.86933
 Alpha  occ. eigenvalues --   -0.79210  -0.67781  -0.55222  -0.42078  -0.41093
 Alpha  occ. eigenvalues --   -0.33461  -0.32127  -0.31074  -0.23234
 Alpha virt. eigenvalues --   -0.10978  -0.02124   0.01353   0.02971   0.04117
 Alpha virt. eigenvalues --    0.04696   0.05418   0.06620   0.08096   0.08555
 Alpha virt. eigenvalues --    0.10303   0.10585   0.11549   0.11788   0.12350

  Beta  occ. eigenvalues --  -10.26622 -10.24498 -10.23695 -10.23599  -0.83947
  Beta  occ. eigenvalues --   -0.74127  -0.64192  -0.52633  -0.37249  -0.35643
  Beta  occ. eigenvalues --   -0.30381
  Beta virt. eigenvalues --   -0.19757  -0.18175  -0.08938  -0.05725  -0.00886
  Beta virt. eigenvalues --    0.02352   0.04403   0.05514   0.05783   0.06488
  Beta virt. eigenvalues --    0.06872   0.08818   0.09385   0.11066   0.11173

 Mulliken charges and spin densities:
               1          2
     1  C   -0.626192   0.879709
     2  C    0.774596   0.384681
     3  C   -0.108531   0.250688
     4  C   -0.227992   1.421659
     5  H    0.188119   0.063262
 Sum of Mulliken charges =  -0.00000   3.00000

 Dipole moment (field-independent basis, Debye):
    X=             -3.2899    Y=              0.8337    Z=             -0.0009  Tot=              3.3939
 Quadrupole moment (field-independent basis, Debye-Ang):
   XX=            -28.5088   YY=            -23.3529   ZZ=            -23.0728
   XY=             -3.0405   XZ=             -0.0020   YZ=              0.0001

  Exact polarizability:  94.475   2.572  38.076  -0.008  -0.002  32.908
 Approx polarizability: 187.612  13.341  53.466  -0.010  -0.003  44.952

                      1                      2                      3
                      A                      A                      A
 Frequencies --    155.7085               217.2102               421.4121
 Red. masses --      4.7210                 6.9667                 8.1744
 Frc consts  --      0.0674                 0.1937                 0.8553
 IR Inten    --      7.8676                39.7532                14.5621

                      4                      5                      6
                      A                      A                      A
 Frequencies --    715.5559               965.4883               999.4683
 Red. masses --      1.8625                 1.2755                10.5918
 Frc consts  --      0.5619                 0.7005                 6.2338
 IR Inten    --      7.8665                12.3325                 7.8094

                      7                      8                      9
                      A                      A                      A
 Frequencies --   1388.5830              1904.0208              3070.8692
 Red. masses --     10.5616                11.6330                 1.0904
 Frc consts  --     11.9984                24.8477                 6.0586
 IR Inten    --    167.0126                 9.1873                20.2578

 - Thermochemistry -
 -------------------
 Temperature   298.150 Kelvin.  Pressure   1.00000 Atm.
 Atom     1 has atomic number  6 and mass  12.00000

 Molecular mass:    49.00783 amu.
 Principal axes and moments of inertia in atomic units:
                           1         2         3
     Eigenvalues --    14.40290 354.82805 369.23093
           X            0.99967  -0.02561  -0.00000
           Y            0.02561   0.99967   0.00000
           Z            0.00000  -0.00000   1.00000
 This molecule is an asymmetric top.
 Rotational symmetry number  1.
 Rotational temperatures (Kelvin)      6.01364     0.24410     0.23458
 Rotational constants (GHZ):         125.30404     5.08624     4.88784
 Zero-point vibrational energy      58846.2 (Joules/Mol)
                                   14.06458 (Kcal/Mol)
 Warning -- explicit consideration of   3 degrees of freedom as
           vibrations may cause significant error
 Vibrational temperatures:    224.03   312.52   606.32  1029.52  1389.12
          (Kelvin)           1438.01  1997.86  2739.46  4418.29

 Zero-point correction=                           0.022413 (Hartree/Particle)
 Thermal correction to Energy=                    0.026897
 Thermal correction to Enthalpy=                  0.027841
 Thermal correction to Gibbs Free Energy=        -0.004700
 Sum of electronic and zero-point Energies=           -152.706289
 Sum of electronic and thermal Energies=              -152.701806
 Sum of electronic and thermal Enthalpies=            -152.700861
 Sum of electronic and thermal Free Energies=         -152.733403

                     E (Thermal)             CV                S
                      KCal/Mol        Cal/Mol-Kelvin    Cal/Mol-Kelvin
 Total                   16.878             12.818             68.489
 Electronic               0.000              0.000              2.755
 Translational            0.889              2.981             37.592
 Rotational               0.889              2.981             22.161
 Vibrational             15.101              6.856              5.981
 Vibration     1          0.620              1.896              2.601
 Vibration     2          0.646              1.815              1.982
 Vibration     3          0.784              1.424              0.887

 Normal termination of Gaussian 09 at Mon Jun 20 13:35:33 2016.
