 Gaussian 09, Revision E.01,
 Gaussian 09:  EM64L-G09RevE.01 30-Nov-2015

 ---------------------------------------------
 #p b3lyp/6-311++G(3df,2p) freq symmetry=Loose
 ---------------------------------------------

 ---------
 b3lyp opt
 ---------
 Symbolic Z-matrix:
 Charge =  2 Multiplicity = 2

                         Standard orientation:
 ---------------------------------------------------------------------
 Center     Atomic      Atomic             Coordinates (Angstroms)
 Number     Number       Type             X           Y           Z
 ---------------------------------------------------------------------
      1          1           0        0.000000    0.000000   -2.157978
      2          6           0        0.000000    0.000000   -1.051121
      3          6           0        0.000000    0.819543    0.098583
      4          6           0        0.000000    0.000000    1.213618
      5          6           0       -0.000000   -0.819543    0.098583
 ---------------------------------------------------------------------

 SCF Done:  E(UB3LYP) =  -151.778332818     A.U. after   14 cycles

 The electronic state is 2-A1.
 Alpha  occ. eigenvalues --  -10.92505 -10.91059 -10.89480 -10.89470  -1.61596
 Alpha  occ. eigenvalues --   -1.32723  -1.17237  -1.10528  -1.04093  -1.02111
 Alpha  occ. eigenvalues --   -0.95046  -0.87354
 Alpha virt. eigenvalues --   -0.74375  -0.66944  -0.63577  -0.51061  -0.38384
 Alpha virt. eigenvalues --   -0.37723  -0.35194  -0.30059  -0.29897  -0.28567
 Alpha virt. eigenvalues --   -0.25305  -0.24574  -0.23751  -0.22562  -0.21218

  Beta  occ. eigenvalues --  -10.90964 -10.90629 -10.89076 -10.89068  -1.61193
  Beta  occ. eigenvalues --   -1.31624  -1.15969  -1.09649  -1.03380  -1.01444
  Beta  occ. eigenvalues --   -0.88445
  Beta virt. eigenvalues --   -0.73569  -0.72844  -0.66193  -0.61108  -0.48814
  Beta virt. eigenvalues --   -0.38136  -0.37415  -0.34983  -0.29851  -0.29571
  Beta virt. eigenvalues --   -0.27181  -0.25020  -0.24057  -0.23455  -0.22457

 Mulliken charges and spin densities:
               1          2
     1  H    0.405829   0.002746
     2  C    0.068392  -0.034797
     3  C    0.692793   0.139500
     4  C    0.140193   0.753051
     5  C    0.692793   0.139500
 Sum of Mulliken charges =   2.00000   1.00000

 Dipole moment (field-independent basis, Debye):
    X=             -0.0000    Y=              0.0000    Z=             -1.6541  Tot=              1.6541
 Quadrupole moment (field-independent basis, Debye-Ang):
   XX=            -16.3045   YY=            -14.8094   ZZ=             -2.9632
   XY=             -0.0000   XZ=             -0.0000   YZ=              0.0000

  Exact polarizability:  16.903  -0.000  29.147   0.000   0.000  35.473
 Approx polarizability:  25.743   0.000  75.881   0.000  -0.000  68.234

                      1                      2                      3
                     B1                     A1                     B2
 Frequencies --    381.8252               611.4768               767.7209
 Red. masses --      4.0340                10.6049                 6.0571
 Frc consts  --      0.3465                 2.3362                 2.1034
 IR Inten    --      0.4242                46.8953                42.9866

                      4                      5                      6
                     B1                     B2                     B2
 Frequencies --    890.0225              1027.9671              1292.4430
 Red. masses --      1.4602                 1.2791                 9.2817
 Frc consts  --      0.6815                 0.7964                 9.1349
 IR Inten    --      6.1161                16.1080                 0.0173

                      7                      8                      9
                     A1                     A1                     A1
 Frequencies --   1349.2134              1488.7094              3019.4083
 Red. masses --      6.6143                10.8893                 1.1284
 Frc consts  --      7.0941                14.2190                 6.0611
 IR Inten    --     67.1878               282.5705               229.1372

 - Thermochemistry -
 -------------------
 Temperature   298.150 Kelvin.  Pressure   1.00000 Atm.
 Atom     1 has atomic number  1 and mass   1.00783

 Molecular mass:    49.00783 amu.
 Principal axes and moments of inertia in atomic units:
                           1         2         3
     Eigenvalues --    57.56420 127.72164 185.28584
           X            0.00000   0.00000   1.00000
           Y            0.00000   1.00000  -0.00000
           Z            1.00000  -0.00000  -0.00000
 This molecule is an asymmetric top.
 Rotational symmetry number  2.
 Rotational temperatures (Kelvin)      1.50465     0.67815     0.46746
 Rotational constants (GHZ):          31.35180    14.13027     9.74031
 Zero-point vibrational energy      64770.5 (Joules/Mol)
                                   15.48053 (Kcal/Mol)
 Warning -- explicit consideration of   2 degrees of freedom as
           vibrations may cause significant error
 Vibrational temperatures:    549.36   879.78  1104.58  1280.54  1479.01
          (Kelvin)           1859.53  1941.21  2141.92  4344.25

 Zero-point correction=                           0.024670 (Hartree/Particle)
 Thermal correction to Energy=                    0.028187
 Thermal correction to Enthalpy=                  0.029131
 Thermal correction to Gibbs Free Energy=        -0.000051
 Sum of electronic and zero-point Energies=           -151.753663
 Sum of electronic and thermal Energies=              -151.750146
 Sum of electronic and thermal Enthalpies=            -151.749202
 Sum of electronic and thermal Free Energies=         -151.778384

                     E (Thermal)             CV                S
                      KCal/Mol        Cal/Mol-Kelvin    Cal/Mol-Kelvin
 Total                   17.687             10.400             61.418
 Electronic               0.000              0.000              1.377
 Translational            0.889              2.981             37.592
 Rotational               0.889              2.981             20.460
 Vibrational             15.910              4.439              1.989
 Vibration     1          0.751              1.509              1.032
 Vibration     2          0.971              1.008              0.430

 Optimization completed.
    -- Stationary point found.
 Normal termination of Gaussian 09 at Mon Jun 20 13:43:05 2016.
