 Gaussian 09, Revision E.01,
 Gaussian 09:  EM64L-G09RevE.01 30-Nov-2015

 ---------------------------------------------
 #p b3lyp/6-311++G(3df,2p) freq symmetry=Loose
 ---------------------------------------------

 ---------
 b3lyp opt
 ---------
 Symbolic Z-matrix:
 Charge =  1 Multiplicity = 1

                         Standard orientation:
 ---------------------------------------------------------------------
 Center     Atomic      Atomic             Coordinates (Angstroms)
 Number     Number       Type             X           Y           Z
 ---------------------------------------------------------------------
      1          1           0        0.000000    0.000000   -2.152779
      2          6           0        0.000000    0.000000   -1.067102
      3          6           0        0.000000    0.788381    0.054573
      4          6           0        0.000000    0.000000    1.316752
      5          6           0       -0.000000   -0.788381    0.054573
 ---------------------------------------------------------------------

 SCF Done:  E(RB3LYP) =  -152.425058343     A.U. after   10 cycles

 The electronic state is 1-A1.
 Alpha  occ. eigenvalues --  -10.59789 -10.57358 -10.57337 -10.57272  -1.31001
 Alpha  occ. eigenvalues --   -1.02996  -0.86023  -0.84997  -0.72925  -0.71234
 Alpha  occ. eigenvalues --   -0.60965  -0.55541
 Alpha virt. eigenvalues --   -0.44538  -0.37176  -0.32123  -0.23630  -0.17961
 Alpha virt. eigenvalues --   -0.14690  -0.14526  -0.12244  -0.10935  -0.08501
 Alpha virt. eigenvalues --   -0.07783  -0.05948  -0.04976  -0.04461  -0.03122

 Mulliken charges:
               1
     1  H    0.350396
     2  C    0.179951
     3  C    0.291566
     4  C   -0.113478
     5  C    0.291566
 Sum of Mulliken charges =   1.00000

 Dipole moment (field-independent basis, Debye):
    X=             -0.0000    Y=             -0.0000    Z=             -3.5704  Tot=              3.5704
 Quadrupole moment (field-independent basis, Debye-Ang):
   XX=            -18.7171   YY=            -20.5220   ZZ=            -13.8349
   XY=             -0.0000   XZ=             -0.0000   YZ=              0.0000

  Exact polarizability:  22.030   0.000  33.931  -0.000   0.000  38.056
 Approx polarizability:  36.065   0.000  82.147   0.000   0.000  65.957

                      1                      2                      3
                     B1                     B2                     A1
 Frequencies --    242.6262               526.4223               830.4842
 Red. masses --      4.4942                 6.5937                10.3341
 Frc consts  --      0.1559                 1.0766                 4.1994
 IR Inten    --      4.3616                81.8736                 2.5880

                      4                      5                      6
                     B1                     B2                     A1
 Frequencies --    884.7167              1049.9572              1172.9725
 Red. masses --      1.3862                 1.2286                11.5231
 Frc consts  --      0.6393                 0.7980                 9.3410
 IR Inten    --      2.9118                 7.4265               147.9001

                      7                      8                      9
                     B2                     A1                     A1
 Frequencies --   1211.0608              1515.1338              3211.2213
 Red. masses --     10.7717                 6.7079                 1.1224
 Frc consts  --      9.3082                 9.0728                 6.8195
 IR Inten    --      0.7719               182.8052                85.9811

 - Thermochemistry -
 -------------------
 Temperature   298.150 Kelvin.  Pressure   1.00000 Atm.
 Atom     1 has atomic number  1 and mass   1.00783

 Molecular mass:    49.00783 amu.
 Principal axes and moments of inertia in atomic units:
                           1         2         3
     Eigenvalues --    53.26983 139.69869 192.96852
           X            0.00000  -0.00000   1.00000
           Y            0.00000   1.00000  -0.00000
           Z            1.00000  -0.00000  -0.00000
 This molecule is an asymmetric top.
 Rotational symmetry number  2.
 Rotational temperatures (Kelvin)      1.62595     0.62000     0.44885
 Rotational constants (GHZ):          33.87924    12.91881     9.35252
 Zero-point vibrational energy      63668.8 (Joules/Mol)
                                   15.21721 (Kcal/Mol)
 Warning -- explicit consideration of   2 degrees of freedom as
           vibrations may cause significant error
 Vibrational temperatures:    349.08   757.40  1194.88  1272.91  1510.65
          (Kelvin)           1687.64  1742.44  2179.94  4620.23

 Zero-point correction=                           0.024250 (Hartree/Particle)
 Thermal correction to Energy=                    0.027982
 Thermal correction to Enthalpy=                  0.028926
 Thermal correction to Gibbs Free Energy=        -0.000052
 Sum of electronic and zero-point Energies=           -152.400808
 Sum of electronic and thermal Energies=              -152.397077
 Sum of electronic and thermal Enthalpies=            -152.396132
 Sum of electronic and thermal Free Energies=         -152.425110

                     E (Thermal)             CV                S
                      KCal/Mol        Cal/Mol-Kelvin    Cal/Mol-Kelvin
 Total                   17.559             10.869             60.989
 Electronic               0.000              0.000              0.000
 Translational            0.889              2.981             37.592
 Rotational               0.889              2.981             20.512
 Vibrational             15.781              4.907              2.884
 Vibration     1          0.659              1.775              1.784
 Vibration     2          0.881              1.192              0.595

 Optimization completed.
    -- Stationary point found.
 Normal termination of Gaussian 09 at Mon Jun 20 13:37:39 2016.
