 Gaussian 09, Revision E.01,
 Gaussian 09:  EM64L-G09RevE.01 30-Nov-2015

 ---------------------------------------------
 #p b3lyp/6-311++G(3df,2p) freq symmetry=Loose
 ---------------------------------------------

 ---------
 b3lyp opt
 ---------
 Symbolic Z-matrix:
 Charge =  2 Multiplicity = 4

                         Standard orientation:
 ---------------------------------------------------------------------
 Center     Atomic      Atomic             Coordinates (Angstroms)
 Number     Number       Type             X           Y           Z
 ---------------------------------------------------------------------
      1          1           0        0.000000    0.000000    2.627051
      2          6           0        0.000000    0.000000    1.523383
      3          6           0        0.000000    0.000000    0.211792
      4          6           0       -0.000000    0.655764   -1.086509
      5          6           0       -0.000000   -0.655764   -1.086509
 ---------------------------------------------------------------------

 SCF Done:  E(UB3LYP) =  -151.760344910     A.U. after   13 cycles

 The electronic state is 4-A2.
 Alpha  occ. eigenvalues --  -10.88055 -10.87949 -10.86882 -10.84909  -1.52979
 Alpha  occ. eigenvalues --   -1.35788  -1.10229  -1.08142  -1.03273  -0.98299
 Alpha  occ. eigenvalues --   -0.91450  -0.87715  -0.84674
 Alpha virt. eigenvalues --   -0.67714  -0.57713  -0.53738  -0.41107  -0.35602
 Alpha virt. eigenvalues --   -0.34767  -0.31227  -0.27899  -0.27757  -0.25612
 Alpha virt. eigenvalues --   -0.24224  -0.22710  -0.22368  -0.21847  -0.20426

  Beta  occ. eigenvalues --  -10.85875 -10.85789 -10.85113 -10.84837  -1.50652
  Beta  occ. eigenvalues --   -1.30469  -1.07955  -1.01588  -1.00592  -0.94153
  Beta virt. eigenvalues --   -0.72450  -0.71307  -0.70922  -0.60208  -0.51285
  Beta virt. eigenvalues --   -0.48792  -0.38407  -0.33683  -0.31648  -0.30320
  Beta virt. eigenvalues --   -0.27250  -0.26691  -0.24732  -0.23485  -0.21641

 Mulliken charges and spin densities:
               1          2
     1  H    0.479279  -0.023494
     2  C    0.360804   0.994298
     3  C    0.282058  -0.064419
     4  C    0.438929   1.046807
     5  C    0.438929   1.046807
 Sum of Mulliken charges =   2.00000   3.00000

 Dipole moment (field-independent basis, Debye):
    X=             -0.0000    Y=              0.0000    Z=              2.2991  Tot=              2.2991
 Quadrupole moment (field-independent basis, Debye-Ang):
   XX=            -17.6061   YY=            -13.9338   ZZ=              6.5926
   XY=             -0.0000   XZ=              0.0000   YZ=             -0.0000

  Exact polarizability:  17.666  -0.000  23.671  -0.000   0.000  51.589
 Approx polarizability:  25.177   0.000  45.811   0.000   0.000 105.701

                      1                      2                      3
                     B2                     B1                     B1
 Frequencies --    297.6604               394.5010               498.8701
 Red. masses --      3.4954                 3.5113                 1.4958
 Frc consts  --      0.1825                 0.3220                 0.2193
 IR Inten    --     24.9075                21.5902                21.5286

                      4                      5                      6
                     B2                     B2                     A1
 Frequencies --    627.7861               830.0742               882.8724
 Red. masses --      6.7732                 1.6197                 8.4611
 Frc consts  --      1.5728                 0.6575                 3.8857
 IR Inten    --     47.2987                 0.0946                 0.6958

                      7                      8                      9
                     A1                     A1                     A1
 Frequencies --   1509.8658              1686.3928              3045.5932
 Red. masses --      8.7019                 9.6112                 1.1282
 Frc consts  --     11.6880                16.1045                 6.1655
 IR Inten    --     94.6213                86.0787               498.9895

 - Thermochemistry -
 -------------------
 Temperature   298.150 Kelvin.  Pressure   1.00000 Atm.
 Atom     1 has atomic number  1 and mass   1.00783

 Molecular mass:    49.00783 amu.
 Principal axes and moments of inertia in atomic units:
                           1         2         3
     Eigenvalues --    36.85561 226.88914 263.74475
           X            0.00000  -0.00000   1.00000
           Y            0.00000   1.00000   0.00000
           Z            1.00000  -0.00000  -0.00000
 This molecule is an asymmetric top.
 Rotational symmetry number  2.
 Rotational temperatures (Kelvin)      2.35008     0.38175     0.32840
 Rotational constants (GHZ):          48.96788     7.95429     6.84276
 Zero-point vibrational energy      58459.2 (Joules/Mol)
                                   13.97209 (Kcal/Mol)
 Warning -- explicit consideration of   3 degrees of freedom as
           vibrations may cause significant error
 Vibrational temperatures:    428.27   567.60   717.76   903.24  1194.29
          (Kelvin)           1270.25  2172.36  2426.34  4381.92

 Zero-point correction=                           0.022266 (Hartree/Particle)
 Thermal correction to Energy=                    0.026341
 Thermal correction to Enthalpy=                  0.027285
 Thermal correction to Gibbs Free Energy=        -0.003652
 Sum of electronic and zero-point Energies=           -151.738079
 Sum of electronic and thermal Energies=              -151.734004
 Sum of electronic and thermal Enthalpies=            -151.733059
 Sum of electronic and thermal Free Energies=         -151.763997

                     E (Thermal)             CV                S
                      KCal/Mol        Cal/Mol-Kelvin    Cal/Mol-Kelvin
 Total                   16.529             12.585             65.114
 Electronic               0.000              0.000              2.755
 Translational            0.889              2.981             37.592
 Rotational               0.889              2.981             20.938
 Vibrational             14.752              6.623              3.829
 Vibration     1          0.691              1.678              1.430
 Vibration     2          0.761              1.482              0.983
 Vibration     3          0.854              1.253              0.661

 Optimization completed.
    -- Stationary point found.
 Normal termination of Gaussian 09 at Wed Jul 20 09:54:43 2016.
