 Gaussian 09, Revision E.01,
 Gaussian 09:  EM64L-G09RevE.01 30-Nov-2015

 ---------------------------------------------
 #p b3lyp/6-311++G(3df,2p) freq symmetry=Loose
 ---------------------------------------------

 ---------
 b3lyp opt
 ---------
 Symbolic Z-matrix:
 Charge =  2 Multiplicity = 2

                         Standard orientation:
 ---------------------------------------------------------------------
 Center     Atomic      Atomic             Coordinates (Angstroms)
 Number     Number       Type             X           Y           Z
 ---------------------------------------------------------------------
      1          1           0        1.521038    1.489604    0.000424
      2          6           0        0.999402    0.517485   -0.000045
      3          6           0       -0.312602   -0.076266   -0.000361
      4          6           0        0.824613   -0.824677    0.000161
      5          6           0       -1.764920    0.135191    0.000174
 ---------------------------------------------------------------------

 SCF Done:  E(UB3LYP) =  -151.756147802     A.U. after   23 cycles

 The electronic state is 2-A.
 Alpha  occ. eigenvalues --  -10.94204 -10.86517 -10.84930 -10.83438  -1.53158
 Alpha  occ. eigenvalues --   -1.31133  -1.13504  -1.03901  -0.99140  -0.96626
 Alpha  occ. eigenvalues --   -0.88745  -0.86180
 Alpha virt. eigenvalues --   -0.73723  -0.68985  -0.57812  -0.52868  -0.39721
 Alpha virt. eigenvalues --   -0.36134  -0.35568  -0.32213  -0.28506  -0.27620
 Alpha virt. eigenvalues --   -0.26740  -0.24252  -0.22026  -0.21655  -0.20869

  Beta  occ. eigenvalues --  -10.93956 -10.84877 -10.84711 -10.83337  -1.52447
  Beta  occ. eigenvalues --   -1.30061  -1.12757  -1.01202  -0.96970  -0.96030
  Beta  occ. eigenvalues --   -0.88248
  Beta virt. eigenvalues --   -0.73273  -0.71711  -0.64859  -0.56552  -0.51548
  Beta virt. eigenvalues --   -0.39286  -0.35510  -0.34544  -0.30808  -0.28484
  Beta virt. eigenvalues --   -0.27158  -0.26448  -0.23999  -0.21696  -0.21658

 Mulliken charges and spin densities:
               1          2
     1  H    0.389725  -0.000478
     2  C    0.203975   0.023780
     3  C    0.490989  -0.010802
     4  C    0.469854   0.821759
     5  C    0.445457   0.165741
 Sum of Mulliken charges =   2.00000   1.00000

 Dipole moment (field-independent basis, Debye):
    X=              0.1393    Y=              1.2524    Z=              0.0000  Tot=              1.2601
 Quadrupole moment (field-independent basis, Debye-Ang):
   XX=             -2.2750   YY=            -11.2986   ZZ=            -16.5584
   XY=              2.1393   XZ=              0.0019   YZ=              0.0005

  Exact polarizability:  50.635  -2.750  27.707   0.001  -0.000  19.516
 Approx polarizability: 103.391  -9.128  47.032   0.007  -0.003  30.100

                      1                      2                      3
                      A                      A                      A
 Frequencies --    256.8778               288.2021               724.1662
 Red. masses --      6.3565                10.1345                10.2355
 Frc consts  --      0.2471                 0.4960                 3.1625
 IR Inten    --      0.0034                 0.3920                16.2361

                      4                      5                      6
                      A                      A                      A
 Frequencies --    886.7542               920.8760               989.6975
 Red. masses --      1.3221                 1.6601                 3.0733
 Frc consts  --      0.6125                 0.8295                 1.7736
 IR Inten    --     30.9973                76.8911               206.3803

                      7                      8                      9
                      A                      A                      A
 Frequencies --   1341.7195              1616.2504              3042.2971
 Red. masses --      8.0437                 9.0086                 1.1262
 Frc consts  --      8.5315                13.8652                 6.1416
 IR Inten    --    106.5714               341.5189               310.6704

 - Thermochemistry -
 -------------------
 Temperature   298.150 Kelvin.  Pressure   1.00000 Atm.
 Atom     1 has atomic number  1 and mass   1.00783

 Molecular mass:    49.00783 amu.
 Principal axes and moments of inertia in atomic units:
                           1         2         3
     Eigenvalues --    49.08097 218.17060 267.25155
           X            0.99882   0.04849   0.00001
           Y           -0.04849   0.99882   0.00005
           Z           -0.00001  -0.00005   1.00000
 This molecule is an asymmetric top.
 Rotational symmetry number  1.
 Rotational temperatures (Kelvin)      1.76471     0.39700     0.32409
 Rotational constants (GHZ):          36.77069     8.27216     6.75297
 Zero-point vibrational energy      60213.1 (Joules/Mol)
                                   14.39127 (Kcal/Mol)
 Warning -- explicit consideration of   2 degrees of freedom as
           vibrations may cause significant error
 Vibrational temperatures:    369.59   414.66  1041.91  1275.84  1324.93
          (Kelvin)           1423.95  1930.43  2325.42  4377.18

 Zero-point correction=                           0.022934 (Hartree/Particle)
 Thermal correction to Energy=                    0.026939
 Thermal correction to Enthalpy=                  0.027883
 Thermal correction to Gibbs Free Energy=        -0.003187
 Sum of electronic and zero-point Energies=           -151.733214
 Sum of electronic and thermal Energies=              -151.729209
 Sum of electronic and thermal Enthalpies=            -151.728264
 Sum of electronic and thermal Free Energies=         -151.759335

                     E (Thermal)             CV                S
                      KCal/Mol        Cal/Mol-Kelvin    Cal/Mol-Kelvin
 Total                   16.905             11.750             65.394
 Electronic               0.000              0.000              1.377
 Translational            0.889              2.981             37.592
 Rotational               0.889              2.981             22.575
 Vibrational             15.127              5.788              3.849
 Vibration     1          0.666              1.751              1.683
 Vibration     2          0.685              1.696              1.484

 Optimization completed.
    -- Stationary point found.
 Normal termination of Gaussian 09 at Mon Jun 20 13:40:15 2016.
