 Gaussian 09, Revision E.01,
 Gaussian 09:  EM64L-G09RevE.01 30-Nov-2015

 ---------------------------------------------
 #p b3lyp/6-311++G(3df,2p) freq symmetry=Loose
 ---------------------------------------------

 ---------
 b3lyp opt
 ---------
 Symbolic Z-matrix:
 Charge =  0 Multiplicity = 2

                         Standard orientation:
 ---------------------------------------------------------------------
 Center     Atomic      Atomic             Coordinates (Angstroms)
 Number     Number       Type             X           Y           Z
 ---------------------------------------------------------------------
      1          6           0       -0.000000   -0.000000   -1.095829
      2          1           0       -0.000000   -0.000000   -2.166409
      3          6           0        0.000000    0.000000    1.312995
      4          6           0        0.000000    0.752345    0.071951
      5          6           0       -0.000000   -0.752345    0.071951
 ---------------------------------------------------------------------

 SCF Done:  E(UB3LYP) =  -152.775094109     A.U. after   13 cycles

 The electronic state is 2-B1.
 Alpha  occ. eigenvalues --  -10.28830 -10.28802 -10.27965 -10.23671  -1.03043
 Alpha  occ. eigenvalues --   -0.76129  -0.58814  -0.56882  -0.47104  -0.42389
 Alpha  occ. eigenvalues --   -0.35049  -0.28043  -0.25433
 Alpha virt. eigenvalues --   -0.09337  -0.04106  -0.01318   0.00326   0.02694
 Alpha virt. eigenvalues --    0.04624   0.04847   0.05846   0.07763   0.08049
 Alpha virt. eigenvalues --    0.09181   0.09426   0.10556   0.11987   0.13922

  Beta  occ. eigenvalues --  -10.28940 -10.28912 -10.27009 -10.22917  -1.02205
  Beta  occ. eigenvalues --   -0.73728  -0.57686  -0.56712  -0.44143  -0.41714
  Beta  occ. eigenvalues --   -0.34901  -0.26980
  Beta virt. eigenvalues --   -0.13576  -0.09611  -0.03551  -0.01177   0.02670
  Beta virt. eigenvalues --    0.02672   0.04770   0.06179   0.07236   0.07762
  Beta virt. eigenvalues --    0.08099   0.09662   0.09837   0.10477   0.12106

 Mulliken charges and spin densities:
               1          2
     1  C   -0.007017   0.703351
     2  H    0.287223  -0.025277
     3  C   -0.455996   0.528982
     4  C    0.087895  -0.103529
     5  C    0.087895  -0.103529
 Sum of Mulliken charges =  -0.00000   1.00000

 Dipole moment (field-independent basis, Debye):
    X=             -0.0000    Y=             -0.0000    Z=             -4.0992  Tot=              4.0992
 Quadrupole moment (field-independent basis, Debye-Ang):
   XX=            -22.9331   YY=            -24.9458   ZZ=            -24.5014
   XY=             -0.0000   XZ=             -0.0000   YZ=              0.0000

  Exact polarizability:  29.038   0.000  39.551   0.000  -0.000  51.693
 Approx polarizability:  43.097   0.000  82.525  -0.000   0.000  84.451

                      1                      2                      3
                     B1                     B2                     B1
 Frequencies --    235.5929               369.1800               467.1386
 Red. masses --      1.2338                 7.6194                 7.4566
 Frc consts  --      0.0403                 0.6119                 0.9587
 IR Inten    --     31.8777                57.4675                 7.7304

                      4                      5                      6
                     B2                     A1                     B2
 Frequencies --    755.5789               953.7651              1007.8462
 Red. masses --      9.6113                10.0525                 1.2177
 Frc consts  --      3.2329                 5.3878                 0.7288
 IR Inten    --     16.4249                 4.7250                 2.1524

                      7                      8                      9
                     A1                     A1                     A1
 Frequencies --   1227.5648              1395.5624              3329.8059
 Red. masses --     11.9739                 7.2164                 1.1087
 Frc consts  --     10.6310                 8.2808                 7.2425
 IR Inten    --      8.5405                 0.9242                34.2102

 - Thermochemistry -
 -------------------
 Temperature   298.150 Kelvin.  Pressure   1.00000 Atm.
 Atom     1 has atomic number  6 and mass  12.00000

 Molecular mass:    49.00783 amu.
 Principal axes and moments of inertia in atomic units:
                           1         2         3
     Eigenvalues --    48.51133 142.33395 190.84528
           X            0.00000   0.00000   1.00000
           Y            0.00000   1.00000  -0.00000
           Z            1.00000   0.00000   0.00000
 This molecule is an asymmetric top.
 Rotational symmetry number  2.
 Rotational temperatures (Kelvin)      1.78543     0.60853     0.45384
 Rotational constants (GHZ):          37.20247    12.67963     9.45657
 Zero-point vibrational energy      58270.3 (Joules/Mol)
                                   13.92694 (Kcal/Mol)
 Warning -- explicit consideration of   3 degrees of freedom as
           vibrations may cause significant error
 Vibrational temperatures:    338.97   531.17   672.11  1087.11  1372.25
          (Kelvin)           1450.06  1766.19  2007.90  4790.84

 Zero-point correction=                           0.022194 (Hartree/Particle)
 Thermal correction to Energy=                    0.026318
 Thermal correction to Enthalpy=                  0.027262
 Thermal correction to Gibbs Free Energy=        -0.002940
 Sum of electronic and zero-point Energies=           -152.752900
 Sum of electronic and thermal Energies=              -152.748776
 Sum of electronic and thermal Enthalpies=            -152.747832
 Sum of electronic and thermal Free Energies=         -152.778034

                     E (Thermal)             CV                S
                      KCal/Mol        Cal/Mol-Kelvin    Cal/Mol-Kelvin
 Total                   16.515             12.428             63.566
 Electronic               0.000              0.000              1.377
 Translational            0.889              2.981             37.592
 Rotational               0.889              2.981             20.427
 Vibrational             14.738              6.466              4.170
 Vibration     1          0.655              1.786              1.836
 Vibration     2          0.741              1.536              1.083
 Vibration     3          0.824              1.323              0.746

 Optimization completed.
    -- Stationary point found.
 Normal termination of Gaussian 09 at Wed Jul 20 17:33:27 2016.
