 Gaussian 09, Revision E.01,
 Gaussian 09:  EM64L-G09RevE.01 30-Nov-2015

 -------------------------------------------------
 #p b3lyp/6-311++G(3df,2p) opt freq symmetry=Loose
 -------------------------------------------------

 ---------
 b3lyp opt
 ---------
 Symbolic Z-matrix:
 Charge =  1 Multiplicity = 3

 SCF Done:  E(UB3LYP) =  -152.457132851     A.U. after   18 cycles
 Optimization completed.
    -- Stationary point found.
 Normal termination of Gaussian 09 at Tue Jul  5 15:02:38 2016.

 ----------------------------------------------------------------------
 #P Geom=AllCheck Guess=TCheck SCRF=Check GenChk UB3LYP/6-311++G(3df,2p
 ) Freq
 ----------------------------------------------------------------------

 Structure from the checkpoint file:  "/scratch/sergio/HC4.q1.m3-1.bis.com-2105147/Gau-15215.chk"
 ---------
 b3lyp opt
 ---------
 Charge =  1 Multiplicity = 3

                         Standard orientation:
 ---------------------------------------------------------------------
 Center     Atomic      Atomic             Coordinates (Angstroms)
 Number     Number       Type             X           Y           Z
 ---------------------------------------------------------------------
      1          1           0        0.238458    2.855932    0.000000
      2          6           0        0.128816    1.785303    0.000000
      3          6           0        0.000000    0.545598    0.000000
      4          6           0       -0.138423   -0.740002    0.000000
      5          6           0       -0.030136   -2.066888    0.000000
 ---------------------------------------------------------------------

 SCF Done:  E(UB3LYP) =  -152.457132851     A.U. after    1 cycles

 The electronic state is 3-A".
 Alpha  occ. eigenvalues --  -10.54877 -10.54540 -10.52563 -10.51625  -1.12869
 Alpha  occ. eigenvalues --   -1.06685  -0.94843  -0.82695  -0.67105  -0.67058
 Alpha  occ. eigenvalues --   -0.58360  -0.56942  -0.56670
 Alpha virt. eigenvalues --   -0.34641  -0.34468  -0.17430  -0.16278  -0.15673
 Alpha virt. eigenvalues --   -0.15056  -0.10502  -0.10500  -0.10286  -0.07023
 Alpha virt. eigenvalues --   -0.05519  -0.05472  -0.03598  -0.01114  -0.00903

  Beta  occ. eigenvalues --  -10.53475 -10.53420 -10.51921 -10.51631  -1.10658
  Beta  occ. eigenvalues --   -1.01939  -0.92690  -0.81429  -0.63526  -0.63436
  Beta  occ. eigenvalues --   -0.55654
  Beta virt. eigenvalues --   -0.45634  -0.45482  -0.29833  -0.29756  -0.16510
  Beta virt. eigenvalues --   -0.15171  -0.13344  -0.12926  -0.09967  -0.09836
  Beta virt. eigenvalues --   -0.09525  -0.06289  -0.04895  -0.04485  -0.02959

 Mulliken charges and spin densities:
               1          2
     1  H    0.398072  -0.024880
     2  C    0.350742   0.703133
     3  C   -0.142205   0.116234
     4  C    0.618161   0.599084
     5  C   -0.224771   0.606430
 Sum of Mulliken charges =   1.00000   2.00000

 Dipole moment (field-independent basis, Debye):
    X=             -0.0070    Y=              3.6570    Z=              0.0000  Tot=              3.6570
 Quadrupole moment (field-independent basis, Debye-Ang):
   XX=            -19.9427   YY=             -3.9769   ZZ=            -19.9677
   XY=              2.0433   XZ=              0.0000   YZ=              0.0000

  Exact polarizability:  24.531   6.186  91.149  -0.000  -0.000  25.119
 Approx polarizability:  33.722   9.541 192.572  -0.000  -0.000  32.937

                      1                      2                      3
                     A'                     A"                     A'
 Frequencies --    145.1367               367.4629               394.9246
 Red. masses --      6.9797                 4.9416                 5.7328
 Frc consts  --      0.0866                 0.3931                 0.5268
 IR Inten    --     14.3531                23.8932                34.8980

                      4                      5                      6
                     A'                     A"                     A'
 Frequencies --    669.9635               677.6740               930.2299
 Red. masses --      1.3323                 1.3442                 9.0435
 Frc consts  --      0.3523                 0.3637                 4.6107
 IR Inten    --     23.7152                21.8882                12.9384

                      7                      8                      9
                     A'                     A'                     A'
 Frequencies --   1630.4878              2027.9630              3317.8566
 Red. masses --      8.2388                 9.1162                 1.1345
 Frc consts  --     12.9047                22.0893                 7.3582
 IR Inten    --    207.5234               159.5579               217.3965

 - Thermochemistry -
 -------------------
 Temperature   298.150 Kelvin.  Pressure   1.00000 Atm.
 Atom     1 has atomic number  1 and mass   1.00783

 Molecular mass:    49.00783 amu.
 Principal axes and moments of inertia in atomic units:
                           1         2         3
     Eigenvalues --     0.79964 385.61743 386.41707
           X            0.05026   0.99874   0.00000
           Y            0.99874  -0.05026   0.00000
           Z            0.00000  -0.00000   1.00000
 This molecule is an asymmetric top.
 Rotational symmetry number  1.
 Rotational temperatures (Kelvin)    108.31594     0.22461     0.22415
 Rotational constants (GHZ):        2256.94067     4.68013     4.67045
 Zero-point vibrational energy      60780.5 (Joules/Mol)
                                   14.52688 (Kcal/Mol)
 Warning -- explicit consideration of   3 degrees of freedom as
           vibrations may cause significant error
 Vibrational temperatures:    208.82   528.70   568.21   963.93   975.02
          (Kelvin)           1338.39  2345.91  2917.78  4773.65

 Zero-point correction=                           0.023150 (Hartree/Particle)
 Thermal correction to Energy=                    0.027590
 Thermal correction to Enthalpy=                  0.028534
 Thermal correction to Gibbs Free Energy=        -0.002258
 Sum of electronic and zero-point Energies=           -152.433983
 Sum of electronic and thermal Energies=              -152.429543
 Sum of electronic and thermal Enthalpies=            -152.428599
 Sum of electronic and thermal Free Energies=         -152.459391

                     E (Thermal)             CV                S
                      KCal/Mol        Cal/Mol-Kelvin    Cal/Mol-Kelvin
 Total                   17.313             13.168             64.808
 Electronic               0.000              0.000              2.183
 Translational            0.889              2.981             37.592
 Rotational               0.889              2.981             19.416
 Vibrational             15.536              7.206              5.616
 Vibration     1          0.617              1.908              2.735
 Vibration     2          0.740              1.539              1.090
 Vibration     3          0.762              1.481              0.981

 Optimization completed.
    -- Stationary point found.
 Normal termination of Gaussian 09 at Tue Jul  5 15:07:31 2016.
