 Gaussian 09, Revision E.01,
 Gaussian 09:  EM64L-G09RevE.01 30-Nov-2015

 ---------------------------------------------
 #p b3lyp/6-311++G(3df,2p) freq symmetry=Loose
 ---------------------------------------------

 ---------
 b3lyp opt
 ---------
 Symbolic Z-matrix:
 Charge =  3 Multiplicity = 3

                         Standard orientation:
 ---------------------------------------------------------------------
 Center     Atomic      Atomic             Coordinates (Angstroms)
 Number     Number       Type             X           Y           Z
 ---------------------------------------------------------------------
      1          6           0       -0.000000    0.000000    2.107306
      2          6           0       -0.000000    0.000000    0.768554
      3          6           0        0.000000    0.000000   -0.518506
      4          6           0       -0.000000   -0.000000   -1.856217
      5          1           0       -0.000000   -0.000000   -3.006832
 ---------------------------------------------------------------------

 SCF Done:  E(UB3LYP) =  -150.882686972     A.U. after   18 cycles

 Unable to determine electronic state:  an orbital has unidentified symmetry.
 Alpha  occ. eigenvalues --  -11.23344 -11.17570 -11.11859 -11.09952  -1.66775
 Alpha  occ. eigenvalues --   -1.60922  -1.50103  -1.31033  -1.23542  -1.19589
 Alpha  occ. eigenvalues --   -1.17820  -1.11192
 Alpha virt. eigenvalues --   -1.02915  -0.90930  -0.88393  -0.69948  -0.68538
 Alpha virt. eigenvalues --   -0.64771  -0.55924  -0.54233  -0.44856  -0.44007
 Alpha virt. eigenvalues --   -0.43946  -0.41620  -0.40182  -0.40125  -0.37769

  Beta  occ. eigenvalues --  -11.19558 -11.16983 -11.11215 -11.10367  -1.65231
  Beta  occ. eigenvalues --   -1.57463  -1.48294  -1.30489  -1.17235  -1.15882
  Beta virt. eigenvalues --   -1.00510  -0.98383  -0.96972  -0.85407  -0.83141
  Beta virt. eigenvalues --   -0.66815  -0.65514  -0.64023  -0.54872  -0.53638
  Beta virt. eigenvalues --   -0.44177  -0.44014  -0.43569  -0.39931  -0.39912

 Mulliken charges and spin densities:
               1          2
     1  C    0.760211   1.501327
     2  C    0.724214   0.311684
     3  C    0.300248  -0.013990
     4  C    0.673682   0.209237
     5  H    0.541645  -0.008257
 Sum of Mulliken charges =   3.00000   2.00000

 Dipole moment (field-independent basis, Debye):
    X=             -0.0000    Y=             -0.0000    Z=             -1.2140  Tot=              1.2140
 Quadrupole moment (field-independent basis, Debye-Ang):
   XX=            -14.5910   YY=            -15.9891   ZZ=             41.4959
   XY=              0.0000   XZ=              0.0000   YZ=              0.0000

  Exact polarizability:  15.323  -0.000  14.991   0.000  -0.000  70.353
 Approx polarizability:  21.106   0.000  19.757  -0.000   0.000 205.931

                      1                      2                      3
                     ?A                     ?A                     ?A
 Frequencies --    205.6434               216.7151               431.6048
 Red. masses --      4.7950                 5.1402                 6.2130
 Frc consts  --      0.1195                 0.1422                 0.6819
 IR Inten    --     32.2949                37.0012                 1.5006

                      4                      5                      6
                     ?A                     ?A                     ?A
 Frequencies --    479.4836               691.4977               863.3154
 Red. masses --      7.9128                 1.3448                 1.4388
 Frc consts  --      1.0718                 0.3789                 0.6318
 IR Inten    --      1.3036                29.3429                11.8535

                      7                      8                      9
                     SG                     SG                     SG
 Frequencies --    897.4451              1367.8441              1913.9099
 Red. masses --      8.0012                 7.8206                 8.3321
 Frc consts  --      3.7968                 8.6211                17.9824
 IR Inten    --      3.9506               976.9055                73.2644

                     10
                     SG
 Frequencies --   2630.8816
 Red. masses --      1.1755
 Frc consts  --      4.7939
 IR Inten    --    794.5395

 - Thermochemistry -
 -------------------
 Temperature   298.150 Kelvin.  Pressure   1.00000 Atm.
 Atom     1 has atomic number  6 and mass  12.00000

 Molecular mass:    49.00783 amu.
 Principal axes and moments of inertia in atomic units:
                           1         2         3
     Eigenvalues --     0.00000 406.67226 406.67226
           X           -0.00000  -0.51883   0.85488
           Y            0.00000   0.85488   0.51883
           Z            1.00000  -0.00000   0.00000
 This molecule is a prolate symmetric top.
 Rotational symmetry number  1.
 Rotational temperature (Kelvin)      0.21298
 Rotational constant (GHZ):           4.437827
 Zero-point vibrational energy      58009.0 (Joules/Mol)
                                   13.86447 (Kcal/Mol)
 Warning -- explicit consideration of   4 degrees of freedom as
           vibrations may cause significant error
 Vibrational temperatures:    295.87   311.80   620.98   689.87   994.91
          (Kelvin)           1242.12  1291.22  1968.02  2753.69  3785.25

 Zero-point correction=                           0.022094 (Hartree/Particle)
 Thermal correction to Energy=                    0.026303
 Thermal correction to Enthalpy=                  0.027248
 Thermal correction to Gibbs Free Energy=        -0.002416
 Sum of electronic and zero-point Energies=           -150.860593
 Sum of electronic and thermal Energies=              -150.856384
 Sum of electronic and thermal Enthalpies=            -150.855439
 Sum of electronic and thermal Free Energies=         -150.885103

                     E (Thermal)             CV                S
                      KCal/Mol        Cal/Mol-Kelvin    Cal/Mol-Kelvin
 Total                   16.506             13.349             62.433
 Electronic               0.000              0.000              2.183
 Translational            0.889              2.981             37.592
 Rotational               0.592              1.987             16.383
 Vibrational             15.024              8.381              6.275
 Vibration     1          0.640              1.832              2.082
 Vibration     2          0.646              1.816              1.986
 Vibration     3          0.793              1.401              0.853
 Vibration     4          0.836              1.296              0.711

 Optimization completed.
    -- Stationary point found.
 Normal termination of Gaussian 09 at Mon Jun 20 13:46:56 2016.
