 Gaussian 09, Revision E.01,
 Gaussian 09:  EM64L-G09RevE.01 30-Nov-2015

 ---------------------------------------------
 #p b3lyp/6-311++G(3df,2p) freq symmetry=Loose
 ---------------------------------------------

 ---------
 b3lyp opt
 ---------
 Symbolic Z-matrix:
 Charge =  1 Multiplicity = 3

                         Standard orientation:
 ---------------------------------------------------------------------
 Center     Atomic      Atomic             Coordinates (Angstroms)
 Number     Number       Type             X           Y           Z
 ---------------------------------------------------------------------
      1          6           0        0.040556   -0.153205    1.115626
      2          6           0       -0.923778   -0.230241    0.000000
      3          6           0        0.040556   -0.153205   -1.115626
      4          6           0        0.765387   -0.706893   -0.000000
      5          6           0        0.040556    0.913520   -0.000000
      6          1           0        0.220339    1.980148   -0.000000
 ---------------------------------------------------------------------

 SCF Done:  E(UB3LYP) =  -190.391590821     A.U. after   17 cycles

 The electronic state is 3-A".
 Alpha  occ. eigenvalues --  -10.58518 -10.58437 -10.56378 -10.55791 -10.55786
 Alpha  occ. eigenvalues --   -1.38158  -1.01841  -0.96566  -0.91385  -0.77475
 Alpha  occ. eigenvalues --   -0.72513  -0.67943  -0.64574  -0.61415  -0.59604
 Alpha  occ. eigenvalues --   -0.56361
 Alpha virt. eigenvalues --   -0.36913  -0.31171  -0.22217  -0.17612  -0.15972
 Alpha virt. eigenvalues --   -0.15094  -0.13440  -0.12143  -0.09248  -0.07810
 Alpha virt. eigenvalues --   -0.07209  -0.07041  -0.06502  -0.05867  -0.05389

  Beta  occ. eigenvalues --  -10.58304 -10.56890 -10.56257 -10.54496 -10.54494
  Beta  occ. eigenvalues --   -1.37022  -0.99771  -0.95636  -0.89282  -0.75621
  Beta  occ. eigenvalues --   -0.71221  -0.63331  -0.62415  -0.57564
  Beta virt. eigenvalues --   -0.45519  -0.41540  -0.35294  -0.28566  -0.19378
  Beta virt. eigenvalues --   -0.16627  -0.15120  -0.14007  -0.12935  -0.10775
  Beta virt. eigenvalues --   -0.08948  -0.07433  -0.06896  -0.06892  -0.06098

 Mulliken charges and spin densities:
               1          2
     1  C    0.115903   0.556714
     2  C   -0.006789   0.656724
     3  C    0.115903   0.556714
     4  C    0.059309   0.123978
     5  C    0.328353   0.112895
     6  H    0.387322  -0.007026
 Sum of Mulliken charges =   1.00000   2.00000

 Dipole moment (field-independent basis, Debye):
    X=              0.1278    Y=              1.4048    Z=              0.0000  Tot=              1.4106
 Quadrupole moment (field-independent basis, Debye-Ang):
   XX=            -23.3299   YY=            -18.9024   ZZ=            -24.8650
   XY=              0.1958   XZ=             -0.0000   YZ=             -0.0000

  Exact polarizability:  35.923  -2.933  36.994  -0.000   0.000  52.928
 Approx polarizability:  79.339 -15.439  73.439  -0.000  -0.000 109.742

                      1                      2                      3
                     A"                     A'                     A'
 Frequencies --    194.5210               469.0498               558.8608
 Red. masses --      8.9667                10.1582                 8.2456
 Frc consts  --      0.1999                 1.3168                 1.5173
 IR Inten    --      0.2947                20.9558                 3.1861

                      4                      5                      6
                     A"                     A'                     A'
 Frequencies --    729.0831               787.2209               862.3985
 Red. masses --     11.9268                 2.1525                 2.6892
 Frc consts  --      3.7353                 0.7859                 1.1784
 IR Inten    --      8.3359                 2.2098                33.7374

                      7                      8                      9
                     A"                     A'                     A'
 Frequencies --    908.1957               930.5309              1080.3120
 Red. masses --      1.1833                 5.7454                 9.4008
 Frc consts  --      0.5750                 2.9311                 6.4642
 IR Inten    --     25.7383                 3.2752                 5.4153

                     10                     11                     12
                     A"                     A'                     A'
 Frequencies --   1226.9424              1307.3278              3229.1839
 Red. masses --      8.9620                 8.6470                 1.1054
 Frc consts  --      7.9488                 8.7073                 6.7916
 IR Inten    --      1.2392                 7.3973               159.0583

 - Thermochemistry -
 -------------------
 Temperature   298.150 Kelvin.  Pressure   1.00000 Atm.
 Atom     1 has atomic number  6 and mass  12.00000

 Molecular mass:    61.00783 amu.
 Principal axes and moments of inertia in atomic units:
                           1         2         3
     Eigenvalues --   137.40038 162.11540 188.62700
           X            0.00000  -0.49940   0.86637
           Y            0.00000   0.86637   0.49940
           Z            1.00000  -0.00000  -0.00000
 This molecule is an asymmetric top.
 Rotational symmetry number  1.
 Rotational temperatures (Kelvin)      0.63038     0.53427     0.45918
 Rotational constants (GHZ):          13.13491    11.13245     9.56778
 Zero-point vibrational energy      73472.4 (Joules/Mol)
                                   17.56033 (Kcal/Mol)
 Warning -- explicit consideration of   3 degrees of freedom as
           vibrations may cause significant error
 Vibrational temperatures:    279.87   674.86   804.07  1048.99  1132.63
          (Kelvin)           1240.80  1306.69  1338.82  1554.33  1765.29
                             1880.95  4646.07

 Zero-point correction=                           0.027984 (Hartree/Particle)
 Thermal correction to Energy=                    0.032217
 Thermal correction to Enthalpy=                  0.033162
 Thermal correction to Gibbs Free Energy=         0.000910
 Sum of electronic and zero-point Energies=           -190.363607
 Sum of electronic and thermal Energies=              -190.359373
 Sum of electronic and thermal Enthalpies=            -190.358429
 Sum of electronic and thermal Free Energies=         -190.390681

                     E (Thermal)             CV                S
                      KCal/Mol        Cal/Mol-Kelvin    Cal/Mol-Kelvin
 Total                   20.217             13.827             67.879
 Electronic               0.000              0.000              2.183
 Translational            0.889              2.981             38.245
 Rotational               0.889              2.981             22.956
 Vibrational             18.439              7.865              4.494
 Vibration     1          0.635              1.847              2.184
 Vibration     2          0.826              1.319              0.740
 Vibration     3          0.914              1.120              0.526

 Optimization completed.
    -- Stationary point found.
 Normal termination of Gaussian 09 at Thu Jul 21 01:35:56 2016.
