 Gaussian 09, Revision E.01,
 Gaussian 09:  EM64L-G09RevE.01 30-Nov-2015

 ---------------------------------------------
 #p b3lyp/6-311++G(3df,2p) freq symmetry=Loose
 ---------------------------------------------

 ---------
 b3lyp opt
 ---------
 Symbolic Z-matrix:
 Charge =  3 Multiplicity = 1

                         Standard orientation:
 ---------------------------------------------------------------------
 Center     Atomic      Atomic             Coordinates (Angstroms)
 Number     Number       Type             X           Y           Z
 ---------------------------------------------------------------------
      1          6           0        0.000000    1.916330    0.000000
      2          6           0        0.000000    0.601971    0.000000
      3          6           0       -0.000002   -0.661226    0.773294
      4          6           0        0.000000   -1.704489   -0.000000
      5          6           0       -0.000002   -0.661226   -0.773294
      6          1           0        0.000000    3.051839    0.000000
 ---------------------------------------------------------------------

 SCF Done:  E(RB3LYP) =  -188.982127092     A.U. after   12 cycles

 The electronic state is 1-A'.
 Alpha  occ. eigenvalues --  -11.15712 -11.15693 -11.12600 -11.11250 -11.07714
 Alpha  occ. eigenvalues --   -1.84376  -1.59413  -1.46826  -1.38053  -1.27434
 Alpha  occ. eigenvalues --   -1.25201  -1.24647  -1.15423  -1.07506
 Alpha virt. eigenvalues --   -0.99024  -0.93984  -0.87361  -0.83614  -0.78077
 Alpha virt. eigenvalues --   -0.66669  -0.60844  -0.52828  -0.52366  -0.50457
 Alpha virt. eigenvalues --   -0.47725  -0.44921  -0.43734  -0.41802  -0.41147

 Mulliken charges:
               1
     1  C   -0.221450
     2  C   -0.262724
     3  C    1.806319
     4  C   -0.648043
     5  C    1.806319
     6  H    0.519580
 Sum of Mulliken charges =   3.00000

 Dipole moment (field-independent basis, Debye):
    X=             -0.0000    Y=              2.5848    Z=              0.0000  Tot=              2.5848
 Quadrupole moment (field-independent basis, Debye-Ang):
   XX=            -20.8697   YY=             24.3189   ZZ=            -14.0489
   XY=              0.0000   XZ=              0.0000   YZ=             -0.0000

  Exact polarizability:  17.918  -0.000  56.673   0.000  -0.000  25.430
 Approx polarizability:  25.623  -0.000 136.219   0.000  -0.000  57.679

                      1                      2                      3
                     A'                     A"                     A'
 Frequencies --    252.5965               293.5840               453.6393
 Red. masses --      5.9489                 3.2645                11.2927
 Frc consts  --      0.2236                 0.1658                 1.3692
 IR Inten    --     19.3248                18.1216                18.8782

                      4                      5                      6
                     A"                     A'                     A'
 Frequencies --    640.2901               681.6552               694.9180
 Red. masses --      7.8086                 9.5679                 1.2474
 Frc consts  --      1.8862                 2.6194                 0.3549
 IR Inten    --      0.6078                29.0036                48.5023

                      7                      8                      9
                     A"                     A'                     A"
 Frequencies --    953.4955               973.5994              1447.7286
 Red. masses --      1.5763                 9.2428                11.9959
 Frc consts  --      0.8444                 5.1619                14.8134
 IR Inten    --      7.2091                14.4295                18.1679

                     10                     11                     12
                     A'                     A'                     A'
 Frequencies --   1730.7162              1777.8994              2763.7899
 Red. masses --      6.6574                11.1089                 1.1660
 Frc consts  --     11.7492                20.6888                 5.2477
 IR Inten    --    300.6296                 0.0940               671.1242

 - Thermochemistry -
 -------------------
 Temperature   298.150 Kelvin.  Pressure   1.00000 Atm.
 Atom     1 has atomic number  6 and mass  12.00000

 Molecular mass:    61.00783 amu.
 Principal axes and moments of inertia in atomic units:
                           1         2         3
     Eigenvalues --    51.25058 367.85275 419.10333
           X            0.00000   0.00000   1.00000
           Y            1.00000   0.00000  -0.00000
           Z            0.00000   1.00000   0.00000
 This molecule is an asymmetric top.
 Rotational symmetry number  1.
 Rotational temperatures (Kelvin)      1.69001     0.23546     0.20666
 Rotational constants (GHZ):          35.21407     4.90615     4.30620
 Zero-point vibrational energy      75747.0 (Joules/Mol)
                                   18.10397 (Kcal/Mol)
 Warning -- explicit consideration of   3 degrees of freedom as
           vibrations may cause significant error
 Vibrational temperatures:    363.43   422.40   652.68   921.23   980.75
          (Kelvin)            999.83  1371.87  1400.79  2082.96  2490.11
                             2558.00  3976.47

 Zero-point correction=                           0.028851 (Hartree/Particle)
 Thermal correction to Energy=                    0.033323
 Thermal correction to Enthalpy=                  0.034267
 Thermal correction to Gibbs Free Energy=         0.002412
 Sum of electronic and zero-point Energies=           -188.953277
 Sum of electronic and thermal Energies=              -188.948804
 Sum of electronic and thermal Enthalpies=            -188.947860
 Sum of electronic and thermal Free Energies=         -188.979715

                     E (Thermal)             CV                S
                      KCal/Mol        Cal/Mol-Kelvin    Cal/Mol-Kelvin
 Total                   20.911             14.399             67.045
 Electronic               0.000              0.000              0.000
 Translational            0.889              2.981             38.245
 Rotational               0.889              2.981             23.584
 Vibrational             19.133              8.437              5.216
 Vibration     1          0.664              1.758              1.712
 Vibration     2          0.688              1.686              1.453
 Vibration     3          0.812              1.353              0.785

 Optimization completed.
    -- Stationary point found.
 Normal termination of Gaussian 09 at Wed Jul 20 20:01:40 2016.
