 Gaussian 09, Revision E.01,
 Gaussian 09:  EM64L-G09RevE.01 30-Nov-2015

 ---------------------------------------------
 #p b3lyp/6-311++G(3df,2p) freq symmetry=Loose
 ---------------------------------------------

 ---------
 b3lyp opt
 ---------
 Symbolic Z-matrix:
 Charge =  1 Multiplicity = 3

                         Standard orientation:
 ---------------------------------------------------------------------
 Center     Atomic      Atomic             Coordinates (Angstroms)
 Number     Number       Type             X           Y           Z
 ---------------------------------------------------------------------
      1          6           0       -1.970479    0.026194   -0.170596
      2          6           0        1.462490   -0.175241   -0.368361
      3          6           0        0.464698   -0.886739    0.310284
      4          6           0       -0.654216   -0.066327    0.070241
      5          6           0        0.579255    0.809063    0.062002
      6          1           0        0.709512    1.758302    0.578579
 ---------------------------------------------------------------------

 SCF Done:  E(UB3LYP) =  -190.432074320     A.U. after   25 cycles

 The electronic state is 3-A.
 Alpha  occ. eigenvalues --  -10.57562 -10.56043 -10.53762 -10.53737 -10.50531
 Alpha  occ. eigenvalues --   -1.27025  -1.04792  -0.92395  -0.89761  -0.77657
 Alpha  occ. eigenvalues --   -0.71554  -0.69182  -0.61062  -0.56919  -0.55898
 Alpha  occ. eigenvalues --   -0.53977
 Alpha virt. eigenvalues --   -0.38808  -0.33328  -0.31562  -0.22543  -0.15644
 Alpha virt. eigenvalues --   -0.13080  -0.12029  -0.11397  -0.09127  -0.08355
 Alpha virt. eigenvalues --   -0.06997  -0.06045  -0.05782  -0.04855  -0.04378

  Beta  occ. eigenvalues --  -10.56025 -10.55720 -10.53168 -10.52412 -10.50345
  Beta  occ. eigenvalues --   -1.25426  -1.02930  -0.90506  -0.87606  -0.74024
  Beta  occ. eigenvalues --   -0.70179  -0.67521  -0.56303  -0.54301
  Beta virt. eigenvalues --   -0.43131  -0.41382  -0.37128  -0.29723  -0.29076
  Beta virt. eigenvalues --   -0.19980  -0.15246  -0.12551  -0.11471  -0.10677
  Beta virt. eigenvalues --   -0.08786  -0.08074  -0.06607  -0.05688  -0.05418

 Mulliken charges and spin densities:
               1          2
     1  C   -0.137631   0.311889
     2  C   -0.055637   0.666963
     3  C    0.327220   0.733478
     4  C    0.581026   0.087852
     5  C    0.001655   0.176413
     6  H    0.283367   0.023405
 Sum of Mulliken charges =   1.00000   2.00000

 Dipole moment (field-independent basis, Debye):
    X=              1.2932    Y=              1.1312    Z=              0.8430  Tot=              1.9138
 Quadrupole moment (field-independent basis, Debye-Ang):
   XX=            -23.0798   YY=            -19.3804   ZZ=            -25.2886
   XY=              1.4520   XZ=              0.9575   YZ=              0.8435

  Exact polarizability:  81.700  -2.107  40.216  -1.142  -0.468  32.221
 Approx polarizability: 171.001  -6.725  74.139  -7.843  -2.484  50.146

                      1                      2                      3
                      A                      A                      A
 Frequencies --    210.9201               226.5558               510.6726
 Red. masses --      8.9667                 9.2187                 6.4946
 Frc consts  --      0.2350                 0.2788                 0.9979
 IR Inten    --      5.6475                 9.3677                22.1562

                      4                      5                      6
                      A                      A                      A
 Frequencies --    610.5699               711.6420               855.1205
 Red. masses --     10.9013                 9.0464                 1.4471
 Frc consts  --      2.3944                 2.6993                 0.6235
 IR Inten    --      0.4873                14.5850                15.4317

                      7                      8                      9
                      A                      A                      A
 Frequencies --    963.6698              1116.6421              1140.9075
 Red. masses --      2.8380                 1.7320                 4.9372
 Frc consts  --      1.5528                 1.2724                 3.7864
 IR Inten    --      2.5989                26.8601                 3.8614

                     10                     11                     12
                      A                      A                      A
 Frequencies --   1345.1508              1612.4560              3144.8985
 Red. masses --      9.4536                11.2545                 1.0974
 Frc consts  --     10.0783                17.2406                 6.3947
 IR Inten    --     38.9561               388.3684                96.2992

 - Thermochemistry -
 -------------------
 Temperature   298.150 Kelvin.  Pressure   1.00000 Atm.
 Atom     1 has atomic number  6 and mass  12.00000

 Molecular mass:    61.00783 amu.
 Principal axes and moments of inertia in atomic units:
                           1         2         3
     Eigenvalues --    86.88239 314.41803 376.25797
           X            0.99980   0.01932   0.00603
           Y           -0.01965   0.99802   0.05969
           Z           -0.00486  -0.05980   0.99820
 This molecule is an asymmetric top.
 Rotational symmetry number  1.
 Rotational temperatures (Kelvin)      0.99691     0.27547     0.23020
 Rotational constants (GHZ):          20.77223     5.73994     4.79655
 Zero-point vibrational energy      74462.8 (Joules/Mol)
                                   17.79703 (Kcal/Mol)
 Warning -- explicit consideration of   4 degrees of freedom as
           vibrations may cause significant error
 Vibrational temperatures:    303.47   325.96   734.74   878.47  1023.89
          (Kelvin)           1230.33  1386.50  1606.60  1641.51  1935.37
                             2319.96  4524.80

 Zero-point correction=                           0.028361 (Hartree/Particle)
 Thermal correction to Energy=                    0.032900
 Thermal correction to Enthalpy=                  0.033844
 Thermal correction to Gibbs Free Energy=         0.000591
 Sum of electronic and zero-point Energies=           -190.403713
 Sum of electronic and thermal Energies=              -190.399174
 Sum of electronic and thermal Enthalpies=            -190.398230
 Sum of electronic and thermal Free Energies=         -190.431484

                     E (Thermal)             CV                S
                      KCal/Mol        Cal/Mol-Kelvin    Cal/Mol-Kelvin
 Total                   20.645             14.303             69.988
 Electronic               0.000              0.000              2.183
 Translational            0.889              2.981             38.245
 Rotational               0.889              2.981             23.845
 Vibrational             18.868              8.341              5.714
 Vibration     1          0.643              1.824              2.036
 Vibration     2          0.650              1.801              1.906
 Vibration     3          0.866              1.226              0.632
 Vibration     4          0.970              1.009              0.432

 Optimization completed.
    -- Stationary point found.
 Normal termination of Gaussian 09 at Mon Jun 20 14:42:58 2016.
