 Gaussian 09, Revision E.01,
 Gaussian 09:  EM64L-G09RevE.01 30-Nov-2015

 ---------------------------------------------
 #p b3lyp/6-311++G(3df,2p) freq symmetry=Loose
 ---------------------------------------------

 ---------
 b3lyp opt
 ---------
 Symbolic Z-matrix:
 Charge =  2 Multiplicity = 4

                         Standard orientation:
 ---------------------------------------------------------------------
 Center     Atomic      Atomic             Coordinates (Angstroms)
 Number     Number       Type             X           Y           Z
 ---------------------------------------------------------------------
      1          1           0       -1.492806   -1.357254    0.000000
      2          6           0       -0.402639   -1.040081    0.000000
      3          6           0       -0.036350    0.354335    0.000000
      4          6           0        0.229264    1.532529    0.683579
      5          6           0        0.229264    1.532529   -0.683579
      6          6           0        0.229264   -2.153103   -0.000000
 ---------------------------------------------------------------------

 SCF Done:  E(UB3LYP) =  -189.824304087     A.U. after   16 cycles

 The electronic state is 4-A".
 Alpha  occ. eigenvalues --  -10.87026 -10.79268 -10.79197 -10.78744 -10.75190
 Alpha  occ. eigenvalues --   -1.46984  -1.35444  -1.16598  -1.03442  -1.00955
 Alpha  occ. eigenvalues --   -0.95375  -0.93030  -0.88317  -0.85721  -0.83698
 Alpha  occ. eigenvalues --   -0.77090
 Alpha virt. eigenvalues --   -0.64597  -0.54098  -0.52144  -0.51424  -0.34280
 Alpha virt. eigenvalues --   -0.30000  -0.29506  -0.29278  -0.26744  -0.25951
 Alpha virt. eigenvalues --   -0.22977  -0.22671  -0.22163  -0.21638  -0.19471

  Beta  occ. eigenvalues --  -10.84506 -10.78454 -10.77293 -10.77238 -10.75134
  Beta  occ. eigenvalues --   -1.44887  -1.33576  -1.14464  -1.00010  -0.97536
  Beta  occ. eigenvalues --   -0.90972  -0.87481  -0.82258
  Beta virt. eigenvalues --   -0.70357  -0.65100  -0.60982  -0.60389  -0.52712
  Beta virt. eigenvalues --   -0.48397  -0.47192  -0.33674  -0.29355  -0.28969
  Beta virt. eigenvalues --   -0.27023  -0.26303  -0.24022  -0.22009  -0.21700

 Mulliken charges and spin densities:
               1          2
     1  H    0.285475   0.000714
     2  C    0.442717  -0.142630
     3  C    0.472645  -0.164347
     4  C    0.279206   1.030994
     5  C    0.279206   1.030994
     6  C    0.240751   1.244273
 Sum of Mulliken charges =   2.00000   3.00000

 Dipole moment (field-independent basis, Debye):
    X=             -0.6226    Y=             -3.0717    Z=             -0.0000  Tot=              3.1342
 Quadrupole moment (field-independent basis, Debye-Ang):
   XX=            -17.4804   YY=              6.4184   ZZ=            -20.9736
   XY=              2.4947   XZ=             -0.0000   YZ=             -0.0000

  Exact polarizability:  28.372   1.510  60.711  -0.000  -0.000  32.409
 Approx polarizability:  47.778  -3.093 107.634   0.000  -0.000  54.308

                      1                      2                      3
                     A"                     A'                     A"
 Frequencies --     74.1889               230.4532               319.9000
 Red. masses --      3.1351                10.2378                 2.7710
 Frc consts  --      0.0102                 0.3203                 0.1671
 IR Inten    --      1.8114                 2.5628                15.5000

                      4                      5                      6
                     A'                     A"                     A'
 Frequencies --    475.4695               555.9274               749.2949
 Red. masses --      4.7876                 2.9471                 9.9097
 Frc consts  --      0.6377                 0.5366                 3.2781
 IR Inten    --      0.9782                 6.7860                 1.9985

                      7                      8                      9
                     A'                     A"                     A'
 Frequencies --    940.9721              1140.8049              1283.3827
 Red. masses --      1.2149                11.9121                11.8786
 Frc consts  --      0.6338                 9.1340                11.5273
 IR Inten    --      8.7412                75.9313                 5.7587

                     10                     11                     12
                     A'                     A'                     A'
 Frequencies --   1642.6201              1715.8028              2701.3685
 Red. masses --     11.3701                10.8200                 1.0745
 Frc consts  --     18.0755                18.7677                 4.6198
 IR Inten    --      4.8577                34.6309               388.6362

 - Thermochemistry -
 -------------------
 Temperature   298.150 Kelvin.  Pressure   1.00000 Atm.
 Atom     1 has atomic number  1 and mass   1.00783

 Molecular mass:    61.00783 amu.
 Principal axes and moments of inertia in atomic units:
                           1         2         3
     Eigenvalues --    59.14144 479.86490 500.82049
           X            0.07613   0.00000   0.99710
           Y            0.99710   0.00000  -0.07613
           Z            0.00000   1.00000   0.00000
 This molecule is an asymmetric top.
 Rotational symmetry number  1.
 Rotational temperatures (Kelvin)      1.46452     0.18050     0.17294
 Rotational constants (GHZ):          30.51568     3.76094     3.60357
 Zero-point vibrational energy      70760.2 (Joules/Mol)
                                   16.91210 (Kcal/Mol)
 Warning -- explicit consideration of   5 degrees of freedom as
           vibrations may cause significant error
 Vibrational temperatures:    106.74   331.57   460.26   684.09   799.85
          (Kelvin)           1078.07  1353.85  1641.36  1846.50  2363.36
                             2468.65  3886.66

 Zero-point correction=                           0.026951 (Hartree/Particle)
 Thermal correction to Energy=                    0.032087
 Thermal correction to Enthalpy=                  0.033031
 Thermal correction to Gibbs Free Energy=        -0.002182
 Sum of electronic and zero-point Energies=           -189.797353
 Sum of electronic and thermal Energies=              -189.792217
 Sum of electronic and thermal Enthalpies=            -189.791273
 Sum of electronic and thermal Free Energies=         -189.826486

                     E (Thermal)             CV                S
                      KCal/Mol        Cal/Mol-Kelvin    Cal/Mol-Kelvin
 Total                   20.135             15.457             74.111
 Electronic               0.000              0.000              2.755
 Translational            0.889              2.981             38.245
 Rotational               0.889              2.981             24.167
 Vibrational             18.357              9.495              8.944
 Vibration     1          0.599              1.966              4.039
 Vibration     2          0.652              1.794              1.875
 Vibration     3          0.706              1.635              1.311
 Vibration     4          0.832              1.304              0.722
 Vibration     5          0.911              1.127              0.532

 Optimization completed.
    -- Stationary point found.
 Normal termination of Gaussian 09 at Mon Jun 20 14:59:25 2016.
