 Gaussian 09, Revision E.01,
 Gaussian 09:  EM64L-G09RevE.01 30-Nov-2015

 ---------------------------------------------
 #p b3lyp/6-311++G(3df,2p) freq symmetry=Loose
 ---------------------------------------------

 ---------
 b3lyp opt
 ---------
 Symbolic Z-matrix:
 Charge =  1 Multiplicity = 3

                         Standard orientation:
 ---------------------------------------------------------------------
 Center     Atomic      Atomic             Coordinates (Angstroms)
 Number     Number       Type             X           Y           Z
 ---------------------------------------------------------------------
      1          1           0        0.000000   -0.000000    1.754484
      2          6           0        0.000000   -0.000000    0.663767
      3          6           0        0.000000    1.208790    0.013259
      4          6           0        0.000000    2.315481   -0.491349
      5          6           0       -0.000000   -1.208790    0.013259
      6          6           0       -0.000000   -2.315481   -0.491349
 ---------------------------------------------------------------------

 SCF Done:  E(UB3LYP) =  -190.455736504     A.U. after   18 cycles

 The electronic state is 3-B2.
 Alpha  occ. eigenvalues --  -10.53024 -10.52422 -10.52421 -10.45422 -10.45420
 Alpha  occ. eigenvalues --   -1.09743  -1.03734  -0.98445  -0.82716  -0.75861
 Alpha  occ. eigenvalues --   -0.65261  -0.64862  -0.62675  -0.55911  -0.55731
 Alpha  occ. eigenvalues --   -0.55609
 Alpha virt. eigenvalues --   -0.41234  -0.23982  -0.21423  -0.20615  -0.15674
 Alpha virt. eigenvalues --   -0.12521  -0.11523  -0.10698  -0.09332  -0.07284
 Alpha virt. eigenvalues --   -0.06947  -0.06855  -0.05424  -0.04704  -0.03824

  Beta  occ. eigenvalues --  -10.53037 -10.50082 -10.50081 -10.45351 -10.45349
  Beta  occ. eigenvalues --   -1.09706  -1.01733  -0.96098  -0.81943  -0.76009
  Beta  occ. eigenvalues --   -0.62753  -0.54190  -0.54073  -0.53906
  Beta virt. eigenvalues --   -0.43034  -0.42620  -0.38886  -0.21624  -0.18686
  Beta virt. eigenvalues --   -0.18360  -0.15510  -0.11575  -0.11165  -0.10132
  Beta virt. eigenvalues --   -0.08803  -0.07295  -0.06114  -0.06072  -0.05087

 Mulliken charges and spin densities:
               1          2
     1  H    0.231616  -0.009047
     2  C   -0.761645   0.067243
     3  C    0.588836  -0.101779
     4  C    0.176179   1.072682
     5  C    0.588836  -0.101779
     6  C    0.176179   1.072682
 Sum of Mulliken charges =   1.00000   2.00000

 Dipole moment (field-independent basis, Debye):
    X=             -0.0000    Y=             -0.0000    Z=              0.4666  Tot=              0.4666
 Quadrupole moment (field-independent basis, Debye-Ang):
   XX=            -25.2613   YY=             -5.8580   ZZ=            -21.2489
   XY=              0.0000   XZ=              0.0000   YZ=              0.0000

  Exact polarizability:  28.892   0.000 101.870  -0.000  -0.000  42.625
 Approx polarizability:  39.296   0.000 236.307   0.000  -0.000  60.977

                      1                      2                      3
                     A1                     B2                     B1
 Frequencies --     99.9378               127.6300               256.6395
 Red. masses --     10.9140                 8.9662                 3.6408
 Frc consts  --      0.0642                 0.0861                 0.1413
 IR Inten    --      0.5748                 2.8616                11.8262

                      4                      5                      6
                     A2                     A1                     B1
 Frequencies --    270.5404               481.9850               921.8879
 Red. masses --     12.0000                10.8073                 1.7244
 Frc consts  --      0.5175                 1.4792                 0.8635
 IR Inten    --      0.0000                 5.9663                 4.9824

                      7                      8                      9
                     A1                     B2                     B2
 Frequencies --    961.4507              1168.0830              1410.0906
 Red. masses --      8.2448                 1.5561                 2.6784
 Frc consts  --      4.4904                 1.2510                 3.1378
 IR Inten    --      0.0489                91.6658                33.6208

                     10                     11                     12
                     B2                     A1                     A1
 Frequencies --   2142.7936              2185.7459              3107.2184
 Red. masses --     11.9987                11.6928                 1.0874
 Frc consts  --     32.4596                32.9130                 6.1859
 IR Inten    --    646.2371                69.0118                50.9180

 - Thermochemistry -
 -------------------
 Temperature   298.150 Kelvin.  Pressure   1.00000 Atm.
 Atom     1 has atomic number  1 and mass   1.00783

 Molecular mass:    61.00783 amu.
 Principal axes and moments of inertia in atomic units:
                           1         2         3
     Eigenvalues --    50.48794 584.73692 635.22486
           X            0.00000   0.00000   1.00000
           Y            1.00000   0.00000   0.00000
           Z            0.00000   1.00000   0.00000
 This molecule is an asymmetric top.
 Rotational symmetry number  2.
 Rotational temperatures (Kelvin)      1.71553     0.14812     0.13635
 Rotational constants (GHZ):          35.74599     3.08642     2.84111
 Zero-point vibrational energy      78558.8 (Joules/Mol)
                                   18.77600 (Kcal/Mol)
 Warning -- explicit consideration of   5 degrees of freedom as
           vibrations may cause significant error
 Vibrational temperatures:    143.79   183.63   369.25   389.25   693.47
          (Kelvin)           1326.39  1383.31  1680.61  2028.80  3083.00
                             3144.80  4470.59

 Zero-point correction=                           0.029921 (Hartree/Particle)
 Thermal correction to Energy=                    0.035464
 Thermal correction to Enthalpy=                  0.036409
 Thermal correction to Gibbs Free Energy=         0.001146
 Sum of electronic and zero-point Energies=           -190.425815
 Sum of electronic and thermal Energies=              -190.420272
 Sum of electronic and thermal Enthalpies=            -190.419328
 Sum of electronic and thermal Free Energies=         -190.454590

                     E (Thermal)             CV                S
                      KCal/Mol        Cal/Mol-Kelvin    Cal/Mol-Kelvin
 Total                   22.254             15.839             74.215
 Electronic               0.000              0.000              2.183
 Translational            0.889              2.981             38.245
 Rotational               0.889              2.981             23.065
 Vibrational             20.477              9.878             10.722
 Vibration     1          0.604              1.949              3.456
 Vibration     2          0.611              1.926              2.981
 Vibration     3          0.666              1.752              1.685
 Vibration     4          0.674              1.727              1.593
 Vibration     5          0.838              1.290              0.705

 Optimization completed.
    -- Stationary point found.
 Normal termination of Gaussian 09 at Mon Jun 20 14:30:08 2016.
