 Gaussian 09, Revision E.01,
 Gaussian 09:  EM64L-G09RevE.01 30-Nov-2015

 ---------------------------------------------
 #p b3lyp/6-311++G(3df,2p) freq symmetry=Loose
 ---------------------------------------------

 ---------
 b3lyp opt
 ---------
 Symbolic Z-matrix:
 Charge =  2 Multiplicity = 4

                         Standard orientation:
 ---------------------------------------------------------------------
 Center     Atomic      Atomic             Coordinates (Angstroms)
 Number     Number       Type             X           Y           Z
 ---------------------------------------------------------------------
      1          1           0        0.000000    0.000000   -3.538177
      2          6           0        0.000000    0.000000   -2.446851
      3          6           0        0.000000    0.000000   -1.175083
      4          6           0        0.000000    0.000000    0.117790
      5          6           0        0.000000    0.000000    1.404633
      6          6           0        0.000000    0.000000    2.689208
 ---------------------------------------------------------------------

 SCF Done:  E(UB3LYP) =  -189.926664417     A.U. after   18 cycles

 Unable to determine electronic state:  an orbital has unidentified symmetry.
 Alpha  occ. eigenvalues --  -10.82338 -10.76685 -10.75319 -10.75170 -10.73910
 Alpha  occ. eigenvalues --   -1.34445  -1.30614  -1.23186  -1.13605  -1.00616
 Alpha  occ. eigenvalues --   -0.90551  -0.89887  -0.87183  -0.83728  -0.80243
 Alpha  occ. eigenvalues --   -0.72129
 Alpha virt. eigenvalues --   -0.64114  -0.51055  -0.48087  -0.33953  -0.32294
 Alpha virt. eigenvalues --   -0.31975  -0.31547  -0.27401  -0.25351  -0.24774
 Alpha virt. eigenvalues --   -0.24499  -0.21318  -0.20443  -0.20125  -0.18201

  Beta  occ. eigenvalues --  -10.78625 -10.75697 -10.74866 -10.74733 -10.73648
  Beta  occ. eigenvalues --   -1.32143  -1.26938  -1.19416  -1.11737  -0.99630
  Beta  occ. eigenvalues --   -0.86745  -0.83557  -0.78487
  Beta virt. eigenvalues --   -0.70394  -0.64933  -0.61321  -0.57554  -0.45673
  Beta virt. eigenvalues --   -0.42619  -0.31933  -0.30635  -0.30286  -0.28022
  Beta virt. eigenvalues --   -0.26726  -0.24401  -0.23986  -0.23949  -0.20521

 Mulliken charges and spin densities:
               1          2
     1  H    0.448579  -0.016960
     2  C    0.482851   0.449601
     3  C    0.326183   0.167888
     4  C   -0.630282   0.544884
     5  C    0.945658   0.125633
     6  C    0.427010   1.728954
 Sum of Mulliken charges =   2.00000   3.00000

 Dipole moment (field-independent basis, Debye):
    X=              0.0000    Y=              0.0000    Z=             -0.9268  Tot=              0.9268
 Quadrupole moment (field-independent basis, Debye-Ang):
   XX=            -22.8273   YY=            -22.7189   ZZ=             35.4669
   XY=              0.0000   XZ=              0.0000   YZ=              0.0000

  Exact polarizability:  22.773  -0.000  22.102  -0.000  -0.000 119.224
 Approx polarizability:  30.765  -0.000  30.014  -0.000  -0.000 330.722

                      1                      2                      3
                     ?A                     ?A                     ?A
 Frequencies --    137.5652               147.9061               314.5836
 Red. masses --      6.5705                 5.7502                 6.7683
 Frc consts  --      0.0733                 0.0741                 0.3946
 IR Inten    --     15.6684                16.7775                 1.4082

                      4                      5                      6
                     ?A                     ?A                     ?A
 Frequencies --    412.2297               508.0920               562.5693
 Red. masses --      4.3143                 2.1601                 3.0837
 Frc consts  --      0.4320                 0.3286                 0.5750
 IR Inten    --      2.5543                11.4427                16.6131

                      7                      8                      9
                     ?A                     SG                     ?A
 Frequencies --    638.9525               786.8345               829.9022
 Red. masses --      8.5807                 8.8902                 1.3642
 Frc consts  --      2.0640                 3.2429                 0.5536
 IR Inten    --     11.4638                 0.2920                12.8001

                     10                     11                     12
                     SG                     SG                     SG
 Frequencies --   1380.6858              1841.5074              1905.1087
 Red. masses --      8.9737                11.9635                 8.0349
 Frc consts  --     10.0788                23.9033                17.1818
 IR Inten    --    398.9672                56.4709                78.0691

                     13
                     SG
 Frequencies --   3172.1226
 Red. masses --      1.1382
 Frc consts  --      6.7478
 IR Inten    --    456.7515

 - Thermochemistry -
 -------------------
 Temperature   298.150 Kelvin.  Pressure   1.00000 Atm.
 Atom     1 has atomic number  1 and mass   1.00783

 Molecular mass:    61.00783 amu.
 Principal axes and moments of inertia in atomic units:
                           1         2         3
     Eigenvalues --     0.00000 755.11577 755.11577
           X            0.00000  -0.00000   1.00000
           Y            0.00000   1.00000   0.00000
           Z            1.00000   0.00000   0.00000
 This molecule is a prolate symmetric top.
 Rotational symmetry number  1.
 Warning -- assumption of classical behavior for rotation
           may cause significant error
 Rotational temperature (Kelvin)      0.11470
 Rotational constant (GHZ):           2.390019
 Zero-point vibrational energy      75592.4 (Joules/Mol)
                                   18.06701 (Kcal/Mol)
 Warning -- explicit consideration of   6 degrees of freedom as
           vibrations may cause significant error
 Vibrational temperatures:    197.93   212.80   452.62   593.11   731.03
          (Kelvin)            809.41   919.31  1132.08  1194.04  1986.50
                             2649.52  2741.02  4563.97

 Zero-point correction=                           0.028792 (Hartree/Particle)
 Thermal correction to Energy=                    0.033866
 Thermal correction to Enthalpy=                  0.034811
 Thermal correction to Gibbs Free Energy=         0.002323
 Sum of electronic and zero-point Energies=           -189.897873
 Sum of electronic and thermal Energies=              -189.892798
 Sum of electronic and thermal Enthalpies=            -189.891854
 Sum of electronic and thermal Free Energies=         -189.924342

                     E (Thermal)             CV                S
                      KCal/Mol        Cal/Mol-Kelvin    Cal/Mol-Kelvin
 Total                   21.252             16.600             68.377
 Electronic               0.000              0.000              2.755
 Translational            0.889              2.981             38.245
 Rotational               0.592              1.987             17.613
 Vibrational             19.770             11.632              9.764
 Vibration     1          0.614              1.916              2.837
 Vibration     2          0.617              1.905              2.699
 Vibration     3          0.702              1.646              1.338
 Vibration     4          0.776              1.444              0.919
 Vibration     5          0.863              1.232              0.638
 Vibration     6          0.918              1.112              0.519

 Optimization completed.
    -- Stationary point found.
 Normal termination of Gaussian 09 at Mon Jun 20 14:49:02 2016.
