 Gaussian 09, Revision E.01,
 Gaussian 09:  EM64L-G09RevE.01 30-Nov-2015

 ---------------------------------------------
 #p b3lyp/6-311++G(3df,2p) freq symmetry=Loose
 ---------------------------------------------

 ---------
 b3lyp opt
 ---------
 Symbolic Z-matrix:
 Charge =  1 Multiplicity = 1

                         Standard orientation:
 ---------------------------------------------------------------------
 Center     Atomic      Atomic             Coordinates (Angstroms)
 Number     Number       Type             X           Y           Z
 ---------------------------------------------------------------------
      1          6           0        0.704134    0.703028    0.163974
      2          6           0        1.233093   -0.541677   -0.214056
      3          6           0       -1.344154   -0.310870    0.239959
      4          6           0       -0.725106    0.696517   -0.438741
      5          6           0       -0.033799   -0.781851    0.092069
      6          1           0        0.994994    1.409120    0.940773
 ---------------------------------------------------------------------

 SCF Done:  E(RB3LYP) =  -190.455987518     A.U. after   14 cycles

 The electronic state is 1-A.
 Alpha  occ. eigenvalues --  -10.59614 -10.58400 -10.55856 -10.53535 -10.52238
 Alpha  occ. eigenvalues --   -1.30470  -1.10453  -0.95161  -0.83573  -0.77366
 Alpha  occ. eigenvalues --   -0.74260  -0.71984  -0.63535  -0.56098  -0.54471
 Alpha virt. eigenvalues --   -0.41770  -0.36549  -0.34683  -0.26169  -0.24632
 Alpha virt. eigenvalues --   -0.16204  -0.12485  -0.11133  -0.10462  -0.08997
 Alpha virt. eigenvalues --   -0.08587  -0.07397  -0.07244  -0.06018  -0.04534

 Mulliken charges:
               1
     1  C    0.052896
     2  C    0.021541
     3  C    0.066804
     4  C    0.104616
     5  C    0.495342
     6  H    0.258801
 Sum of Mulliken charges =   1.00000

 Dipole moment (field-independent basis, Debye):
    X=              0.8754    Y=              1.3171    Z=              0.9613  Tot=              1.8507
 Quadrupole moment (field-independent basis, Debye-Ang):
   XX=            -23.4600   YY=            -20.1409   ZZ=            -24.6175
   XY=              2.2083   XZ=              1.8064   YZ=              1.8710

  Exact polarizability:  62.724  -2.482  39.798  -0.841  -1.531  30.018
 Approx polarizability: 203.336 -18.514  90.767 -11.366 -10.177  53.959

                      1                      2                      3
                      A                      A                      A
 Frequencies --    326.9823               369.6979               579.3920
 Red. masses --      7.8581                 8.7495                11.2327
 Frc consts  --      0.4950                 0.7046                 2.2217
 IR Inten    --      7.7177                62.5871                 1.1292

                      4                      5                      6
                      A                      A                      A
 Frequencies --    598.9471               766.1400               927.1214
 Red. masses --      8.0628                11.2661                 1.4378
 Frc consts  --      1.7042                 3.8962                 0.7282
 IR Inten    --     33.2591                 8.5235                 5.1386

                      7                      8                      9
                      A                      A                      A
 Frequencies --   1009.6660              1089.6165              1183.6439
 Red. masses --      4.9638                 1.2133                10.0667
 Frc consts  --      2.9814                 0.8487                 8.3096
 IR Inten    --     11.1135                24.9006                15.0715

                     10                     11                     12
                      A                      A                      A
 Frequencies --   1193.9144              1557.7224              3146.3274
 Red. masses --      6.5191                10.5061                 1.0982
 Frc consts  --      5.4750                15.0200                 6.4056
 IR Inten    --     19.6845                30.9131                80.8537

 - Thermochemistry -
 -------------------
 Temperature   298.150 Kelvin.  Pressure   1.00000 Atm.
 Atom     1 has atomic number  6 and mass  12.00000

 Molecular mass:    61.00783 amu.
 Principal axes and moments of inertia in atomic units:
                           1         2         3
     Eigenvalues --   108.92545 207.17790 282.20986
           X            0.99857   0.04910   0.02134
           Y           -0.05040   0.99661   0.06496
           Z           -0.01807  -0.06594   0.99766
 This molecule is an asymmetric top.
 Rotational symmetry number  1.
 Rotational temperatures (Kelvin)      0.79517     0.41806     0.30691
 Rotational constants (GHZ):          16.56859     8.71107     6.39503
 Zero-point vibrational energy      76257.0 (Joules/Mol)
                                   18.22586 (Kcal/Mol)
 Warning -- explicit consideration of   4 degrees of freedom as
           vibrations may cause significant error
 Vibrational temperatures:    470.45   531.91   833.61   861.75  1102.30
          (Kelvin)           1333.92  1452.68  1567.71  1703.00  1717.77
                             2241.21  4526.86

 Zero-point correction=                           0.029045 (Hartree/Particle)
 Thermal correction to Energy=                    0.033175
 Thermal correction to Enthalpy=                  0.034119
 Thermal correction to Gibbs Free Energy=         0.002988
 Sum of electronic and zero-point Energies=           -190.426943
 Sum of electronic and thermal Energies=              -190.422813
 Sum of electronic and thermal Enthalpies=            -190.421868
 Sum of electronic and thermal Free Energies=         -190.453000

                     E (Thermal)             CV                S
                      KCal/Mol        Cal/Mol-Kelvin    Cal/Mol-Kelvin
 Total                   20.818             13.541             65.521
 Electronic               0.000              0.000              0.000
 Translational            0.889              2.981             38.245
 Rotational               0.889              2.981             23.370
 Vibrational             19.040              7.580              3.907
 Vibration     1          0.711              1.622              1.275
 Vibration     2          0.742              1.534              1.081
 Vibration     3          0.936              1.076              0.486
 Vibration     4          0.957              1.034              0.451

 Optimization completed.
    -- Stationary point found.
 Normal termination of Gaussian 09 at Mon Jun 20 14:24:04 2016.
