 Gaussian 09, Revision E.01,
 Gaussian 09:  EM64L-G09RevE.01 30-Nov-2015

 ---------------------------------------------
 #p b3lyp/6-311++G(3df,2p) freq symmetry=Loose
 ---------------------------------------------

 ---------
 b3lyp opt
 ---------
 Symbolic Z-matrix:
 Charge =  0 Multiplicity = 2

                         Standard orientation:
 ---------------------------------------------------------------------
 Center     Atomic      Atomic             Coordinates (Angstroms)
 Number     Number       Type             X           Y           Z
 ---------------------------------------------------------------------
      1          1           0        0.585494    1.759503   -0.660057
      2          6           0        0.469106    0.845417   -0.092688
      3          6           0       -0.642462   -0.073233   -0.103636
      4          6           0       -1.912521   -0.042284    0.191203
      5          6           0        1.370569   -0.085249    0.446135
      6          6           0        0.617726   -0.937900   -0.331005
 ---------------------------------------------------------------------

 SCF Done:  E(UB3LYP) =  -190.787233605     A.U. after   21 cycles

 The electronic state is 2-A.
 Alpha  occ. eigenvalues --  -10.30643 -10.27110 -10.26500 -10.26171 -10.24571
 Alpha  occ. eigenvalues --   -0.99608  -0.79158  -0.68012  -0.61778  -0.52867
 Alpha  occ. eigenvalues --   -0.45249  -0.42649  -0.36398  -0.32248  -0.29071
 Alpha  occ. eigenvalues --   -0.28103
 Alpha virt. eigenvalues --   -0.14284  -0.08659  -0.06614  -0.01112   0.01249
 Alpha virt. eigenvalues --    0.03115   0.03949   0.04941   0.06517   0.07074
 Alpha virt. eigenvalues --    0.07812   0.07977   0.08456   0.10185   0.11271

  Beta  occ. eigenvalues --  -10.30329 -10.26910 -10.25798 -10.25462 -10.24514
  Beta  occ. eigenvalues --   -0.98805  -0.78162  -0.67317  -0.60001  -0.52152
  Beta  occ. eigenvalues --   -0.44703  -0.41819  -0.32830  -0.30711  -0.28183
  Beta virt. eigenvalues --   -0.17843  -0.13716  -0.07140  -0.05304  -0.00909
  Beta virt. eigenvalues --    0.01768   0.03483   0.04216   0.05312   0.06584
  Beta virt. eigenvalues --    0.07208   0.07965   0.08262   0.08588   0.10425

 Mulliken charges and spin densities:
               1          2
     1  H    0.225859  -0.002367
     2  C   -0.104713   0.163097
     3  C    0.615753   0.012708
     4  C   -0.491489   0.202585
     5  C   -0.110303   0.609258
     6  C   -0.135106   0.014718
 Sum of Mulliken charges =  -0.00000   1.00000

 Dipole moment (field-independent basis, Debye):
    X=              1.5721    Y=              2.1617    Z=             -0.4543  Tot=              2.7112
 Quadrupole moment (field-independent basis, Debye-Ang):
   XX=            -36.1831   YY=            -26.7922   ZZ=            -30.3041
   XY=              1.9699   XZ=             -0.0076   YZ=             -2.4655

  Exact polarizability:  88.100  -1.900  52.057   2.695   2.016  40.790
 Approx polarizability: 185.981  -6.722  95.201   7.663   5.661  64.732

                      1                      2                      3
                      A                      A                      A
 Frequencies --    173.3694               244.5108               479.8886
 Red. masses --      8.5853                10.6599                 5.4326
 Frc consts  --      0.1520                 0.3755                 0.7371
 IR Inten    --     25.0966                 5.0133                23.7266

                      4                      5                      6
                      A                      A                      A
 Frequencies --    535.2414               593.5908               865.2638
 Red. masses --      6.7083                10.0889                 1.5289
 Frc consts  --      1.1323                 2.0944                 0.6744
 IR Inten    --      5.8835                 7.4754                10.0746

                      7                      8                      9
                      A                      A                      A
 Frequencies --    929.7882              1078.8683              1146.4338
 Red. masses --      4.9369                 2.7220                 2.1935
 Frc consts  --      2.5146                 1.8667                 1.6986
 IR Inten    --     32.9176                 5.9248                24.7267

                     10                     11                     12
                      A                      A                      A
 Frequencies --   1319.3726              1697.4023              3182.6557
 Red. masses --      5.2685                11.0267                 1.0946
 Frc consts  --      5.4035                18.7183                 6.5327
 IR Inten    --    136.0950               257.9582                 1.8944

 - Thermochemistry -
 -------------------
 Temperature   298.150 Kelvin.  Pressure   1.00000 Atm.
 Atom     1 has atomic number  1 and mass   1.00783

 Molecular mass:    61.00783 amu.
 Principal axes and moments of inertia in atomic units:
                           1         2         3
     Eigenvalues --    96.99308 298.87476 362.11830
           X            0.99982   0.01788  -0.00617
           Y           -0.01825   0.99762  -0.06656
           Z            0.00497   0.06666   0.99776
 This molecule is an asymmetric top.
 Rotational symmetry number  1.
 Rotational temperatures (Kelvin)      0.89299     0.28980     0.23919
 Rotational constants (GHZ):          18.60691     6.03845     4.98384
 Zero-point vibrational energy      73249.7 (Joules/Mol)
                                   17.50709 (Kcal/Mol)
 Warning -- explicit consideration of   5 degrees of freedom as
           vibrations may cause significant error
 Vibrational temperatures:    249.44   351.80   690.45   770.09   854.04
          (Kelvin)           1244.92  1337.76  1552.25  1649.46  1898.28
                             2442.18  4579.13

 Zero-point correction=                           0.027899 (Hartree/Particle)
 Thermal correction to Energy=                    0.032602
 Thermal correction to Enthalpy=                  0.033546
 Thermal correction to Gibbs Free Energy=         0.000364
 Sum of electronic and zero-point Energies=           -190.759334
 Sum of electronic and thermal Energies=              -190.754631
 Sum of electronic and thermal Enthalpies=            -190.753687
 Sum of electronic and thermal Free Energies=         -190.786870

                     E (Thermal)             CV                S
                      KCal/Mol        Cal/Mol-Kelvin    Cal/Mol-Kelvin
 Total                   20.458             14.848             69.838
 Electronic               0.000              0.000              1.377
 Translational            0.889              2.981             38.245
 Rotational               0.889              2.981             23.866
 Vibrational             18.681              8.886              6.349
 Vibration     1          0.627              1.875              2.399
 Vibration     2          0.660              1.772              1.770
 Vibration     3          0.836              1.295              0.710
 Vibration     4          0.890              1.172              0.576
 Vibration     5          0.951              1.045              0.461

 Optimization completed.
    -- Stationary point found.
 Normal termination of Gaussian 09 at Mon Jun 20 14:08:54 2016.
