 Gaussian 09, Revision E.01,
 Gaussian 09:  EM64L-G09RevE.01 30-Nov-2015

 -------------------------------------------------
 #p b3lyp/6-311++G(3df,2p) opt freq symmetry=Loose
 -------------------------------------------------

 ---------
 b3lyp opt
 ---------
 Symbolic Z-matrix:
 Charge =  0 Multiplicity = 4

 SCF Done:  E(UB3LYP) =  -190.746133869     A.U. after   19 cycles
 Optimization completed.
    -- Stationary point found.
 Normal termination of Gaussian 09 at Wed Jul  6 12:47:19 2016.

 ----------------------------------------------------------------------
 #P Geom=AllCheck Guess=TCheck SCRF=Check GenChk UB3LYP/6-311++G(3df,2p
 ) Freq
 ----------------------------------------------------------------------

 Structure from the checkpoint file:  "/scratch/sergio/HC5.q0.m4-9.bis.com-2134328/Gau-20605.chk"
 ---------
 b3lyp opt
 ---------
 Charge =  0 Multiplicity = 4

                         Standard orientation:
 ---------------------------------------------------------------------
 Center     Atomic      Atomic             Coordinates (Angstroms)
 Number     Number       Type             X           Y           Z
 ---------------------------------------------------------------------
      1          6           0       -0.573090    1.805869    0.000000
      2          6           0       -0.000000    0.635708    0.000000
      3          6           0       -0.764102   -0.719824   -0.000000
      4          6           0        0.433269   -1.377367   -0.000000
      5          6           0        1.207590   -0.191795   -0.000000
      6          1           0       -1.822006   -0.915543   -0.000000
 ---------------------------------------------------------------------

 SCF Done:  E(UB3LYP) =  -190.746133869     A.U. after    1 cycles

 The electronic state is 4-A".
 Alpha  occ. eigenvalues --  -10.28107 -10.26485 -10.26212 -10.25208 -10.23375
 Alpha  occ. eigenvalues --   -0.95842  -0.77795  -0.70029  -0.58371  -0.52873
 Alpha  occ. eigenvalues --   -0.47184  -0.44352  -0.34532  -0.33104  -0.30099
 Alpha  occ. eigenvalues --   -0.28801  -0.24725
 Alpha virt. eigenvalues --   -0.13223  -0.05709  -0.00116   0.03219   0.03386
 Alpha virt. eigenvalues --    0.03651   0.05854   0.06299   0.06680   0.07043
 Alpha virt. eigenvalues --    0.08779   0.08903   0.10647   0.10679   0.11526

  Beta  occ. eigenvalues --  -10.25402 -10.25216 -10.25071 -10.25038 -10.23148
  Beta  occ. eigenvalues --   -0.92601  -0.76448  -0.65693  -0.54880  -0.48581
  Beta  occ. eigenvalues --   -0.44515  -0.40419  -0.32008  -0.27661
  Beta virt. eigenvalues --   -0.17595  -0.14016  -0.11294  -0.11159  -0.03682
  Beta virt. eigenvalues --    0.00142   0.03672   0.04154   0.04910   0.06184
  Beta virt. eigenvalues --    0.06719   0.07196   0.07962   0.09420   0.09701

 Mulliken charges and spin densities:
               1          2
     1  C   -0.696011   0.129955
     2  C    0.601109   0.056111
     3  C   -0.131877   0.529174
     4  C   -0.135246   0.750149
     5  C    0.095029   1.523069
     6  H    0.266996   0.011541
 Sum of Mulliken charges =   0.00000   3.00000

 Dipole moment (field-independent basis, Debye):
    X=             -0.2697    Y=             -1.9793    Z=             -0.0000  Tot=              1.9976
 Quadrupole moment (field-independent basis, Debye-Ang):
   XX=            -26.4295   YY=            -33.7409   ZZ=            -30.5331
   XY=              3.9314   XZ=              0.0000   YZ=             -0.0000

  Exact polarizability:  56.102  -8.875  74.974   0.000  -0.000  36.171
 Approx polarizability:  98.304 -20.175 141.343  -0.000   0.000  51.802

                      1                      2                      3
                     A'                     A"                     A"
 Frequencies --    167.8397               221.5679               493.9353
 Red. masses --      8.1558                11.9976                 1.4561
 Frc consts  --      0.1354                 0.3470                 0.2093
 IR Inten    --     10.0849                 0.9478                54.6200

                      4                      5                      6
                     A"                     A'                     A'
 Frequencies --    536.6980               654.4819               693.8448
 Red. masses --      4.1203                10.9087                 9.4379
 Frc consts  --      0.6993                 2.7531                 2.6770
 IR Inten    --      5.8323                 7.4437                 1.4561

                      7                      8                      9
                     A'                     A'                     A'
 Frequencies --    922.2515              1064.5720              1090.2087
 Red. masses --      3.5067                 6.2819                 1.6228
 Frc consts  --      1.7573                 4.1946                 1.1364
 IR Inten    --      3.2024                 0.1906                 7.6591

                     10                     11                     12
                     A'                     A'                     A'
 Frequencies --   1359.5101              1722.8433              3258.5361
 Red. masses --      8.0286                11.8783                 1.0966
 Frc consts  --      8.7429                20.7729                 6.8605
 IR Inten    --      5.0487               124.6246                17.9488

 - Thermochemistry -
 -------------------
 Temperature   298.150 Kelvin.  Pressure   1.00000 Atm.
 Atom     1 has atomic number  6 and mass  12.00000

 Molecular mass:    61.00783 amu.
 Principal axes and moments of inertia in atomic units:
                           1         2         3
     Eigenvalues --   105.49097 281.00907 386.50005
           X           -0.30093   0.95365   0.00000
           Y            0.95365   0.30093   0.00000
           Z           -0.00000  -0.00000   1.00000
 This molecule is an asymmetric top.
 Rotational symmetry number  1.
 Rotational temperatures (Kelvin)      0.82105     0.30822     0.22410
 Rotational constants (GHZ):          17.10802     6.42236     4.66945
 Zero-point vibrational energy      72890.2 (Joules/Mol)
                                   17.42118 (Kcal/Mol)
 Warning -- explicit consideration of   4 degrees of freedom as
           vibrations may cause significant error
 Vibrational temperatures:    241.48   318.79   710.66   772.19   941.65
          (Kelvin)            998.29  1326.91  1531.68  1568.57  1956.03
                             2478.78  4688.30

 Zero-point correction=                           0.027762 (Hartree/Particle)
 Thermal correction to Energy=                    0.032525
 Thermal correction to Enthalpy=                  0.033469
 Thermal correction to Gibbs Free Energy=        -0.000538
 Sum of electronic and zero-point Energies=           -190.718371
 Sum of electronic and thermal Energies=              -190.713609
 Sum of electronic and thermal Enthalpies=            -190.712665
 Sum of electronic and thermal Free Energies=         -190.746672

                     E (Thermal)             CV                S
                      KCal/Mol        Cal/Mol-Kelvin    Cal/Mol-Kelvin
 Total                   20.410             15.070             71.574
 Electronic               0.000              0.000              2.755
 Translational            0.889              2.981             38.245
 Rotational               0.889              2.981             23.953
 Vibrational             18.632              9.108              6.621
 Vibration     1          0.625              1.882              2.460
 Vibration     2          0.648              1.808              1.946
 Vibration     3          0.850              1.263              0.673
 Vibration     4          0.892              1.169              0.572

 Optimization completed.
    -- Stationary point found.
 Normal termination of Gaussian 09 at Wed Jul  6 13:00:39 2016.
