 Gaussian 09, Revision E.01,
 Gaussian 09:  EM64L-G09RevE.01 30-Nov-2015

 ---------------------------------------------
 #p b3lyp/6-311++G(3df,2p) freq symmetry=Loose
 ---------------------------------------------

 ---------
 b3lyp opt
 ---------
 Symbolic Z-matrix:
 Charge =  3 Multiplicity = 3

                         Standard orientation:
 ---------------------------------------------------------------------
 Center     Atomic      Atomic             Coordinates (Angstroms)
 Number     Number       Type             X           Y           Z
 ---------------------------------------------------------------------
      1          1           0        0.855366    0.037116    1.385820
      2          6           0        0.588471    0.013840    0.244418
      3          6           0       -0.855189   -0.153367    0.055766
      4          6           0       -2.117686   -0.261400   -0.098834
      5          6           0        0.688262    1.515535   -0.194884
      6          6           0        1.553581   -1.120794   -0.237435
 ---------------------------------------------------------------------

 SCF Done:  E(UB3LYP) =  -188.835018973     A.U. after   56 cycles

 The electronic state is 3-A.
 Alpha  occ. eigenvalues --  -11.16267 -11.15126 -11.08750 -11.03381 -11.01737
 Alpha  occ. eigenvalues --   -1.62319  -1.54244  -1.41844  -1.33114  -1.23873
 Alpha  occ. eigenvalues --   -1.13618  -1.11174  -1.08968  -1.07301  -1.04274
 Alpha virt. eigenvalues --   -0.89951  -0.88955  -0.87763  -0.85839  -0.76442
 Alpha virt. eigenvalues --   -0.72288  -0.58752  -0.55927  -0.54485  -0.49064
 Alpha virt. eigenvalues --   -0.45788  -0.44136  -0.43226  -0.41353  -0.39022

  Beta  occ. eigenvalues --  -11.16230 -11.15271 -11.05241 -11.02450 -11.01702
  Beta  occ. eigenvalues --   -1.61427  -1.48934  -1.41890  -1.32068  -1.23294
  Beta  occ. eigenvalues --   -1.09600  -1.07678  -1.02928
  Beta virt. eigenvalues --   -0.92702  -0.89647  -0.88614  -0.87959  -0.87701
  Beta virt. eigenvalues --   -0.86190  -0.67939  -0.67479  -0.57642  -0.54443
  Beta virt. eigenvalues --   -0.53936  -0.48684  -0.45353  -0.43744  -0.43110

 Mulliken charges and spin densities:
               1          2
     1  H    0.371077   0.041197
     2  C    0.021414  -0.056892
     3  C    0.541310   0.523396
     4  C    0.680364   1.547488
     5  C    0.672755  -0.080494
     6  C    0.713080   0.025304
 Sum of Mulliken charges =   3.00000   2.00000

 Dipole moment (field-independent basis, Debye):
    X=              0.8865    Y=             -0.2492    Z=              0.5985  Tot=              1.0983
 Quadrupole moment (field-independent basis, Debye-Ang):
   XX=             12.1013   YY=             -9.7474   ZZ=            -16.1860
   XY=              0.8458   XZ=              1.2582   YZ=              0.4379

  Exact polarizability:  62.317  -0.226  45.849  -0.082  -0.162  27.000
 Approx polarizability: 128.253  -0.038 100.966  -0.404  -0.439  44.194

                      1                      2                      3
                      A                      A                      A
 Frequencies --     69.2328               239.0572               318.5825
 Red. masses --     11.0438                 8.6388                10.7942
 Frc consts  --      0.0312                 0.2909                 0.6455
 IR Inten    --     14.2622                 1.4883                46.3429

                      4                      5                      6
                      A                      A                      A
 Frequencies --    322.8584               481.4377               643.0292
 Red. masses --     10.1192                 7.3114                 2.4660
 Frc consts  --      0.6215                 0.9985                 0.6008
 IR Inten    --      8.2815                44.9827               136.9440

                      7                      8                      9
                      A                      A                      A
 Frequencies --    688.1392               851.0386               898.7893
 Red. masses --      7.0887                 1.9287                 2.1115
 Frc consts  --      1.9778                 0.8230                 1.0050
 IR Inten    --     50.1952                74.8291               291.4911

                     10                     11                     12
                      A                      A                      A
 Frequencies --   1029.6909              1857.5085              2344.1894
 Red. masses --      1.8961                11.9429                 1.0749
 Frc consts  --      1.1844                24.2785                 3.4801
 IR Inten    --    158.6109               205.5448               517.9842

 - Thermochemistry -
 -------------------
 Temperature   298.150 Kelvin.  Pressure   1.00000 Atm.
 Atom     1 has atomic number  1 and mass   1.00783

 Molecular mass:    61.00783 amu.
 Principal axes and moments of inertia in atomic units:
                           1         2         3
     Eigenvalues --   170.11067 378.63448 520.93653
           X            0.99993   0.00052   0.01217
           Y           -0.00054   1.00000   0.00131
           Z           -0.01217  -0.00132   0.99993
 This molecule is an asymmetric top.
 Rotational symmetry number  1.
 Rotational temperatures (Kelvin)      0.50916     0.22875     0.16627
 Rotational constants (GHZ):          10.60922     4.76645     3.46442
 Zero-point vibrational energy      58279.4 (Joules/Mol)
                                   13.92911 (Kcal/Mol)
 Warning -- explicit consideration of   5 degrees of freedom as
           vibrations may cause significant error
 Vibrational temperatures:     99.61   343.95   458.37   464.52   692.68
          (Kelvin)            925.17   990.08  1224.45  1293.16  1481.49
                             2672.54  3372.76

 Zero-point correction=                           0.022197 (Hartree/Particle)
 Thermal correction to Energy=                    0.027764
 Thermal correction to Enthalpy=                  0.028708
 Thermal correction to Gibbs Free Energy=        -0.007331
 Sum of electronic and zero-point Energies=           -188.812822
 Sum of electronic and thermal Energies=              -188.807255
 Sum of electronic and thermal Enthalpies=            -188.806311
 Sum of electronic and thermal Free Energies=         -188.842350

                     E (Thermal)             CV                S
                      KCal/Mol        Cal/Mol-Kelvin    Cal/Mol-Kelvin
 Total                   17.422             17.506             75.850
 Electronic               0.000              0.000              2.183
 Translational            0.889              2.981             38.245
 Rotational               0.889              2.981             25.021
 Vibrational             15.645             11.544             10.402
 Vibration     1          0.598              1.969              4.175
 Vibration     2          0.657              1.781              1.810
 Vibration     3          0.705              1.638              1.317
 Vibration     4          0.708              1.630              1.296
 Vibration     5          0.838              1.291              0.706

 Normal termination of Gaussian 09 at Mon Jun 20 15:21:26 2016.
