 Gaussian 09, Revision E.01,
 Gaussian 09:  EM64L-G09RevE.01 30-Nov-2015

 -------------------------------------------------
 #p b3lyp/6-311++G(3df,2p) opt freq symmetry=Loose
 -------------------------------------------------

 ---------
 b3lyp opt
 ---------
 Symbolic Z-matrix:
 Charge =  0 Multiplicity = 2

 SCF Done:  E(UB3LYP) =  -190.899437928     A.U. after   14 cycles
 SCF Done:  E(UB3LYP) =  -190.899545473     A.U. after   13 cycles
 SCF Done:  E(UB3LYP) =  -190.899555231     A.U. after   12 cycles
 Optimization completed.
    -- Stationary point found.
 Normal termination of Gaussian 09 at Tue Jul  5 16:08:47 2016.

 ----------------------------------------------------------------------
 #P Geom=AllCheck Guess=TCheck SCRF=Check GenChk UB3LYP/6-311++G(3df,2p
 ) Freq
 ----------------------------------------------------------------------

 Structure from the checkpoint file:  "/scratch/sergio/HC5.q0.m2-2.bis.com-2105446/Gau-17676.chk"
 ---------
 b3lyp opt
 ---------
 Charge =  0 Multiplicity = 2

                         Standard orientation:
 ---------------------------------------------------------------------
 Center     Atomic      Atomic             Coordinates (Angstroms)
 Number     Number       Type             X           Y           Z
 ---------------------------------------------------------------------
      1          1           0        0.000000   -0.000000    3.229366
      2          6           0        0.000000   -0.000000    2.165955
      3          6           0        0.000000   -0.000000    0.960933
      4          6           0        0.000000    0.000000   -0.413645
      5          6           0        0.000000    0.675865   -1.625735
      6          6           0       -0.000000   -0.675865   -1.625735
 ---------------------------------------------------------------------

 SCF Done:  E(UB3LYP) =  -190.899555231     A.U. after    1 cycles

 The electronic state is 2-B2.
 Alpha  occ. eigenvalues --  -10.29494 -10.24086 -10.23398 -10.23380 -10.23305
 Alpha  occ. eigenvalues --   -0.96423  -0.82528  -0.70290  -0.57551  -0.52307
 Alpha  occ. eigenvalues --   -0.45911  -0.43369  -0.35979  -0.33831  -0.30023
 Alpha  occ. eigenvalues --   -0.26308
 Alpha virt. eigenvalues --   -0.10684  -0.02339  -0.01869  -0.01013   0.02707
 Alpha virt. eigenvalues --    0.04149   0.04265   0.04882   0.05065   0.07805
 Alpha virt. eigenvalues --    0.08269   0.09153   0.09990   0.10289   0.11433

  Beta  occ. eigenvalues --  -10.28969 -10.23835 -10.23522 -10.22694 -10.22616
  Beta  occ. eigenvalues --   -0.95639  -0.82247  -0.69506  -0.57258  -0.49767
  Beta  occ. eigenvalues --   -0.42997  -0.42921  -0.34396  -0.33565  -0.27234
  Beta virt. eigenvalues --   -0.16065  -0.10030  -0.01156  -0.00965  -0.00773
  Beta virt. eigenvalues --    0.02838   0.04227   0.04470   0.05128   0.05129
  Beta virt. eigenvalues --    0.08450   0.08464   0.09160   0.10283   0.10359

 Mulliken charges and spin densities:
               1          2
     1  H    0.320590  -0.005414
     2  C    0.332277   0.179655
     3  C   -0.486978  -0.067566
     4  C    0.330023   0.206081
     5  C   -0.247956   0.343622
     6  C   -0.247956   0.343622
 Sum of Mulliken charges =   0.00000   1.00000

 Dipole moment (field-independent basis, Debye):
    X=              0.0000    Y=              0.0000    Z=              3.6680  Tot=              3.6680
 Quadrupole moment (field-independent basis, Debye-Ang):
   XX=            -28.2633   YY=            -32.6836   ZZ=            -23.4632
   XY=             -0.0000   XZ=             -0.0000   YZ=             -0.0000

  Exact polarizability:  33.855  -0.000  57.763   0.000   0.000  93.763
 Approx polarizability:  49.208   0.000  88.301   0.000   0.000 174.180

                      1                      2                      3
                     B2                     B1                     B2
 Frequencies --    183.0476               217.2097               510.0583
 Red. masses --      5.6691                 5.0351                 9.1082
 Frc consts  --      0.1119                 0.1400                 1.3961
 IR Inten    --     13.0871                 0.1677               174.7880

                      4                      5                      6
                     B1                     B2                     B2
 Frequencies --    572.2612               580.2146               649.1902
 Red. masses --      9.5852                10.8375                 1.2743
 Frc consts  --      1.8494                 2.1496                 0.3164
 IR Inten    --     13.7520               253.0781                63.1459

                      7                      8                      9
                     B1                     A1                     A1
 Frequencies --    742.1479               744.0277              1302.8287
 Red. masses --      1.2952                 9.0464                11.4497
 Frc consts  --      0.4203                 2.9506                11.4504
 IR Inten    --     30.7971                 0.3088                64.1718

                     10                     11                     12
                     A1                     A1                     A1
 Frequencies --   1656.0027              2159.2833              3448.9315
 Red. masses --     11.4286                 6.2703                 1.1551
 Frc consts  --     18.4658                17.2249                 8.0957
 IR Inten    --     47.9554                69.9559                80.5302

 - Thermochemistry -
 -------------------
 Temperature   298.150 Kelvin.  Pressure   1.00000 Atm.
 Atom     1 has atomic number  1 and mass   1.00783

 Molecular mass:    61.00783 amu.
 Principal axes and moments of inertia in atomic units:
                           1         2         3
     Eigenvalues --    39.14970 511.39327 550.54297
           X            0.00000   0.00000   1.00000
           Y            0.00000   1.00000   0.00000
           Z            1.00000   0.00000   0.00000
 This molecule is an asymmetric top.
 Rotational symmetry number  2.
 Rotational temperatures (Kelvin)      2.21237     0.16937     0.15732
 Rotational constants (GHZ):          46.09846     3.52907     3.27811
 Zero-point vibrational energy      76352.9 (Joules/Mol)
                                   18.24877 (Kcal/Mol)
 Warning -- explicit consideration of   5 degrees of freedom as
           vibrations may cause significant error
 Vibrational temperatures:    263.36   312.52   733.86   823.36   834.80
          (Kelvin)            934.04  1067.78  1070.49  1874.48  2382.62
                             3106.72  4962.24

 Zero-point correction=                           0.029081 (Hartree/Particle)
 Thermal correction to Energy=                    0.033941
 Thermal correction to Enthalpy=                  0.034886
 Thermal correction to Gibbs Free Energy=         0.002110
 Sum of electronic and zero-point Energies=           -190.870474
 Sum of electronic and thermal Energies=              -190.865614
 Sum of electronic and thermal Enthalpies=            -190.864670
 Sum of electronic and thermal Free Energies=         -190.897445

                     E (Thermal)             CV                S
                      KCal/Mol        Cal/Mol-Kelvin    Cal/Mol-Kelvin
 Total                   21.299             15.656             68.981
 Electronic               0.000              0.000              1.377
 Translational            0.889              2.981             38.245
 Rotational               0.889              2.981             22.537
 Vibrational             19.521              9.695              6.822
 Vibration     1          0.631              1.863              2.297
 Vibration     2          0.646              1.815              1.982
 Vibration     3          0.865              1.228              0.633
 Vibration     4          0.928              1.091              0.500
 Vibration     5          0.937              1.074              0.485

 Optimization completed.
    -- Stationary point found.
 Normal termination of Gaussian 09 at Tue Jul  5 16:15:43 2016.
