 Gaussian 09, Revision E.01,
 Gaussian 09:  EM64L-G09RevE.01 30-Nov-2015

 ---------------------------------------------
 #p b3lyp/6-311++G(3df,2p) freq symmetry=Loose
 ---------------------------------------------

 ---------
 b3lyp opt
 ---------
 Symbolic Z-matrix:
 Charge =  2 Multiplicity = 2

                         Standard orientation:
 ---------------------------------------------------------------------
 Center     Atomic      Atomic             Coordinates (Angstroms)
 Number     Number       Type             X           Y           Z
 ---------------------------------------------------------------------
      1          6           0       -1.233099    1.995142    0.000000
      2          6           0        0.000000    1.341266   -0.000000
      3          6           0        0.192518    0.035754   -0.000000
      4          6           0        0.356404   -1.243425   -0.000000
      5          6           0        0.543067   -2.475591   -0.000000
      6          1           0        0.846661    2.081123   -0.000000
 ---------------------------------------------------------------------

 SCF Done:  E(UB3LYP) =  -189.880861988     A.U. after   28 cycles

 The electronic state is 2-A'.
 Alpha  occ. eigenvalues --  -10.84263 -10.82036 -10.81472 -10.72560 -10.71352
 Alpha  occ. eigenvalues --   -1.36057  -1.31238  -1.21869  -1.11730  -0.98634
 Alpha  occ. eigenvalues --   -0.91635  -0.88697  -0.85871  -0.80224  -0.79054
 Alpha virt. eigenvalues --   -0.65569  -0.64437  -0.59746  -0.49144  -0.41360
 Alpha virt. eigenvalues --   -0.34908  -0.33223  -0.29973  -0.27029  -0.25673
 Alpha virt. eigenvalues --   -0.24454  -0.24307  -0.20930  -0.20565  -0.19850

  Beta  occ. eigenvalues --  -10.82291 -10.81552 -10.81296 -10.72481 -10.71424
  Beta  occ. eigenvalues --   -1.36265  -1.29976  -1.20576  -1.11802  -0.99009
  Beta  occ. eigenvalues --   -0.88573  -0.85236  -0.79346  -0.78894
  Beta virt. eigenvalues --   -0.67220  -0.63243  -0.63223  -0.60011  -0.48408
  Beta virt. eigenvalues --   -0.39028  -0.33587  -0.33226  -0.29967  -0.26980
  Beta virt. eigenvalues --   -0.25695  -0.24568  -0.24234  -0.20781  -0.19949

 Mulliken charges and spin densities:
               1          2
     1  C    0.122124  -0.149418
     2  C    0.439045  -0.078049
     3  C   -0.074283  -0.078075
     4  C    0.765381  -0.028786
     5  C    0.459725   1.344822
     6  H    0.288007  -0.010493
 Sum of Mulliken charges =   2.00000   1.00000

 Dipole moment (field-independent basis, Debye):
    X=              1.1682    Y=             -0.8393    Z=             -0.0000  Tot=              1.4384
 Quadrupole moment (field-independent basis, Debye-Ang):
   XX=            -17.9806   YY=             16.1908   ZZ=            -23.4354
   XY=             -6.2918   XZ=             -0.0000   YZ=              0.0000

  Exact polarizability:  37.550 -21.020  97.734  -0.000  -0.001  25.041
 Approx polarizability:  78.219 -77.815 289.001  -0.000   0.000  35.038

                      1                      2                      3
                     A'                     A"                     A'
 Frequencies --    148.0352               202.8942               287.0226
 Red. masses --      9.8594                 5.0656                10.6097
 Frc consts  --      0.1273                 0.1229                 0.5150
 IR Inten    --      3.0180                14.0762                 8.1427

                      4                      5                      6
                     A"                     A'                     A"
 Frequencies --    462.1458               564.4446               635.1718
 Red. masses --      2.4591                 5.2371                 3.2227
 Frc consts  --      0.3094                 0.9831                 0.7660
 IR Inten    --      5.2808                 2.1266                19.1840

                      7                      8                      9
                     A'                     A'                     A'
 Frequencies --    865.9931               926.6806              1327.1141
 Red. masses --      8.5482                 1.2953                 7.0803
 Frc consts  --      3.7771                 0.6554                 7.3471
 IR Inten    --      6.0417                 1.2124               479.8056

                     10                     11                     12
                     A'                     A'                     A'
 Frequencies --   1768.2539              2153.9933              2777.5076
 Red. masses --     11.3040                11.9978                 1.0823
 Frc consts  --     20.8244                32.7976                 4.9192
 IR Inten    --    186.0430              1202.3091               497.5983

 - Thermochemistry -
 -------------------
 Temperature   298.150 Kelvin.  Pressure   1.00000 Atm.
 Atom     1 has atomic number  6 and mass  12.00000

 Molecular mass:    61.00783 amu.
 Principal axes and moments of inertia in atomic units:
                           1         2         3
     Eigenvalues --    32.33243 646.97923 679.31166
           X           -0.29923   0.95418   0.00000
           Y            0.95418   0.29923   0.00000
           Z            0.00000   0.00000   1.00000
 This molecule is an asymmetric top.
 Rotational symmetry number  1.
 Rotational temperatures (Kelvin)      2.67885     0.13387     0.12750
 Rotational constants (GHZ):          55.81829     2.78949     2.65672
 Zero-point vibrational energy      72489.3 (Joules/Mol)
                                   17.32535 (Kcal/Mol)
 Warning -- explicit consideration of   5 degrees of freedom as
           vibrations may cause significant error
 Vibrational temperatures:    212.99   291.92   412.96   664.92   812.11
          (Kelvin)            913.87  1245.97  1333.28  1909.42  2544.12
                             3099.11  3996.21

 Zero-point correction=                           0.027610 (Hartree/Particle)
 Thermal correction to Energy=                    0.032780
 Thermal correction to Enthalpy=                  0.033724
 Thermal correction to Gibbs Free Energy=        -0.000517
 Sum of electronic and zero-point Energies=           -189.853252
 Sum of electronic and thermal Energies=              -189.848082
 Sum of electronic and thermal Enthalpies=            -189.847138
 Sum of electronic and thermal Free Energies=         -189.881379

                     E (Thermal)             CV                S
                      KCal/Mol        Cal/Mol-Kelvin    Cal/Mol-Kelvin
 Total                   20.570             15.984             72.067
 Electronic               0.000              0.000              1.377
 Translational            0.889              2.981             38.245
 Rotational               0.889              2.981             24.167
 Vibrational             18.792             10.022              8.278
 Vibration     1          0.617              1.905              2.697
 Vibration     2          0.639              1.836              2.107
 Vibration     3          0.684              1.698              1.491
 Vibration     4          0.820              1.334              0.760
 Vibration     5          0.920              1.108              0.515

 Optimization completed.
    -- Stationary point found.
 Normal termination of Gaussian 09 at Mon Jun 20 14:41:40 2016.
