 Gaussian 09, Revision E.01,
 Gaussian 09:  EM64L-G09RevE.01 30-Nov-2015

 ---------------------------------------------
 #p b3lyp/6-311++G(3df,2p) freq symmetry=Loose
 ---------------------------------------------

 ---------
 b3lyp opt
 ---------
 Symbolic Z-matrix:
 Charge =  3 Multiplicity = 3

                         Standard orientation:
 ---------------------------------------------------------------------
 Center     Atomic      Atomic             Coordinates (Angstroms)
 Number     Number       Type             X           Y           Z
 ---------------------------------------------------------------------
      1          6           0       -1.327394   -0.000125   -0.000226
      2          6           0        1.087341    0.660052   -0.218989
      3          6           0        1.087665   -0.660382    0.218786
      4          6           0       -0.218874   -0.912904   -0.158044
      5          6           0       -0.218808    0.913559    0.158444
      6          1           0       -2.459587   -0.001195    0.000176
 ---------------------------------------------------------------------

 SCF Done:  E(UB3LYP) =  -188.954424935     A.U. after   17 cycles

 The electronic state is 3-A.
 Alpha  occ. eigenvalues --  -11.17144 -11.17134 -11.17072 -11.17022 -11.13278
 Alpha  occ. eigenvalues --   -1.83545  -1.62465  -1.53983  -1.36971  -1.33637
 Alpha  occ. eigenvalues --   -1.29008  -1.27562  -1.19291  -1.12464  -1.11312
 Alpha virt. eigenvalues --   -0.97464  -0.93240  -0.90601  -0.83161  -0.80529
 Alpha virt. eigenvalues --   -0.62367  -0.60428  -0.53488  -0.49560  -0.48728
 Alpha virt. eigenvalues --   -0.46140  -0.43566  -0.43267  -0.42357  -0.40628

  Beta  occ. eigenvalues --  -11.16406 -11.16399 -11.15748 -11.15695 -11.12849
  Beta  occ. eigenvalues --   -1.82054  -1.60594  -1.51731  -1.35327  -1.31774
  Beta  occ. eigenvalues --   -1.28187  -1.22250  -1.15342
  Beta virt. eigenvalues --   -0.98964  -0.97286  -0.93929  -0.91758  -0.88035
  Beta virt. eigenvalues --   -0.76959  -0.76106  -0.61018  -0.59325  -0.52284
  Beta virt. eigenvalues --   -0.47883  -0.47320  -0.45306  -0.43222  -0.42602

 Mulliken charges and spin densities:
               1          2
     1  C    0.240653   0.267797
     2  C    0.633037   0.552387
     3  C    0.633008   0.553027
     4  C    0.520109   0.317208
     5  C    0.519858   0.318566
     6  H    0.453335  -0.008984
 Sum of Mulliken charges =   3.00000   2.00000

 Dipole moment (field-independent basis, Debye):
    X=             -1.3153    Y=             -0.0009    Z=             -0.0006  Tot=              1.3153
 Quadrupole moment (field-independent basis, Debye-Ang):
   XX=              4.1708   YY=             -9.5983   ZZ=            -19.7332
   XY=              0.0038   XZ=             -0.0007   YZ=              0.0172

  Exact polarizability:  47.485  -0.004  35.992  -0.002   0.298  19.603
 Approx polarizability: 113.166  -0.032 104.136  -0.010   1.861  32.149

                      1                      2                      3
                      A                      A                      A
 Frequencies --    180.3018               424.1866               540.0102
 Red. masses --      5.1421                 7.4253                11.9963
 Frc consts  --      0.0985                 0.7872                 2.0611
 IR Inten    --      7.4953                 0.5634                 3.3398

                      4                      5                      6
                      A                      A                      A
 Frequencies --    601.6907               743.9625               832.6940
 Red. masses --     10.0051                 2.2268                 2.4172
 Frc consts  --      2.1341                 0.7262                 0.9875
 IR Inten    --      0.2606                 2.5067                23.9602

                      7                      8                      9
                      A                      A                      A
 Frequencies --    972.3460              1013.5033              1060.1487
 Red. masses --      2.8333                 9.9585                 1.7264
 Frc consts  --      1.5783                 6.0269                 1.1432
 IR Inten    --      2.6563                 7.3683                82.4668

                     10                     11                     12
                      A                      A                      A
 Frequencies --   1116.8571              1359.8764              2759.6633
 Red. masses --      8.6057                 9.5624                 1.1243
 Frc consts  --      6.3246                10.4188                 5.0448
 IR Inten    --     57.9073               181.8419               608.1658

 - Thermochemistry -
 -------------------
 Temperature   298.150 Kelvin.  Pressure   1.00000 Atm.
 Atom     1 has atomic number  6 and mass  12.00000

 Molecular mass:    61.00783 amu.
 Principal axes and moments of inertia in atomic units:
                           1         2         3
     Eigenvalues --   115.08811 208.64719 311.23035
           X            1.00000   0.00011  -0.00001
           Y           -0.00011   1.00000  -0.00000
           Z            0.00001   0.00000   1.00000
 This molecule is an asymmetric top.
 Rotational symmetry number  1.
 Rotational temperatures (Kelvin)      0.75259     0.41512     0.27829
 Rotational constants (GHZ):          15.68139     8.64973     5.79873
 Zero-point vibrational energy      69414.8 (Joules/Mol)
                                   16.59052 (Kcal/Mol)
 Warning -- explicit consideration of   4 degrees of freedom as
           vibrations may cause significant error
 Vibrational temperatures:    259.41   610.31   776.95   865.70  1070.39
          (Kelvin)           1198.06  1398.99  1458.20  1525.32  1606.91
                             1956.56  3970.53

 Zero-point correction=                           0.026439 (Hartree/Particle)
 Thermal correction to Energy=                    0.030808
 Thermal correction to Enthalpy=                  0.031752
 Thermal correction to Gibbs Free Energy=        -0.001012
 Sum of electronic and zero-point Energies=           -188.927986
 Sum of electronic and thermal Energies=              -188.923617
 Sum of electronic and thermal Enthalpies=            -188.922673
 Sum of electronic and thermal Free Energies=         -188.955437

                     E (Thermal)             CV                S
                      KCal/Mol        Cal/Mol-Kelvin    Cal/Mol-Kelvin
 Total                   19.332             14.256             68.958
 Electronic               0.000              0.000              2.183
 Translational            0.889              2.981             38.245
 Rotational               0.889              2.981             23.529
 Vibrational             17.555              8.294              5.002
 Vibration     1          0.629              1.866              2.325
 Vibration     2          0.786              1.418              0.878
 Vibration     3          0.895              1.162              0.565
 Vibration     4          0.960              1.028              0.447

 Optimization completed.
    -- Stationary point found.
 Normal termination of Gaussian 09 at Mon Jun 20 15:19:09 2016.
