 Gaussian 09, Revision E.01,
 Gaussian 09:  EM64L-G09RevE.01 30-Nov-2015

 ---------------------------------------------
 #p b3lyp/6-311++G(3df,2p) freq symmetry=Loose
 ---------------------------------------------

 ---------
 b3lyp opt
 ---------
 Symbolic Z-matrix:
 Charge =  1 Multiplicity = 1

                         Standard orientation:
 ---------------------------------------------------------------------
 Center     Atomic      Atomic             Coordinates (Angstroms)
 Number     Number       Type             X           Y           Z
 ---------------------------------------------------------------------
      1          1           0        1.782845    1.381706    0.001465
      2          6           0        1.322560    0.378369   -0.000134
      3          6           0       -0.024234    0.196377   -0.000437
      4          6           0       -1.252573   -0.000649   -0.000294
      5          6           0       -2.559825   -0.183436    0.000421
      6          6           0        2.216931   -0.620946    0.000199
 ---------------------------------------------------------------------

 SCF Done:  E(RB3LYP) =  -190.504524776     A.U. after   14 cycles

 The electronic state is 1-A.
 Alpha  occ. eigenvalues --  -10.55988 -10.55464 -10.53883 -10.47840 -10.45961
 Alpha  occ. eigenvalues --   -1.12972  -1.06477  -0.96865  -0.87860  -0.77689
 Alpha  occ. eigenvalues --   -0.65580  -0.61777  -0.56642  -0.55898  -0.55891
 Alpha virt. eigenvalues --   -0.40367  -0.40107  -0.37256  -0.25987  -0.17688
 Alpha virt. eigenvalues --   -0.16137  -0.13071  -0.12031  -0.10626  -0.10208
 Alpha virt. eigenvalues --   -0.08007  -0.07614  -0.05980  -0.05605  -0.04134

 Mulliken charges:
               1
     1  H    0.236460
     2  C    0.303200
     3  C   -0.083166
     4  C    1.094776
     5  C   -0.345875
     6  C   -0.205396
 Sum of Mulliken charges =   1.00000

 Dipole moment (field-independent basis, Debye):
    X=              1.6090    Y=              1.6224    Z=              0.0005  Tot=              2.2850
 Quadrupole moment (field-independent basis, Debye-Ang):
   XX=            -15.1983   YY=            -22.8075   ZZ=            -26.1115
   XY=              3.6173   XZ=              0.0047   YZ=              0.0044

  Exact polarizability: 107.876  -0.850  36.621  -0.001   0.001  30.441
 Approx polarizability: 282.637  -2.092  61.379  -0.014  -0.001  44.585

                      1                      2                      3
                      A                      A                      A
 Frequencies --    107.8158               141.2823               213.1572
 Red. masses --     10.4934                 6.1506                10.4342
 Frc consts  --      0.0719                 0.0723                 0.2793
 IR Inten    --      5.7723                 0.0071                 3.9552

                      4                      5                      6
                      A                      A                      A
 Frequencies --    445.4045               498.7954               657.0826
 Red. masses --      2.4882                 5.1564                 2.8051
 Frc consts  --      0.2908                 0.7559                 0.7136
 IR Inten    --      7.1926                 3.3909                20.7888

                      7                      8                      9
                      A                      A                      A
 Frequencies --    851.5469               983.4924              1425.4047
 Red. masses --      9.3603                 1.2486                 8.2384
 Frc consts  --      3.9991                 0.7115                 9.8621
 IR Inten    --     20.6866                 1.6678               337.0341

                     10                     11                     12
                      A                      A                      A
 Frequencies --   1652.8572              2231.8304              2975.7034
 Red. masses --     11.0391                11.9674                 1.0822
 Frc consts  --     17.7686                35.1215                 5.6459
 IR Inten    --    213.7094              1765.5027               208.0030

 - Thermochemistry -
 -------------------
 Temperature   298.150 Kelvin.  Pressure   1.00000 Atm.
 Atom     1 has atomic number  1 and mass   1.00783

 Molecular mass:    61.00783 amu.
 Principal axes and moments of inertia in atomic units:
                           1         2         3
     Eigenvalues --    32.38486 645.01373 677.39854
           X            0.99990   0.01448   0.00002
           Y           -0.01448   0.99990   0.00023
           Z           -0.00001  -0.00023   1.00000
 This molecule is an asymmetric top.
 Rotational symmetry number  1.
 Rotational temperatures (Kelvin)      2.67452     0.13428     0.12786
 Rotational constants (GHZ):          55.72792     2.79799     2.66422
 Zero-point vibrational energy      72878.7 (Joules/Mol)
                                   17.41844 (Kcal/Mol)
 Warning -- explicit consideration of   5 degrees of freedom as
           vibrations may cause significant error
 Vibrational temperatures:    155.12   203.27   306.69   640.84   717.65
          (Kelvin)            945.39  1225.18  1415.02  2050.84  2378.09
                             3211.10  4281.37

 Zero-point correction=                           0.027758 (Hartree/Particle)
 Thermal correction to Energy=                    0.033247
 Thermal correction to Enthalpy=                  0.034191
 Thermal correction to Gibbs Free Energy=        -0.000324
 Sum of electronic and zero-point Energies=           -190.476767
 Sum of electronic and thermal Energies=              -190.471278
 Sum of electronic and thermal Enthalpies=            -190.470334
 Sum of electronic and thermal Free Energies=         -190.504849

                     E (Thermal)             CV                S
                      KCal/Mol        Cal/Mol-Kelvin    Cal/Mol-Kelvin
 Total                   20.863             16.286             72.643
 Electronic               0.000              0.000              0.000
 Translational            0.889              2.981             38.245
 Rotational               0.889              2.981             24.163
 Vibrational             19.085             10.324             10.235
 Vibration     1          0.606              1.943              3.308
 Vibration     2          0.615              1.912              2.786
 Vibration     3          0.644              1.821              2.016
 Vibration     4          0.805              1.371              0.810
 Vibration     5          0.854              1.253              0.661

 Optimization completed.
    -- Stationary point found.
 Normal termination of Gaussian 09 at Mon Jun 20 14:23:32 2016.
