 Gaussian 09, Revision E.01,
 Gaussian 09:  EM64L-G09RevE.01 30-Nov-2015

 ---------------------------------------------
 #p b3lyp/6-311++G(3df,2p) freq symmetry=Loose
 ---------------------------------------------

 ---------
 b3lyp opt
 ---------
 Symbolic Z-matrix:
 Charge =  0 Multiplicity = 2

                         Standard orientation:
 ---------------------------------------------------------------------
 Center     Atomic      Atomic             Coordinates (Angstroms)
 Number     Number       Type             X           Y           Z
 ---------------------------------------------------------------------
      1          6           0       -0.127742    0.780645   -0.000000
      2          6           0       -0.217742   -1.699355    0.000000
      3          6           0        0.952258    1.700645   -0.000000
      4          6           0       -0.217742   -0.509355    0.750000
      5          6           0       -0.217742   -0.509355   -0.750000
      6          1           0       -1.027742    1.420645   -0.000000
 ---------------------------------------------------------------------

 SCF Done:  E(UB3LYP) =  -190.752432251     A.U. after   19 cycles

 The electronic state is 2-A".
 Alpha  occ. eigenvalues --  -10.30704 -10.29530 -10.28982 -10.28955 -10.24809
 Alpha  occ. eigenvalues --   -1.02717  -0.83951  -0.68041  -0.57177  -0.57093
 Alpha  occ. eigenvalues --   -0.44581  -0.41700  -0.36596  -0.34731  -0.27984
 Alpha  occ. eigenvalues --   -0.27905
 Alpha virt. eigenvalues --   -0.16785  -0.09962  -0.04753  -0.04342  -0.01020
 Alpha virt. eigenvalues --    0.03415   0.03664   0.04207   0.06611   0.06910
 Alpha virt. eigenvalues --    0.07352   0.07526   0.08528   0.10034   0.11029

  Beta  occ. eigenvalues --  -10.29652 -10.29404 -10.28768 -10.28740 -10.24722
  Beta  occ. eigenvalues --   -1.02455  -0.82630  -0.66136  -0.56854  -0.56265
  Beta  occ. eigenvalues --   -0.43194  -0.40552  -0.35942  -0.33423  -0.27645
  Beta virt. eigenvalues --   -0.15341  -0.14764  -0.09324  -0.04538  -0.02832
  Beta virt. eigenvalues --   -0.00983   0.03571   0.04287   0.04537   0.06618
  Beta virt. eigenvalues --    0.06960   0.07430   0.07810   0.09150   0.10082

 Mulliken charges and spin densities:
               1          2
     1  C    0.584533  -0.068673
     2  C   -0.460242   0.047834
     3  C   -0.512384   0.839108
     4  C    0.089375   0.093445
     5  C    0.089375   0.093445
     6  H    0.209344  -0.005159
 Sum of Mulliken charges =  -0.00000   1.00000

 Dipole moment (field-independent basis, Debye):
    X=             -1.3461    Y=              2.5543    Z=              0.0000  Tot=              2.8873
 Quadrupole moment (field-independent basis, Debye-Ang):
   XX=            -28.6912   YY=            -36.7293   ZZ=            -31.6878
   XY=             -4.8439   XZ=              0.0000   YZ=             -0.0000

  Exact polarizability:  42.260   9.063  73.014  -0.000   0.000  48.322
 Approx polarizability:  68.813  14.620 124.044  -0.000   0.000  97.384

                      1                      2                      3
                     A'                     A"                     A"
 Frequencies --    167.4043               348.6597               440.3461
 Red. masses --     10.0115                11.9521                 9.4492
 Frc consts  --      0.1653                 0.8560                 1.0795
 IR Inten    --     21.6227                 4.8544                84.4798

                      4                      5                      6
                     A'                     A'                     A"
 Frequencies --    474.7181               786.1926               910.9329
 Red. masses --      5.9245                 7.6212                 5.6716
 Frc consts  --      0.7866                 2.7754                 2.7728
 IR Inten    --      3.3793                 1.2964                19.9639

                      7                      8                      9
                     A"                     A'                     A'
 Frequencies --    950.0122               962.7030              1073.2086
 Red. masses --      1.3172                 2.9306                 2.6560
 Frc consts  --      0.7004                 1.6003                 1.8024
 IR Inten    --      0.0626                 6.0715                 0.5007

                     10                     11                     12
                     A'                     A'                     A'
 Frequencies --   1255.0954              1465.0099              2955.5205
 Red. masses --      3.5045                10.6156                 1.0778
 Frc consts  --      3.2526                13.4238                 5.5470
 IR Inten    --     30.7740                19.4788                29.8487

 - Thermochemistry -
 -------------------
 Temperature   298.150 Kelvin.  Pressure   1.00000 Atm.
 Atom     1 has atomic number  6 and mass  12.00000

 Molecular mass:    61.00783 amu.
 Principal axes and moments of inertia in atomic units:
                           1         2         3
     Eigenvalues --    71.58940 352.58059 377.40994
           X            0.29165   0.00000   0.95652
           Y            0.95652   0.00000  -0.29165
           Z            0.00000   1.00000   0.00000
 This molecule is an asymmetric top.
 Rotational symmetry number  1.
 Rotational temperatures (Kelvin)      1.20987     0.24566     0.22950
 Rotational constants (GHZ):          25.20962     5.11866     4.78191
 Zero-point vibrational energy      70518.7 (Joules/Mol)
                                   16.85437 (Kcal/Mol)
 Warning -- explicit consideration of   4 degrees of freedom as
           vibrations may cause significant error
 Vibrational temperatures:    240.86   501.64   633.56   683.01  1131.15
          (Kelvin)           1310.63  1366.85  1385.11  1544.11  1805.80
                             2107.82  4252.33

 Zero-point correction=                           0.026859 (Hartree/Particle)
 Thermal correction to Energy=                    0.031452
 Thermal correction to Enthalpy=                  0.032396
 Thermal correction to Gibbs Free Energy=        -0.000516
 Sum of electronic and zero-point Energies=           -190.725573
 Sum of electronic and thermal Energies=              -190.720980
 Sum of electronic and thermal Enthalpies=            -190.720036
 Sum of electronic and thermal Free Energies=         -190.752949

                     E (Thermal)             CV                S
                      KCal/Mol        Cal/Mol-Kelvin    Cal/Mol-Kelvin
 Total                   19.736             14.685             69.270
 Electronic               0.000              0.000              1.377
 Translational            0.889              2.981             38.245
 Rotational               0.889              2.981             23.770
 Vibrational             17.959              8.723              5.878
 Vibration     1          0.624              1.883              2.464
 Vibration     2          0.726              1.578              1.172
 Vibration     3          0.800              1.382              0.826
 Vibration     4          0.831              1.306              0.724

 Normal termination of Gaussian 09 at Wed Jul  6 11:57:09 2016.
