 Gaussian 09, Revision E.01,
 Gaussian 09:  EM64L-G09RevE.01 30-Nov-2015

 ---------------------------------------------
 #p b3lyp/6-311++G(3df,2p) freq symmetry=Loose
 ---------------------------------------------

 ---------
 b3lyp opt
 ---------
 Symbolic Z-matrix:
 Charge =  2 Multiplicity = 4

                         Standard orientation:
 ---------------------------------------------------------------------
 Center     Atomic      Atomic             Coordinates (Angstroms)
 Number     Number       Type             X           Y           Z
 ---------------------------------------------------------------------
      1          6           0       -2.004193    0.018429   -0.086634
      2          6           0       -0.589339   -0.064137    0.038375
      3          6           0        0.539903    0.898846    0.037472
      4          6           0        1.492963   -0.126380   -0.176809
      5          6           0        0.463457   -1.055214    0.139352
      6          1           0        0.583258    1.970737    0.289465
 ---------------------------------------------------------------------

 SCF Done:  E(UB3LYP) =  -189.811671442     A.U. after   31 cycles

 The electronic state is 4-A.
 Alpha  occ. eigenvalues --  -10.84936 -10.83752 -10.81903 -10.81856 -10.79321
 Alpha  occ. eigenvalues --   -1.50072  -1.29768  -1.19243  -1.12789  -1.01526
 Alpha  occ. eigenvalues --   -0.98979  -0.94881  -0.86646  -0.83003  -0.81675
 Alpha  occ. eigenvalues --   -0.79466
 Alpha virt. eigenvalues --   -0.64769  -0.63126  -0.59666  -0.45876  -0.34642
 Alpha virt. eigenvalues --   -0.33738  -0.33293  -0.29097  -0.27602  -0.26486
 Alpha virt. eigenvalues --   -0.25972  -0.23398  -0.22609  -0.20993  -0.20736

  Beta  occ. eigenvalues --  -10.83072 -10.82949 -10.81738 -10.79385 -10.78605
  Beta  occ. eigenvalues --   -1.47421  -1.26067  -1.16959  -1.08697  -0.98181
  Beta  occ. eigenvalues --   -0.96675  -0.91162  -0.81321
  Beta virt. eigenvalues --   -0.69239  -0.66231  -0.63233  -0.62715  -0.60492
  Beta virt. eigenvalues --   -0.52731  -0.40653  -0.33315  -0.32632  -0.31944
  Beta virt. eigenvalues --   -0.27596  -0.27064  -0.25364  -0.24727  -0.22374

 Mulliken charges and spin densities:
               1          2
     1  C    0.127798   0.458067
     2  C    0.528581   0.419004
     3  C    0.261334  -0.009934
     4  C    0.193924   1.291984
     5  C    0.532406   0.805425
     6  H    0.355958   0.035454
 Sum of Mulliken charges =   2.00000   3.00000

 Dipole moment (field-independent basis, Debye):
    X=              0.5121    Y=              1.1358    Z=              0.2327  Tot=              1.2675
 Quadrupole moment (field-independent basis, Debye-Ang):
   XX=             -8.9882   YY=            -12.5031   ZZ=            -22.1216
   XY=              0.8893   XZ=             -0.3047   YZ=              0.6119

  Exact polarizability:  64.453  -0.896  38.617  -0.641   0.137  25.412
 Approx polarizability: 129.121  -2.165  73.416  -2.238  -1.040  37.676

                      1                      2                      3
                      A                      A                      A
 Frequencies --    153.1652               285.4903               336.3899
 Red. masses --      6.5683                 7.7945                 4.6235
 Frc consts  --      0.0908                 0.3743                 0.3083
 IR Inten    --      5.5150                 4.9391                 1.3531

                      4                      5                      6
                      A                      A                      A
 Frequencies --    660.2101               843.8698               892.5356
 Red. masses --     10.5843                 3.6322                 7.0960
 Frc consts  --      2.7182                 1.5239                 3.3305
 IR Inten    --     11.9767                14.3933                17.7587

                      7                      8                      9
                      A                      A                      A
 Frequencies --    947.8756              1101.8338              1200.4552
 Red. masses --      2.0547                 1.4086                 7.0752
 Frc consts  --      1.0877                 1.0075                 6.0073
 IR Inten    --     16.1348                31.7379                47.7244

                     10                     11                     12
                      A                      A                      A
 Frequencies --   1273.0861              1409.4180              3026.1657
 Red. masses --      6.1757                10.9902                 1.1017
 Frc consts  --      5.8972                12.8628                 5.9440
 IR Inten    --     19.2078               136.7334               241.1173

 - Thermochemistry -
 -------------------
 Temperature   298.150 Kelvin.  Pressure   1.00000 Atm.
 Atom     1 has atomic number  6 and mass  12.00000

 Molecular mass:    61.00783 amu.
 Principal axes and moments of inertia in atomic units:
                           1         2         3
     Eigenvalues --    99.79692 308.38121 402.44416
           X            0.99980   0.01978   0.00231
           Y           -0.01982   0.99956   0.02193
           Z           -0.00187  -0.02197   0.99976
 This molecule is an asymmetric top.
 Rotational symmetry number  1.
 Rotational temperatures (Kelvin)      0.86790     0.28087     0.21522
 Rotational constants (GHZ):          18.08414     5.85231     4.48445
 Zero-point vibrational energy      72556.5 (Joules/Mol)
                                   17.34141 (Kcal/Mol)
 Warning -- explicit consideration of   3 degrees of freedom as
           vibrations may cause significant error
 Vibrational temperatures:    220.37   410.76   483.99   949.89  1214.14
          (Kelvin)           1284.16  1363.78  1585.29  1727.19  1831.68
                             2027.84  4353.97

 Zero-point correction=                           0.027635 (Hartree/Particle)
 Thermal correction to Energy=                    0.032279
 Thermal correction to Enthalpy=                  0.033223
 Thermal correction to Gibbs Free Energy=        -0.000670
 Sum of electronic and zero-point Energies=           -189.784036
 Sum of electronic and thermal Energies=              -189.779392
 Sum of electronic and thermal Enthalpies=            -189.778448
 Sum of electronic and thermal Free Energies=         -189.812341

                     E (Thermal)             CV                S
                      KCal/Mol        Cal/Mol-Kelvin    Cal/Mol-Kelvin
 Total                   20.255             14.348             71.334
 Electronic               0.000              0.000              2.755
 Translational            0.889              2.981             38.245
 Rotational               0.889              2.981             24.030
 Vibrational             18.478              8.387              6.304
 Vibration     1          0.619              1.899              2.633
 Vibration     2          0.683              1.701              1.501
 Vibration     3          0.717              1.603              1.229

 Optimization completed.
    -- Stationary point found.
 Normal termination of Gaussian 09 at Mon Jun 20 15:02:03 2016.
