 Gaussian 09, Revision E.01,
 Gaussian 09:  EM64L-G09RevE.01 30-Nov-2015

 ---------------------------------------------
 #p b3lyp/6-311++G(3df,2p) freq symmetry=Loose
 ---------------------------------------------

 ---------
 b3lyp opt
 ---------
 Symbolic Z-matrix:
 Charge =  2 Multiplicity = 4

                         Standard orientation:
 ---------------------------------------------------------------------
 Center     Atomic      Atomic             Coordinates (Angstroms)
 Number     Number       Type             X           Y           Z
 ---------------------------------------------------------------------
      1          1           0        0.000000    0.000000    1.544175
      2          6           0        0.000000    0.000000    0.409775
      3          6           0       -0.000000    1.268109   -0.066332
      4          6           0       -0.000000    2.501344   -0.267237
      5          6           0       -0.000000   -1.268109   -0.066332
      6          6           0       -0.000000   -2.501344   -0.267237
 ---------------------------------------------------------------------

 SCF Done:  E(UB3LYP) =  -189.832754677     A.U. after   17 cycles

 The electronic state is 4-B2.
 Alpha  occ. eigenvalues --  -10.81414 -10.81412 -10.78156 -10.73546 -10.73544
 Alpha  occ. eigenvalues --   -1.35432  -1.30608  -1.24458  -1.10616  -0.99405
 Alpha  occ. eigenvalues --   -0.89860  -0.89395  -0.87174  -0.82534  -0.80975
 Alpha  occ. eigenvalues --   -0.80737
 Alpha virt. eigenvalues --   -0.65507  -0.49285  -0.48999  -0.47167  -0.35386
 Alpha virt. eigenvalues --   -0.33869  -0.29637  -0.27735  -0.25390  -0.25070
 Alpha virt. eigenvalues --   -0.22050  -0.21613  -0.21248  -0.20604  -0.20120

  Beta  occ. eigenvalues --  -10.78442 -10.78441 -10.78184 -10.73209 -10.73206
  Beta  occ. eigenvalues --   -1.34461  -1.27002  -1.20750  -1.09089  -0.97866
  Beta  occ. eigenvalues --   -0.87143  -0.78312  -0.76064
  Beta virt. eigenvalues --   -0.70259  -0.65873  -0.65215  -0.62480  -0.43887
  Beta virt. eigenvalues --   -0.43618  -0.43468  -0.33616  -0.33086  -0.28873
  Beta virt. eigenvalues --   -0.27154  -0.25317  -0.24699  -0.21476  -0.21422

 Mulliken charges and spin densities:
               1          2
     1  H    0.298068   0.078922
     2  C   -0.043581  -0.015408
     3  C    0.707475   0.137622
     4  C    0.165281   1.330621
     5  C    0.707475   0.137622
     6  C    0.165281   1.330621
 Sum of Mulliken charges =   2.00000   3.00000

 Dipole moment (field-independent basis, Debye):
    X=             -0.0000    Y=              0.0000    Z=              0.5445  Tot=              0.5445
 Quadrupole moment (field-independent basis, Debye-Ang):
   XX=            -23.0770   YY=             19.9502   ZZ=            -18.3044
   XY=              0.0000   XZ=              0.0000   YZ=             -0.0000

  Exact polarizability:  24.200  -0.000 187.207   0.000   0.000  28.842
 Approx polarizability:  32.730   0.000 567.896   0.000   0.000  43.220

                      1                      2                      3
                     A1                     B1                     A2
 Frequencies --    164.5203               206.6633               279.2420
 Red. masses --     10.0541                 4.2771                12.0000
 Frc consts  --      0.1603                 0.1076                 0.5513
 IR Inten    --      2.9052                24.1492                 0.0000

                      4                      5                      6
                     B2                     A1                     B1
 Frequencies --    309.0291               555.5847               770.3536
 Red. masses --      7.4359                10.6801                 2.1605
 Frc consts  --      0.4184                 1.9423                 0.7554
 IR Inten    --      0.7296                 0.4691                 5.9523

                      7                      8                      9
                     A1                     B2                     B2
 Frequencies --    818.0744               927.9998              1125.1997
 Red. masses --      9.9824                 1.4575                 3.2090
 Frc consts  --      3.9362                 0.7396                 2.3937
 IR Inten    --      1.3631              2116.1373               604.0045

                     10                     11                     12
                     B2                     A1                     A1
 Frequencies --   1998.4615              2013.6104              2671.8434
 Red. masses --     11.9819                11.9428                 1.0712
 Frc consts  --     28.1948                28.5303                 4.5054
 IR Inten    --   1025.6035                21.7107               333.5774

 - Thermochemistry -
 -------------------
 Temperature   298.150 Kelvin.  Pressure   1.00000 Atm.
 Atom     1 has atomic number  1 and mass   1.00783

 Molecular mass:    61.00783 amu.
 Principal axes and moments of inertia in atomic units:
                           1         2         3
     Eigenvalues --    22.13782 674.05918 696.19700
           X            0.00000   0.00000   1.00000
           Y            1.00000  -0.00000  -0.00000
           Z            0.00000   1.00000  -0.00000
 This molecule is an asymmetric top.
 Rotational symmetry number  2.
 Rotational temperatures (Kelvin)      3.91248     0.12850     0.12441
 Rotational constants (GHZ):          81.52300     2.67742     2.59229
 Zero-point vibrational energy      70822.4 (Joules/Mol)
                                   16.92696 (Kcal/Mol)
 Warning -- explicit consideration of   5 degrees of freedom as
           vibrations may cause significant error
 Vibrational temperatures:    236.71   297.34   401.77   444.62   799.36
          (Kelvin)           1108.37  1177.03  1335.18  1618.91  2875.34
                             2897.13  3844.18

 Zero-point correction=                           0.026975 (Hartree/Particle)
 Thermal correction to Energy=                    0.032251
 Thermal correction to Enthalpy=                  0.033195
 Thermal correction to Gibbs Free Energy=        -0.001060
 Sum of electronic and zero-point Energies=           -189.805780
 Sum of electronic and thermal Energies=              -189.800504
 Sum of electronic and thermal Enthalpies=            -189.799559
 Sum of electronic and thermal Free Energies=         -189.833815

                     E (Thermal)             CV                S
                      KCal/Mol        Cal/Mol-Kelvin    Cal/Mol-Kelvin
 Total                   20.238             16.242             72.097
 Electronic               0.000              0.000              2.755
 Translational            0.889              2.981             38.245
 Rotational               0.889              2.981             22.478
 Vibrational             18.460             10.281              8.618
 Vibration     1          0.623              1.886              2.497
 Vibration     2          0.641              1.830              2.073
 Vibration     3          0.680              1.712              1.538
 Vibration     4          0.698              1.657              1.368
 Vibration     5          0.911              1.127              0.533

 Optimization completed.
    -- Stationary point found.
 Normal termination of Gaussian 09 at Wed Jul 20 10:20:08 2016.
