 Gaussian 09, Revision E.01,
 Gaussian 09:  EM64L-G09RevE.01 30-Nov-2015

 ---------------------------------------------
 #p b3lyp/6-311++G(3df,2p) freq symmetry=Loose
 ---------------------------------------------

 ---------
 b3lyp opt
 ---------
 Symbolic Z-matrix:
 Charge =  1 Multiplicity = 3

                         Standard orientation:
 ---------------------------------------------------------------------
 Center     Atomic      Atomic             Coordinates (Angstroms)
 Number     Number       Type             X           Y           Z
 ---------------------------------------------------------------------
      1          6           0        0.000000   -0.000000    1.886440
      2          6           0        0.000000   -0.000000    0.625682
      3          6           0        0.000000    0.771167   -0.638293
      4          6           0       -0.000000    0.000000   -1.728627
      5          6           0       -0.000000   -0.771167   -0.638293
      6          1           0        0.000000   -0.000000    2.958546
 ---------------------------------------------------------------------

 SCF Done:  E(UB3LYP) =  -190.488748423     A.U. after   16 cycles

 The electronic state is 3-B2.
 Alpha  occ. eigenvalues --  -10.56403 -10.56383 -10.53448 -10.51753 -10.48828
 Alpha  occ. eigenvalues --   -1.28786  -1.06374  -0.93808  -0.84311  -0.78572
 Alpha  occ. eigenvalues --   -0.71452  -0.71451  -0.65405  -0.56413  -0.55721
 Alpha  occ. eigenvalues --   -0.50973
 Alpha virt. eigenvalues --   -0.35055  -0.32262  -0.27535  -0.15820  -0.14490
 Alpha virt. eigenvalues --   -0.13525  -0.10628  -0.10252  -0.10241  -0.08326
 Alpha virt. eigenvalues --   -0.07693  -0.05432  -0.05262  -0.04230  -0.03404

  Beta  occ. eigenvalues --  -10.55696 -10.55676 -10.51754 -10.51745 -10.47541
  Beta  occ. eigenvalues --   -1.28320  -1.04203  -0.91096  -0.81659  -0.77276
  Beta  occ. eigenvalues --   -0.70746  -0.69257  -0.58839  -0.54582
  Beta virt. eigenvalues --   -0.42341  -0.37301  -0.33768  -0.30031  -0.23311
  Beta virt. eigenvalues --   -0.14378  -0.14155  -0.12855  -0.10538  -0.09548
  Beta virt. eigenvalues --   -0.09293  -0.07976  -0.06884  -0.04872  -0.04858

 Mulliken charges and spin densities:
               1          2
     1  C   -0.401953   0.821619
     2  C   -0.286014  -0.134744
     3  C    1.013549   0.309646
     4  C   -0.726595   0.713875
     5  C    1.013549   0.309646
     6  H    0.387463  -0.020041
 Sum of Mulliken charges =   1.00000   2.00000

 Dipole moment (field-independent basis, Debye):
    X=             -0.0000    Y=             -0.0000    Z=              1.6645  Tot=              1.6645
 Quadrupole moment (field-independent basis, Debye-Ang):
   XX=            -25.1992   YY=            -24.5916   ZZ=             -8.9501
   XY=             -0.0000   XZ=              0.0000   YZ=              0.0000

  Exact polarizability:  25.769   0.000  35.027  -0.000  -0.000  72.321
 Approx polarizability:  38.211   0.000  71.648   0.000  -0.000 143.014

                      1                      2                      3
                     B2                     B1                     B2
 Frequencies --    205.9196               230.7053               398.6737
 Red. masses --      1.1363                 6.0322                11.2183
 Frc consts  --      0.0284                 0.1892                 1.0505
 IR Inten    --     33.1603                 2.6707                 0.0001

                      4                      5                      6
                     B1                     B2                     A1
 Frequencies --    512.8553               527.6524               711.4579
 Red. masses --      9.4012                 9.7166                 9.9703
 Frc consts  --      1.4569                 1.5939                 2.9734
 IR Inten    --      8.2590                15.9939                16.7767

                      7                      8                      9
                     B1                     A1                     B2
 Frequencies --    733.5931               976.7820              1214.4732
 Red. masses --      1.2653                 9.8938                11.9432
 Frc consts  --      0.4012                 5.5617                10.3788
 IR Inten    --     27.8111                 3.5979                 0.8084

                     10                     11                     12
                     A1                     A1                     A1
 Frequencies --   1687.8140              1822.2768              3352.1372
 Red. masses --     11.9999                 7.1167                 1.1295
 Frc consts  --     20.1409                13.9237                 7.4780
 IR Inten    --     17.1106                 2.1479               246.7344

 - Thermochemistry -
 -------------------
 Temperature   298.150 Kelvin.  Pressure   1.00000 Atm.
 Atom     1 has atomic number  6 and mass  12.00000

 Molecular mass:    61.00783 amu.
 Principal axes and moments of inertia in atomic units:
                           1         2         3
     Eigenvalues --    50.96898 363.24056 414.20954
           X            0.00000  -0.00000   1.00000
           Y            0.00000   1.00000   0.00000
           Z            1.00000  -0.00000   0.00000
 This molecule is an asymmetric top.
 Rotational symmetry number  2.
 Rotational temperatures (Kelvin)      1.69934     0.23845     0.20911
 Rotational constants (GHZ):          35.40862     4.96845     4.35707
 Zero-point vibrational energy      74015.0 (Joules/Mol)
                                   17.69001 (Kcal/Mol)
 Warning -- explicit consideration of   5 degrees of freedom as
           vibrations may cause significant error
 Vibrational temperatures:    296.27   331.93   573.60   737.88   759.17
          (Kelvin)           1023.63  1055.48  1405.37  1747.35  2428.38
                             2621.85  4822.97

 Zero-point correction=                           0.028191 (Hartree/Particle)
 Thermal correction to Energy=                    0.033087
 Thermal correction to Enthalpy=                  0.034031
 Thermal correction to Gibbs Free Energy=         0.001030
 Sum of electronic and zero-point Energies=           -190.460558
 Sum of electronic and thermal Energies=              -190.455662
 Sum of electronic and thermal Enthalpies=            -190.454718
 Sum of electronic and thermal Free Energies=         -190.487719

                     E (Thermal)             CV                S
                      KCal/Mol        Cal/Mol-Kelvin    Cal/Mol-Kelvin
 Total                   20.762             15.705             69.456
 Electronic               0.000              0.000              2.183
 Translational            0.889              2.981             38.245
 Rotational               0.889              2.981             22.177
 Vibrational             18.985              9.743              6.851
 Vibration     1          0.640              1.831              2.080
 Vibration     2          0.652              1.794              1.873
 Vibration     3          0.765              1.473              0.968
 Vibration     4          0.868              1.222              0.627
 Vibration     5          0.883              1.189              0.592

 Optimization completed.
    -- Stationary point found.
 Normal termination of Gaussian 09 at Thu Jul 21 01:27:57 2016.
