 Gaussian 09, Revision E.01,
 Gaussian 09:  EM64L-G09RevE.01 30-Nov-2015

 ---------------------------------------------
 #p b3lyp/6-311++G(3df,2p) freq symmetry=Loose
 ---------------------------------------------

 ---------
 b3lyp opt
 ---------
 Symbolic Z-matrix:
 Charge =  1 Multiplicity = 1

                         Standard orientation:
 ---------------------------------------------------------------------
 Center     Atomic      Atomic             Coordinates (Angstroms)
 Number     Number       Type             X           Y           Z
 ---------------------------------------------------------------------
      1          1           0        0.000000    0.000000   -3.484495
      2          6           0        0.000000    0.000000   -2.410895
      3          6           0        0.000000    0.000000   -1.193991
      4          6           0        0.000000    0.000000    0.123697
      5          6           0        0.000000    0.000000    1.371889
      6          6           0        0.000000    0.000000    2.690050
 ---------------------------------------------------------------------

 SCF Done:  E(RB3LYP) =  -190.600077910     A.U. after   12 cycles

 The electronic state is 1-SG.
 Alpha  occ. eigenvalues --  -10.54614 -10.52568 -10.50423 -10.46945 -10.45216
 Alpha  occ. eigenvalues --   -1.10475  -1.04872  -0.97544  -0.89601  -0.79278
 Alpha  occ. eigenvalues --   -0.64735  -0.64735  -0.55681  -0.55681  -0.54830
 Alpha virt. eigenvalues --   -0.39880  -0.39880  -0.23222  -0.23222  -0.15801
 Alpha virt. eigenvalues --   -0.13580  -0.10653  -0.10209  -0.10209  -0.07999
 Alpha virt. eigenvalues --   -0.07999  -0.05736  -0.05540  -0.05540  -0.04218

 Mulliken charges:
               1
     1  H    0.388656
     2  C    0.517206
     3  C   -0.018657
     4  C   -0.963989
     5  C    1.534734
     6  C   -0.457949
 Sum of Mulliken charges =   1.00000

 Dipole moment (field-independent basis, Debye):
    X=              0.0000    Y=              0.0000    Z=             -3.8904  Tot=              3.8904
 Quadrupole moment (field-independent basis, Debye-Ang):
   XX=            -25.3563   YY=            -25.3563   ZZ=             -1.1251
   XY=              0.0000   XZ=              0.0000   YZ=              0.0000

  Exact polarizability:  28.441  -0.000  28.441  -0.000   0.000 125.515
 Approx polarizability:  40.621  -0.000  40.621  -0.000  -0.000 392.168

                      1                      2                      3
                     PI                     PI                     PI
 Frequencies --    115.8715               115.8715               260.2393
 Red. masses --      7.1741                 7.1741                 5.7833
 Frc consts  --      0.0568                 0.0568                 0.2308
 IR Inten    --      0.0042                 0.0042                10.3471

                      4                      5                      6
                     PI                     PI                     PI
 Frequencies --    260.2393               631.9709               631.9709
 Red. masses --      5.7833                 8.1463                 8.1463
 Frc consts  --      0.2308                 1.9169                 1.9169
 IR Inten    --     10.3471                 8.0892                 8.0892

                      7                      8                      9
                     SG                     PI                     PI
 Frequencies --    783.9857               789.5899               789.5899
 Red. masses --      9.1094                 1.3567                 1.3567
 Frc consts  --      3.2988                 0.4984                 0.4984
 IR Inten    --     21.1311                20.5910                20.5910

                     10                     11                     12
                     SG                     SG                     SG
 Frequencies --   1468.1821              2126.4314              2280.7582
 Red. masses --      9.9575                 7.3685                 9.4562
 Frc consts  --     12.6463                19.6305                28.9819
 IR Inten    --    179.3299                38.2265              2296.6097

                     13
                     SG
 Frequencies --   3361.3535
 Red. masses --      1.1643
 Frc consts  --      7.7507
 IR Inten    --    142.9953

 - Thermochemistry -
 -------------------
 Temperature   298.150 Kelvin.  Pressure   1.00000 Atm.
 Atom     1 has atomic number  1 and mass   1.00783

 Molecular mass:    61.00783 amu.
 Principal axes and moments of inertia in atomic units:
                           1         2         3
     Eigenvalues --     0.00000 744.57467 744.57467
           X            0.00000  -0.00000   1.00000
           Y            0.00000   1.00000   0.00000
           Z            1.00000   0.00000   0.00000
 This molecule is a prolate symmetric top.
 Rotational symmetry number  1.
 Warning -- assumption of classical behavior for rotation
           may cause significant error
 Rotational temperature (Kelvin)      0.11633
 Rotational constant (GHZ):           2.423855
 Zero-point vibrational energy      81442.1 (Joules/Mol)
                                   19.46513 (Kcal/Mol)
 Warning -- explicit consideration of   4 degrees of freedom as
           vibrations may cause significant error
 Vibrational temperatures:    166.71   166.71   374.43   374.43   909.26
          (Kelvin)            909.26  1127.98  1136.04  1136.04  2112.38
                             3059.46  3281.50  4836.23

 Zero-point correction=                           0.031020 (Hartree/Particle)
 Thermal correction to Energy=                    0.036273
 Thermal correction to Enthalpy=                  0.037217
 Thermal correction to Gibbs Free Energy=         0.005407
 Sum of electronic and zero-point Energies=           -190.569058
 Sum of electronic and thermal Energies=              -190.563805
 Sum of electronic and thermal Enthalpies=            -190.562861
 Sum of electronic and thermal Free Energies=         -190.594671

                     E (Thermal)             CV                S
                      KCal/Mol        Cal/Mol-Kelvin    Cal/Mol-Kelvin
 Total                   22.761             16.370             66.949
 Electronic               0.000              0.000              0.000
 Translational            0.889              2.981             38.245
 Rotational               0.592              1.987             17.585
 Vibrational             21.280             11.402             11.119
 Vibration     1          0.608              1.936              3.168
 Vibration     2          0.608              1.936              3.168
 Vibration     3          0.668              1.745              1.660
 Vibration     4          0.668              1.745              1.660

 Optimization completed.
    -- Stationary point found.
 Normal termination of Gaussian 09 at Mon Jun 20 14:22:02 2016.
