 Gaussian 09, Revision E.01,
 Gaussian 09:  EM64L-G09RevE.01 30-Nov-2015

 ---------------------------------------------
 #p b3lyp/6-311++G(3df,2p) freq symmetry=Loose
 ---------------------------------------------

 ---------
 b3lyp opt
 ---------
 Symbolic Z-matrix:
 Charge =  3 Multiplicity = 3

                         Standard orientation:
 ---------------------------------------------------------------------
 Center     Atomic      Atomic             Coordinates (Angstroms)
 Number     Number       Type             X           Y           Z
 ---------------------------------------------------------------------
      1          1           0        2.498957    0.515013    0.000000
      2          6           0        1.419326    0.162486    0.000000
      3          6           0        0.490489   -0.863480    0.000000
      4          6           0       -0.862993   -0.662502   -0.000000
      5          6           0       -1.463315    0.579850   -0.000000
      6          6           0        0.000000    0.697811    0.000000
 ---------------------------------------------------------------------

 SCF Done:  E(UB3LYP) =  -188.963765124     A.U. after   17 cycles

 The electronic state is 3-A".
 Alpha  occ. eigenvalues --  -11.18742 -11.17763 -11.17669 -11.17615 -11.13931
 Alpha  occ. eigenvalues --   -1.88065  -1.68179  -1.51946  -1.37395  -1.30340
 Alpha  occ. eigenvalues --   -1.29232  -1.29047  -1.22694  -1.12649  -1.12096
 Alpha virt. eigenvalues --   -0.96702  -0.92608  -0.84424  -0.79050  -0.77210
 Alpha virt. eigenvalues --   -0.70454  -0.59887  -0.56452  -0.54132  -0.49512
 Alpha virt. eigenvalues --   -0.46898  -0.44659  -0.43333  -0.42534  -0.41606

  Beta  occ. eigenvalues --  -11.18722 -11.17511 -11.17014 -11.14753 -11.13343
  Beta  occ. eigenvalues --   -1.86739  -1.65335  -1.50628  -1.35473  -1.29535
  Beta  occ. eigenvalues --   -1.27168  -1.25809  -1.18254
  Beta virt. eigenvalues --   -1.00214  -0.94978  -0.94671  -0.90691  -0.78520
  Beta virt. eigenvalues --   -0.77095  -0.71853  -0.69356  -0.58635  -0.55876
  Beta virt. eigenvalues --   -0.51379  -0.48208  -0.46489  -0.43853  -0.42438

 Mulliken charges and spin densities:
               1          2
     1  H    0.469521  -0.006038
     2  C    0.407772   0.341237
     3  C    0.598618   0.346764
     4  C    0.331262   0.063509
     5  C    0.839550   1.286215
     6  C    0.353276  -0.031687
 Sum of Mulliken charges =   3.00000   2.00000

 Dipole moment (field-independent basis, Debye):
    X=              1.5004    Y=              0.1405    Z=              0.0000  Tot=              1.5070
 Quadrupole moment (field-independent basis, Debye-Ang):
   XX=              7.4753   YY=            -11.9734   ZZ=            -19.5867
   XY=              0.3547   XZ=              0.0000   YZ=             -0.0000

  Exact polarizability:  46.971  -1.595  29.795  -0.000  -0.000  18.148
 Approx polarizability:  98.513  -5.774  74.256   0.000   0.000  28.048

                      1                      2                      3
                     A"                     A'                     A"
 Frequencies --    347.9868               444.8478               483.4376
 Red. masses --      4.6519                10.9116                11.2875
 Frc consts  --      0.3319                 1.2722                 1.5543
 IR Inten    --      3.8682                 2.9643                 0.1283

                      4                      5                      6
                     A'                     A'                     A"
 Frequencies --    556.1750               634.1649               745.6494
 Red. masses --      8.5552                 9.9560                 1.3594
 Frc consts  --      1.5592                 2.3591                 0.4453
 IR Inten    --      8.0636                18.6501                21.3207

                      7                      8                      9
                     A'                     A'                     A'
 Frequencies --    811.2106               972.8958              1171.8381
 Red. masses --      5.3775                 1.3018                 8.7543
 Frc consts  --      2.0849                 0.7260                 7.0828
 IR Inten    --    112.4088                55.4180                 9.3791

                     10                     11                     12
                     A'                     A'                     A'
 Frequencies --   1318.7479              1586.4589              2738.9266
 Red. masses --      8.6132                10.1101                 1.1378
 Frc consts  --      8.8255                14.9921                 5.0290
 IR Inten    --    228.2753                75.5370               632.1746

 - Thermochemistry -
 -------------------
 Temperature   298.150 Kelvin.  Pressure   1.00000 Atm.
 Atom     1 has atomic number  1 and mass   1.00783

 Molecular mass:    61.00783 amu.
 Principal axes and moments of inertia in atomic units:
                           1         2         3
     Eigenvalues --    86.54996 243.98123 330.53119
           X            0.99505   0.09939   0.00000
           Y           -0.09939   0.99505   0.00000
           Z           -0.00000   0.00000   1.00000
 This molecule is an asymmetric top.
 Rotational symmetry number  1.
 Rotational temperatures (Kelvin)      1.00074     0.35500     0.26204
 Rotational constants (GHZ):          20.85202     7.39705     5.46012
 Zero-point vibrational energy      70653.5 (Joules/Mol)
                                   16.88659 (Kcal/Mol)
 Warning -- explicit consideration of   4 degrees of freedom as
           vibrations may cause significant error
 Vibrational temperatures:    500.67   640.04   695.56   800.21   912.42
          (Kelvin)           1072.82  1167.15  1399.78  1686.01  1897.38
                             2282.56  3940.70

 Zero-point correction=                           0.026910 (Hartree/Particle)
 Thermal correction to Energy=                    0.031184
 Thermal correction to Enthalpy=                  0.032128
 Thermal correction to Gibbs Free Energy=        -0.000248
 Sum of electronic and zero-point Energies=           -188.936855
 Sum of electronic and thermal Energies=              -188.932582
 Sum of electronic and thermal Enthalpies=            -188.931637
 Sum of electronic and thermal Free Energies=         -188.964014

                     E (Thermal)             CV                S
                      KCal/Mol        Cal/Mol-Kelvin    Cal/Mol-Kelvin
 Total                   19.568             14.490             68.141
 Electronic               0.000              0.000              2.183
 Translational            0.889              2.981             38.245
 Rotational               0.889              2.981             23.461
 Vibrational             17.791              8.529              4.253
 Vibration     1          0.726              1.579              1.175
 Vibration     2          0.804              1.372              0.812
 Vibration     3          0.840              1.287              0.701
 Vibration     4          0.912              1.126              0.532

 Optimization completed.
    -- Stationary point found.
 Normal termination of Gaussian 09 at Mon Jun 20 15:17:17 2016.
