 Gaussian 09, Revision E.01,
 Gaussian 09:  EM64L-G09RevE.01 30-Nov-2015

 ---------------------------------------------
 #p b3lyp/6-311++G(3df,2p) freq symmetry=Loose
 ---------------------------------------------

 ---------
 b3lyp opt
 ---------
 Symbolic Z-matrix:
 Charge =  1 Multiplicity = 3

                         Standard orientation:
 ---------------------------------------------------------------------
 Center     Atomic      Atomic             Coordinates (Angstroms)
 Number     Number       Type             X           Y           Z
 ---------------------------------------------------------------------
      1          6           0       -0.000000    0.000000    2.061047
      2          6           0       -0.000000    0.000000    0.779609
      3          6           0        0.000000    0.801382   -0.435857
      4          6           0        0.000000   -0.000000   -1.533857
      5          6           0       -0.000000   -0.801382   -0.435857
      6          1           0        0.000000   -0.000000   -2.610503
 ---------------------------------------------------------------------

 SCF Done:  E(UB3LYP) =  -190.475597268     A.U. after   19 cycles

 The electronic state is 3-B2.
 Alpha  occ. eigenvalues --  -10.54633 -10.54619 -10.53586 -10.51511 -10.51091
 Alpha  occ. eigenvalues --   -1.26948  -1.06215  -0.93319  -0.83436  -0.77650
 Alpha  occ. eigenvalues --   -0.71284  -0.69996  -0.66339  -0.56843  -0.55683
 Alpha  occ. eigenvalues --   -0.51534
 Alpha virt. eigenvalues --   -0.34540  -0.32911  -0.27965  -0.15200  -0.14505
 Alpha virt. eigenvalues --   -0.13510  -0.11387  -0.10748  -0.09646  -0.07094
 Alpha virt. eigenvalues --   -0.06652  -0.06360  -0.05199  -0.04217  -0.02894

  Beta  occ. eigenvalues --  -10.54351 -10.54335 -10.51523 -10.51143 -10.49915
  Beta  occ. eigenvalues --   -1.26889  -1.03177  -0.90721  -0.82599  -0.77028
  Beta  occ. eigenvalues --   -0.70219  -0.69696  -0.55833  -0.53746
  Beta virt. eigenvalues --   -0.42231  -0.35718  -0.33891  -0.30478  -0.24577
  Beta virt. eigenvalues --   -0.14450  -0.14172  -0.13244  -0.10920  -0.10621
  Beta virt. eigenvalues --   -0.08787  -0.06311  -0.06160  -0.06027  -0.04654

 Mulliken charges and spin densities:
               1          2
     1  C   -0.496466   1.943133
     2  C    0.114033  -0.184660
     3  C    0.783654   0.155655
     4  C   -0.514566  -0.073235
     5  C    0.783654   0.155655
     6  H    0.329691   0.003452
 Sum of Mulliken charges =   1.00000   2.00000

 Dipole moment (field-independent basis, Debye):
    X=             -0.0000    Y=              0.0000    Z=             -0.8899  Tot=              0.8899
 Quadrupole moment (field-independent basis, Debye-Ang):
   XX=            -25.2676   YY=            -25.6352   ZZ=             -7.6248
   XY=             -0.0000   XZ=              0.0000   YZ=              0.0000

  Exact polarizability:  27.082  -0.000  38.083   0.000   0.000  67.220
 Approx polarizability:  39.187   0.000  86.677   0.000   0.000 132.452

                      1                      2                      3
                     B1                     B2                     B1
 Frequencies --    231.5649               418.3894               559.5264
 Red. masses --      6.4870                 7.8330                11.4884
 Frc consts  --      0.2049                 0.8079                 2.1191
 IR Inten    --      3.8131                 9.7758                 0.2083

                      4                      5                      6
                     B2                     A1                     B1
 Frequencies --    580.0059               759.1264               782.2338
 Red. masses --      7.6959                 9.9028                 1.1951
 Frc consts  --      1.5254                 3.3623                 0.4308
 IR Inten    --     29.0028                 1.2810                22.5512

                      7                      8                      9
                     A1                     B2                     B2
 Frequencies --    983.5409              1032.0311              1074.5545
 Red. masses --     11.6661                 2.1610                 2.2226
 Frc consts  --      6.6491                 1.3561                 1.5121
 IR Inten    --      4.2749                 0.0103                14.4921

                     10                     11                     12
                     A1                     A1                     A1
 Frequencies --   1580.8271              1765.5981              3291.3281
 Red. masses --      6.8498                11.6855                 1.1207
 Frc consts  --     10.0855                21.4625                 7.1530
 IR Inten    --     24.7667                 0.1546               136.8770

 - Thermochemistry -
 -------------------
 Temperature   298.150 Kelvin.  Pressure   1.00000 Atm.
 Atom     1 has atomic number  6 and mass  12.00000

 Molecular mass:    61.00783 amu.
 Principal axes and moments of inertia in atomic units:
                           1         2         3
     Eigenvalues --    55.04118 349.31614 404.35732
           X            0.00000  -0.00000   1.00000
           Y            0.00000   1.00000   0.00000
           Z            1.00000  -0.00000  -0.00000
 This molecule is an asymmetric top.
 Rotational symmetry number  2.
 Rotational temperatures (Kelvin)      1.57362     0.24795     0.21420
 Rotational constants (GHZ):          32.78893     5.16650     4.46323
 Zero-point vibrational energy      78108.5 (Joules/Mol)
                                   18.66839 (Kcal/Mol)
 Warning -- explicit consideration of   4 degrees of freedom as
           vibrations may cause significant error
 Vibrational temperatures:    333.17   601.97   805.03   834.50  1092.21
          (Kelvin)           1125.46  1415.09  1484.86  1546.04  2274.45
                             2540.30  4735.48

 Zero-point correction=                           0.029750 (Hartree/Particle)
 Thermal correction to Energy=                    0.034021
 Thermal correction to Enthalpy=                  0.034966
 Thermal correction to Gibbs Free Energy=         0.003074
 Sum of electronic and zero-point Energies=           -190.445847
 Sum of electronic and thermal Energies=              -190.441576
 Sum of electronic and thermal Enthalpies=            -190.440632
 Sum of electronic and thermal Free Energies=         -190.472523

                     E (Thermal)             CV                S
                      KCal/Mol        Cal/Mol-Kelvin    Cal/Mol-Kelvin
 Total                   21.349             13.906             67.122
 Electronic               0.000              0.000              2.183
 Translational            0.889              2.981             38.245
 Rotational               0.889              2.981             22.190
 Vibrational             19.571              7.944              4.503
 Vibration     1          0.653              1.793              1.867
 Vibration     2          0.781              1.430              0.897
 Vibration     3          0.915              1.119              0.525
 Vibration     4          0.937              1.075              0.485

 Optimization completed.
    -- Stationary point found.
 Normal termination of Gaussian 09 at Thu Jul 21 01:29:59 2016.
