 Gaussian 09, Revision E.01,
 Gaussian 09:  EM64L-G09RevE.01 30-Nov-2015

 ---------------------------------------------
 #p b3lyp/6-311++G(3df,2p) freq symmetry=Loose
 ---------------------------------------------

 ---------
 b3lyp opt
 ---------
 Symbolic Z-matrix:
 Charge =  0 Multiplicity = 4

                         Standard orientation:
 ---------------------------------------------------------------------
 Center     Atomic      Atomic             Coordinates (Angstroms)
 Number     Number       Type             X           Y           Z
 ---------------------------------------------------------------------
      1          1           0        0.000000   -0.000000    1.760450
      2          6           0        0.000000   -0.000000    0.676409
      3          6           0        0.000000    1.216352    0.017524
      4          6           0        0.000000    2.319171   -0.502432
      5          6           0       -0.000000   -1.216352    0.017524
      6          6           0       -0.000000   -2.319171   -0.502432
 ---------------------------------------------------------------------

 SCF Done:  E(UB3LYP) =  -190.783008626     A.U. after   19 cycles

 The electronic state is 4-A2.
 Alpha  occ. eigenvalues --  -10.25487 -10.25486 -10.24404 -10.21624 -10.21623
 Alpha  occ. eigenvalues --   -0.84929  -0.79442  -0.74145  -0.57332  -0.51375
 Alpha  occ. eigenvalues --   -0.42215  -0.41693  -0.39968  -0.33753  -0.32325
 Alpha  occ. eigenvalues --   -0.32139  -0.24219
 Alpha virt. eigenvalues --   -0.02115   0.00363   0.00739   0.01630   0.03410
 Alpha virt. eigenvalues --    0.03527   0.04680   0.05923   0.06349   0.08168
 Alpha virt. eigenvalues --    0.08512   0.08649   0.09967   0.10213   0.10345

  Beta  occ. eigenvalues --  -10.23454 -10.22818 -10.22817 -10.21786 -10.21784
  Beta  occ. eigenvalues --   -0.83514  -0.76862  -0.70225  -0.55809  -0.50855
  Beta  occ. eigenvalues --   -0.36984  -0.30744  -0.30394  -0.30092
  Beta virt. eigenvalues --   -0.20515  -0.20033  -0.12119  -0.00903   0.01714
  Beta virt. eigenvalues --    0.03254   0.03424   0.04470   0.04597   0.04751
  Beta virt. eigenvalues --    0.06503   0.06807   0.08490   0.10068   0.10229

 Mulliken charges and spin densities:
               1          2
     1  H    0.158655  -0.030965
     2  C   -0.844135   0.729004
     3  C    0.441354  -0.247293
     4  C   -0.098614   1.398273
     5  C    0.441354  -0.247293
     6  C   -0.098614   1.398273
 Sum of Mulliken charges =   0.00000   3.00000

 Dipole moment (field-independent basis, Debye):
    X=             -0.0000    Y=             -0.0000    Z=              0.5743  Tot=              0.5743
 Quadrupole moment (field-independent basis, Debye-Ang):
   XX=            -29.8126   YY=            -26.9256   ZZ=            -26.5485
   XY=             -0.0000   XZ=             -0.0000   YZ=             -0.0000

  Exact polarizability:  37.972   0.000 112.928  -0.000  -0.000  52.180
 Approx polarizability:  48.492   0.000 181.528   0.000   0.000  69.203

                      1                      2                      3
                     A1                     B2                     B1
 Frequencies --    114.1725               122.9479               346.6646
 Red. masses --     10.9300                 9.2850                 3.2811
 Frc consts  --      0.0839                 0.0827                 0.2323
 IR Inten    --      3.2064                26.7398                 4.5520

                      4                      5                      6
                     A2                     A1                     B1
 Frequencies --    375.0787               454.4510               673.2997
 Red. masses --     12.0000                10.7876                 1.8006
 Frc consts  --      0.9947                 1.3126                 0.4809
 IR Inten    --      0.0000                18.1710                29.3800

                      7                      8                      9
                     A1                     B2                     B2
 Frequencies --    926.1425              1136.4499              1353.0463
 Red. masses --      8.3816                 1.8409                 2.1016
 Frc consts  --      4.2358                 1.4008                 2.2668
 IR Inten    --      5.3634                55.0908                 8.9742

                     10                     11                     12
                     B2                     A1                     A1
 Frequencies --   1993.2775              2098.8189              3144.4224
 Red. masses --     11.8891                11.8591                 1.0837
 Frc consts  --     27.8314                30.7787                 6.3133
 IR Inten    --      0.0100                 6.1679                 2.5422

 - Thermochemistry -
 -------------------
 Temperature   298.150 Kelvin.  Pressure   1.00000 Atm.
 Atom     1 has atomic number  1 and mass   1.00783

 Molecular mass:    61.00783 amu.
 Principal axes and moments of inertia in atomic units:
                           1         2         3
     Eigenvalues --    52.24346 587.77439 640.01785
           X            0.00000   0.00000   1.00000
           Y            1.00000   0.00000  -0.00000
           Z            0.00000   1.00000   0.00000
 This molecule is an asymmetric top.
 Rotational symmetry number  2.
 Rotational temperatures (Kelvin)      1.65789     0.14736     0.13533
 Rotational constants (GHZ):          34.54483     3.07047     2.81983
 Zero-point vibrational energy      76194.8 (Joules/Mol)
                                   18.21099 (Kcal/Mol)
 Warning -- explicit consideration of   5 degrees of freedom as
           vibrations may cause significant error
 Vibrational temperatures:    164.27   176.89   498.77   539.65   653.85
          (Kelvin)            968.73  1332.51  1635.10  1946.73  2867.88
                             3019.73  4524.12

 Zero-point correction=                           0.029021 (Hartree/Particle)
 Thermal correction to Energy=                    0.034417
 Thermal correction to Enthalpy=                  0.035361
 Thermal correction to Gibbs Free Energy=         0.000236
 Sum of electronic and zero-point Energies=           -190.753988
 Sum of electronic and thermal Energies=              -190.748592
 Sum of electronic and thermal Enthalpies=            -190.747648
 Sum of electronic and thermal Free Energies=         -190.782773

                     E (Thermal)             CV                S
                      KCal/Mol        Cal/Mol-Kelvin    Cal/Mol-Kelvin
 Total                   21.597             16.027             73.928
 Electronic               0.000              0.000              2.755
 Translational            0.889              2.981             38.245
 Rotational               0.889              2.981             23.112
 Vibrational             19.819             10.065              9.816
 Vibration     1          0.607              1.938              3.197
 Vibration     2          0.610              1.930              3.054
 Vibration     3          0.725              1.582              1.181
 Vibration     4          0.746              1.523              1.059
 Vibration     5          0.813              1.351              0.782

 Optimization completed.
    -- Stationary point found.
 Normal termination of Gaussian 09 at Mon Jun 20 14:15:04 2016.
