 Gaussian 09, Revision E.01,
 Gaussian 09:  EM64L-G09RevE.01 30-Nov-2015

 ---------------------------------------------
 #p b3lyp/6-311++G(3df,2p) freq symmetry=Loose
 ---------------------------------------------

 ---------
 b3lyp opt
 ---------
 Symbolic Z-matrix:
 Charge =  1 Multiplicity = 3

                         Standard orientation:
 ---------------------------------------------------------------------
 Center     Atomic      Atomic             Coordinates (Angstroms)
 Number     Number       Type             X           Y           Z
 ---------------------------------------------------------------------
      1          6           0        0.025026    1.639039    0.000000
      2          6           0        1.200008    1.006989    0.000000
      3          6           0       -0.000000    0.260597    0.000000
      4          6           0       -0.569097   -0.970232   -0.000000
      5          6           0       -1.035599   -2.089825   -0.000000
      6          1           0        2.277968    0.920588    0.000000
 ---------------------------------------------------------------------

 SCF Done:  E(UB3LYP) =  -190.518210691     A.U. after   17 cycles

 The electronic state is 3-A'.
 Alpha  occ. eigenvalues --  -10.54035 -10.51983 -10.51545 -10.51450 -10.44848
 Alpha  occ. eigenvalues --   -1.22539  -1.04736  -0.92860  -0.85250  -0.74205
 Alpha  occ. eigenvalues --   -0.67650  -0.67590  -0.64420  -0.58533  -0.56260
 Alpha  occ. eigenvalues --   -0.52666
 Alpha virt. eigenvalues --   -0.34256  -0.28029  -0.23484  -0.14969  -0.13651
 Alpha virt. eigenvalues --   -0.13574  -0.12335  -0.10057  -0.09210  -0.07557
 Alpha virt. eigenvalues --   -0.05838  -0.05331  -0.05147  -0.04177  -0.03372

  Beta  occ. eigenvalues --  -10.53724 -10.51333 -10.50665 -10.48885 -10.44874
  Beta  occ. eigenvalues --   -1.21615  -1.03264  -0.90816  -0.84404  -0.70713
  Beta  occ. eigenvalues --   -0.67469  -0.66362  -0.54707  -0.53786
  Beta virt. eigenvalues --   -0.41745  -0.40133  -0.32412  -0.26467  -0.20096
  Beta virt. eigenvalues --   -0.14770  -0.13170  -0.12075  -0.11970  -0.10052
  Beta virt. eigenvalues --   -0.08795  -0.06653  -0.05187  -0.04662  -0.04312

 Mulliken charges and spin densities:
               1          2
     1  C    0.133632   0.746118
     2  C    0.078665  -0.015658
     3  C   -0.066223   0.048816
     4  C    0.225579  -0.225987
     5  C    0.312391   1.441822
     6  H    0.315957   0.004889
 Sum of Mulliken charges =   1.00000   2.00000

 Dipole moment (field-independent basis, Debye):
    X=              1.7697    Y=             -0.0417    Z=              0.0000  Tot=              1.7702
 Quadrupole moment (field-independent basis, Debye-Ang):
   XX=            -16.3016   YY=            -13.5572   ZZ=            -25.0024
   XY=              7.5670   XZ=              0.0000   YZ=              0.0000

  Exact polarizability:  43.869  15.805  79.496   0.000  -0.000  27.196
 Approx polarizability:  72.001  37.006 167.743   0.000   0.000  38.575

                      1                      2                      3
                     A'                     A"                     A'
 Frequencies --    192.8672               201.9960               474.6238
 Red. masses --      7.3967                11.2036                 6.1877
 Frc consts  --      0.1621                 0.2693                 0.8213
 IR Inten    --      3.7815                 1.9745                10.0872

                      4                      5                      6
                     A"                     A'                     A"
 Frequencies --    539.5621               767.8621               892.5763
 Red. masses --      7.2560                 7.4878                 1.4017
 Frc consts  --      1.2446                 2.6012                 0.6580
 IR Inten    --      0.0635                 1.6244                25.3878

                      7                      8                      9
                     A'                     A'                     A'
 Frequencies --    955.0642              1083.3485              1387.1931
 Red. masses --      1.4042                 6.5427                 9.1231
 Frc consts  --      0.7546                 4.5242                10.3435
 IR Inten    --     37.8542                29.1391               132.5814

                     10                     11                     12
                     A'                     A'                     A'
 Frequencies --   1710.4473              2165.6386              3239.8060
 Red. masses --      8.5381                11.9015                 1.1194
 Frc consts  --     14.7174                32.8869                 6.9229
 IR Inten    --     60.7285               440.3098               103.5376

 - Thermochemistry -
 -------------------
 Temperature   298.150 Kelvin.  Pressure   1.00000 Atm.
 Atom     1 has atomic number  6 and mass  12.00000

 Molecular mass:    61.00783 amu.
 Principal axes and moments of inertia in atomic units:
                           1         2         3
     Eigenvalues --    48.38586 483.54392 531.92977
           X            0.45871   0.88859   0.00000
           Y            0.88859  -0.45871   0.00000
           Z           -0.00000  -0.00000   1.00000
 This molecule is an asymmetric top.
 Rotational symmetry number  1.
 Rotational temperatures (Kelvin)      1.79006     0.17912     0.16283
 Rotational constants (GHZ):          37.29894     3.73232     3.39282
 Zero-point vibrational energy      81411.8 (Joules/Mol)
                                   19.45788 (Kcal/Mol)
 Warning -- explicit consideration of   4 degrees of freedom as
           vibrations may cause significant error
 Vibrational temperatures:    277.49   290.63   682.88   776.31  1104.78
          (Kelvin)           1284.22  1374.12  1558.69  1995.86  2460.95
                             3115.87  4661.35

 Zero-point correction=                           0.031008 (Hartree/Particle)
 Thermal correction to Energy=                    0.035635
 Thermal correction to Enthalpy=                  0.036579
 Thermal correction to Gibbs Free Energy=         0.003010
 Sum of electronic and zero-point Energies=           -190.487203
 Sum of electronic and thermal Energies=              -190.482576
 Sum of electronic and thermal Enthalpies=            -190.481632
 Sum of electronic and thermal Free Energies=         -190.515201

                     E (Thermal)             CV                S
                      KCal/Mol        Cal/Mol-Kelvin    Cal/Mol-Kelvin
 Total                   22.361             14.209             70.651
 Electronic               0.000              0.000              2.183
 Translational            0.889              2.981             38.245
 Rotational               0.889              2.981             24.035
 Vibrational             20.584              8.247              6.188
 Vibration     1          0.635              1.850              2.200
 Vibration     2          0.639              1.837              2.115
 Vibration     3          0.831              1.306              0.725
 Vibration     4          0.895              1.163              0.566

 Normal termination of Gaussian 09 at Thu Jul 21 01:34:44 2016.
