 Gaussian 09, Revision E.01,
 Gaussian 09:  EM64L-G09RevE.01 30-Nov-2015

 ---------------------------------------------
 #p b3lyp/6-311++G(3df,2p) freq symmetry=Loose
 ---------------------------------------------

 ---------
 b3lyp opt
 ---------
 Symbolic Z-matrix:
 Charge =  1 Multiplicity = 3

                         Standard orientation:
 ---------------------------------------------------------------------
 Center     Atomic      Atomic             Coordinates (Angstroms)
 Number     Number       Type             X           Y           Z
 ---------------------------------------------------------------------
      1          6           0        1.008801    0.004063   -0.038489
      2          6           0       -0.098446   -0.919272   -0.487556
      3          6           0       -1.125138   -0.003145    0.002551
      4          6           0       -0.105974    0.963388   -0.419075
      5          6           0       -0.027349   -0.046323    0.954353
      6          1           0        2.088639    0.007731   -0.070702
 ---------------------------------------------------------------------

 SCF Done:  E(UB3LYP) =  -190.398283610     A.U. after   19 cycles

 The electronic state is 3-A.
 Alpha  occ. eigenvalues --  -10.57637 -10.57411 -10.57092 -10.56810 -10.55993
 Alpha  occ. eigenvalues --   -1.37278  -1.01881  -0.95021  -0.90521  -0.81299
 Alpha  occ. eigenvalues --   -0.70504  -0.69185  -0.65374  -0.60236  -0.58716
 Alpha  occ. eigenvalues --   -0.57107
 Alpha virt. eigenvalues --   -0.36530  -0.31308  -0.24426  -0.17241  -0.15797
 Alpha virt. eigenvalues --   -0.15320  -0.12707  -0.11312  -0.09462  -0.09196
 Alpha virt. eigenvalues --   -0.06961  -0.06875  -0.05948  -0.05782  -0.05567

  Beta  occ. eigenvalues --  -10.56569 -10.56243 -10.55951 -10.55836 -10.55807
  Beta  occ. eigenvalues --   -1.36033  -1.00302  -0.92964  -0.87765  -0.79443
  Beta  occ. eigenvalues --   -0.69483  -0.67452  -0.60176  -0.56137
  Beta virt. eigenvalues --   -0.45910  -0.42650  -0.33498  -0.28661  -0.21159
  Beta virt. eigenvalues --   -0.16412  -0.15429  -0.14865  -0.11844  -0.09552
  Beta virt. eigenvalues --   -0.08844  -0.08422  -0.06803  -0.06518  -0.05710

 Mulliken charges and spin densities:
               1          2
     1  C    0.902366   0.009933
     2  C   -0.346994   0.251015
     3  C    0.606634   0.795055
     4  C   -0.336236   0.247910
     5  C   -0.222198   0.675019
     6  H    0.396429   0.021067
 Sum of Mulliken charges =   1.00000   2.00000

 Dipole moment (field-independent basis, Debye):
    X=              1.3028    Y=             -0.0526    Z=              0.7578  Tot=              1.5081
 Quadrupole moment (field-independent basis, Debye-Ang):
   XX=            -17.5533   YY=            -24.8938   ZZ=            -24.5763
   XY=              0.0162   XZ=             -0.1640   YZ=             -0.0879

  Exact polarizability:  37.214  -0.223  43.638   0.238   0.851  36.247
 Approx polarizability:  63.098  -0.662  98.763   1.230   1.013  80.435

                      1                      2                      3
                      A                      A                      A
 Frequencies --    124.8137               435.3400               505.6171
 Red. masses --     11.5566                10.9259                10.5231
 Frc consts  --      0.1061                 1.2200                 1.5850
 IR Inten    --     27.5363                 2.2430                51.7428

                      4                      5                      6
                      A                      A                      A
 Frequencies --    632.0782               670.0969               738.6323
 Red. masses --     10.5106                 9.0882                10.4123
 Frc consts  --      2.4741                 2.4044                 3.3470
 IR Inten    --      8.6549                22.7721                 7.0935

                      7                      8                      9
                      A                      A                      A
 Frequencies --    908.3287              1016.6620              1057.1010
 Red. masses --      2.0235                 1.1682                 2.1589
 Frc consts  --      0.9836                 0.7114                 1.4214
 IR Inten    --     17.9778                 3.7685                10.4971

                     10                     11                     12
                      A                      A                      A
 Frequencies --   1312.0037              1364.7683              3247.6200
 Red. masses --      7.4632                10.4138                 1.1110
 Frc consts  --      7.5691                11.4282                 6.9036
 IR Inten    --     39.9589                 4.1104                91.1473

 - Thermochemistry -
 -------------------
 Temperature   298.150 Kelvin.  Pressure   1.00000 Atm.
 Atom     1 has atomic number  6 and mass  12.00000

 Molecular mass:    61.00783 amu.
 Principal axes and moments of inertia in atomic units:
                           1         2         3
     Eigenvalues --   132.89774 171.06082 190.32066
           X            0.99996   0.00152  -0.00926
           Y           -0.00152   1.00000  -0.00013
           Z            0.00926   0.00015   0.99996
 This molecule is an asymmetric top.
 Rotational symmetry number  1.
 Rotational temperatures (Kelvin)      0.65173     0.50633     0.45509
 Rotational constants (GHZ):          13.57992    10.55029     9.48263
 Zero-point vibrational energy      71854.1 (Joules/Mol)
                                   17.17353 (Kcal/Mol)
 Warning -- explicit consideration of   3 degrees of freedom as
           vibrations may cause significant error
 Vibrational temperatures:    179.58   626.36   727.47   909.42   964.12
          (Kelvin)           1062.73  1306.88  1462.75  1520.93  1887.68
                             1963.59  4672.59

 Zero-point correction=                           0.027368 (Hartree/Particle)
 Thermal correction to Energy=                    0.031887
 Thermal correction to Enthalpy=                  0.032831
 Thermal correction to Gibbs Free Energy=        -0.000082
 Sum of electronic and zero-point Energies=           -190.370916
 Sum of electronic and thermal Energies=              -190.366396
 Sum of electronic and thermal Enthalpies=            -190.365452
 Sum of electronic and thermal Free Energies=         -190.398366

                     E (Thermal)             CV                S
                      KCal/Mol        Cal/Mol-Kelvin    Cal/Mol-Kelvin
 Total                   20.009             14.558             69.272
 Electronic               0.000              0.000              2.183
 Translational            0.889              2.981             38.245
 Rotational               0.889              2.981             22.985
 Vibrational             18.232              8.597              5.858
 Vibration     1          0.610              1.928              3.024
 Vibration     2          0.796              1.393              0.841
 Vibration     3          0.861              1.238              0.644

 Normal termination of Gaussian 09 at Mon Jun 20 14:33:20 2016.
