 Gaussian 09, Revision E.01,
 Gaussian 09:  EM64L-G09RevE.01 30-Nov-2015

 ---------------------------------------------
 #p b3lyp/6-311++G(3df,2p) freq symmetry=Loose
 ---------------------------------------------

 ---------
 b3lyp opt
 ---------
 Symbolic Z-matrix:
 Charge =  0 Multiplicity = 4

                         Standard orientation:
 ---------------------------------------------------------------------
 Center     Atomic      Atomic             Coordinates (Angstroms)
 Number     Number       Type             X           Y           Z
 ---------------------------------------------------------------------
      1          1           0        0.341087   -3.209623   -0.000000
      2          6           0       -0.032219   -2.210799   -0.000000
      3          6           0        0.039418   -0.965551   -0.000000
      4          6           0        0.000391    0.339580    0.000000
      5          6           0       -0.032219    1.685854    0.657260
      6          6           0       -0.032219    1.685854   -0.657260
 ---------------------------------------------------------------------

 SCF Done:  E(UB3LYP) =  -190.805705735     A.U. after   19 cycles

 The electronic state is 4-A".
 Alpha  occ. eigenvalues --  -10.28625 -10.28526 -10.26297 -10.20852 -10.20333
 Alpha  occ. eigenvalues --   -0.95453  -0.80084  -0.69658  -0.53833  -0.53195
 Alpha  occ. eigenvalues --   -0.49142  -0.43360  -0.37487  -0.35557  -0.33354
 Alpha  occ. eigenvalues --   -0.26329  -0.19586
 Alpha virt. eigenvalues --   -0.05160  -0.01643   0.00164   0.02642   0.03613
 Alpha virt. eigenvalues --    0.04102   0.05095   0.05250   0.07860   0.08036
 Alpha virt. eigenvalues --    0.09044   0.09544   0.10566   0.11332   0.11338

  Beta  occ. eigenvalues --  -10.27063 -10.26981 -10.25037 -10.20781 -10.19529
  Beta  occ. eigenvalues --   -0.92121  -0.78659  -0.66460  -0.52392  -0.46318
  Beta  occ. eigenvalues --   -0.45578  -0.39842  -0.31214  -0.30163
  Beta virt. eigenvalues --   -0.21451  -0.14713  -0.08670  -0.01858   0.00355
  Beta virt. eigenvalues --    0.00679   0.03583   0.04217   0.04546   0.05373
  Beta virt. eigenvalues --    0.05883   0.08653   0.08881   0.09729   0.10223

 Mulliken charges and spin densities:
               1          2
     1  H    0.257976  -0.008605
     2  C   -0.095142   0.841499
     3  C    0.041012  -0.278082
     4  C   -0.058712   0.552699
     5  C   -0.072567   0.946245
     6  C   -0.072567   0.946245
 Sum of Mulliken charges =  -0.00000   3.00000

 Dipole moment (field-independent basis, Debye):
    X=              0.4224    Y=             -0.4096    Z=              0.0000  Tot=              0.5884
 Quadrupole moment (field-independent basis, Debye-Ang):
   XX=            -29.6821   YY=            -24.8392   ZZ=            -28.7595
   XY=             -1.5535   XZ=              0.0000   YZ=              0.0000

  Exact polarizability:  38.372   0.804 113.573   0.000  -0.000  49.478
 Approx polarizability:  52.202   3.198 207.366   0.000  -0.000  91.570

                      1                      2                      3
                     A'                     A"                     A'
 Frequencies --    163.3516               190.4258               337.8394
 Red. masses --      8.0191                 5.8852                 1.7013
 Frc consts  --      0.1261                 0.1257                 0.1144
 IR Inten    --      3.7487                 4.5891                90.4397

                      4                      5                      6
                     A'                     A"                     A"
 Frequencies --    364.3943               431.6785               537.1549
 Red. masses --      2.7847                10.4163                 9.1404
 Frc consts  --      0.2179                 1.1436                 1.5539
 IR Inten    --     14.7813                 5.8285                 4.8495

                      7                      8                      9
                     A"                     A'                     A'
 Frequencies --    645.6689               693.9767              1390.9603
 Red. masses --      1.2774                 9.5242                 9.4844
 Frc consts  --      0.3138                 2.7025                10.8116
 IR Inten    --     27.7491                 1.1237                21.5602

                     10                     11                     12
                     A'                     A'                     A'
 Frequencies --   1630.5124              1862.3760              3384.5538
 Red. masses --     11.2300                 8.0396                 1.1196
 Frc consts  --     17.5904                16.4293                 7.5563
 IR Inten    --     89.7064               109.1550                29.9630

 - Thermochemistry -
 -------------------
 Temperature   298.150 Kelvin.  Pressure   1.00000 Atm.
 Atom     1 has atomic number  1 and mass   1.00783

 Molecular mass:    61.00783 amu.
 Principal axes and moments of inertia in atomic units:
                           1         2         3
     Eigenvalues --    37.54150 535.01969 571.52620
           X           -0.01331   0.00000   0.99991
           Y            0.99991   0.00000   0.01331
           Z           -0.00000   1.00000   0.00000
 This molecule is an asymmetric top.
 Rotational symmetry number  1.
 Rotational temperatures (Kelvin)      2.30715     0.16189     0.15155
 Rotational constants (GHZ):          48.07324     3.37322     3.15776
 Zero-point vibrational energy      69580.1 (Joules/Mol)
                                   16.63005 (Kcal/Mol)
 Warning -- explicit consideration of   6 degrees of freedom as
           vibrations may cause significant error
 Vibrational temperatures:    235.03   273.98   486.07   524.28   621.09
          (Kelvin)            772.85   928.97   998.48  2001.28  2345.94
                             2679.54  4869.61

 Zero-point correction=                           0.026502 (Hartree/Particle)
 Thermal correction to Energy=                    0.031992
 Thermal correction to Enthalpy=                  0.032936
 Thermal correction to Gibbs Free Energy=        -0.002298
 Sum of electronic and zero-point Energies=           -190.779204
 Sum of electronic and thermal Energies=              -190.773714
 Sum of electronic and thermal Enthalpies=            -190.772769
 Sum of electronic and thermal Free Energies=         -190.808004

                     E (Thermal)             CV                S
                      KCal/Mol        Cal/Mol-Kelvin    Cal/Mol-Kelvin
 Total                   20.075             17.371             74.158
 Electronic               0.000              0.000              2.755
 Translational            0.889              2.981             38.245
 Rotational               0.889              2.981             23.955
 Vibrational             18.298             11.409              9.203
 Vibration     1          0.623              1.887              2.511
 Vibration     2          0.634              1.853              2.224
 Vibration     3          0.718              1.600              1.222
 Vibration     4          0.738              1.546              1.103
 Vibration     5          0.793              1.401              0.853
 Vibration     6          0.892              1.168              0.571

 Optimization completed.
    -- Stationary point found.
 Normal termination of Gaussian 09 at Mon Jun 20 14:16:00 2016.
