 Gaussian 09, Revision E.01,
 Gaussian 09:  EM64L-G09RevE.01 30-Nov-2015

 ---------------------------------------------
 #p b3lyp/6-311++G(3df,2p) freq symmetry=Loose
 ---------------------------------------------

 ---------
 b3lyp opt
 ---------
 Symbolic Z-matrix:
 Charge =  3 Multiplicity = 3

                         Standard orientation:
 ---------------------------------------------------------------------
 Center     Atomic      Atomic             Coordinates (Angstroms)
 Number     Number       Type             X           Y           Z
 ---------------------------------------------------------------------
      1          6           0        1.023020    1.834437   -0.000000
      2          6           0       -0.194215    0.744697   -0.000000
      3          6           0       -0.194215   -0.556694    0.797519
      4          6           0       -0.246569   -1.688716    0.000000
      5          6           0       -0.194215   -0.556694   -0.797519
      6          1           0       -1.162848    1.337821    0.000000
 ---------------------------------------------------------------------

 SCF Done:  E(UB3LYP) =  -188.876418128     A.U. after   24 cycles

 The electronic state is 3-A'.
 Alpha  occ. eigenvalues --  -11.20141 -11.14590 -11.14574 -11.10932 -11.06570
 Alpha  occ. eigenvalues --   -1.79914  -1.55811  -1.41773  -1.37212  -1.27501
 Alpha  occ. eigenvalues --   -1.22019  -1.18895  -1.16070  -1.10064  -1.08696
 Alpha virt. eigenvalues --   -0.93323  -0.90228  -0.88022  -0.82915  -0.80199
 Alpha virt. eigenvalues --   -0.62590  -0.58600  -0.54299  -0.52111  -0.49004
 Alpha virt. eigenvalues --   -0.48695  -0.46861  -0.44229  -0.42472  -0.41289

  Beta  occ. eigenvalues --  -11.20113 -11.13308 -11.13301 -11.08658 -11.06539
  Beta  occ. eigenvalues --   -1.78141  -1.54980  -1.40778  -1.32336  -1.26355
  Beta  occ. eigenvalues --   -1.20654  -1.16006  -1.08430
  Beta virt. eigenvalues --   -0.99899  -0.92376  -0.90838  -0.88944  -0.85569
  Beta virt. eigenvalues --   -0.76912  -0.76394  -0.61647  -0.57588  -0.53484
  Beta virt. eigenvalues --   -0.50300  -0.48233  -0.45862  -0.44903  -0.43662

 Mulliken charges and spin densities:
               1          2
     1  C    0.677098   0.066235
     2  C    0.193004  -0.238061
     3  C    0.695962   0.569822
     4  C    0.377757   1.026448
     5  C    0.695962   0.569822
     6  H    0.360217   0.005735
 Sum of Mulliken charges =   3.00000   2.00000

 Dipole moment (field-independent basis, Debye):
    X=              0.6200    Y=              2.2372    Z=             -0.0000  Tot=              2.3215
 Quadrupole moment (field-independent basis, Debye-Ang):
   XX=            -13.7437   YY=              8.3833   ZZ=            -14.5006
   XY=              6.6730   XZ=              0.0000   YZ=              0.0000

  Exact polarizability:  33.238  12.327  54.672  -0.000  -0.000  30.291
 Approx polarizability:  49.929  20.655 101.337  -0.000   0.000  73.596

                      1                      2                      3
                     A'                     A"                     A'
 Frequencies --    258.7233               302.6096               439.8846
 Red. masses --     10.6268                11.9628                10.6968
 Frc consts  --      0.4191                 0.6454                 1.2195
 IR Inten    --      2.6571                 0.0128                29.0268

                      4                      5                      6
                     A"                     A'                     A'
 Frequencies --    457.9751               597.6769               849.5247
 Red. masses --      9.0116                 6.4076                 9.4435
 Frc consts  --      1.1136                 1.3486                 4.0154
 IR Inten    --      0.3250               119.5600                 8.9821

                      7                      8                      9
                     A"                     A'                     A"
 Frequencies --    894.6042              1014.8680              1025.8710
 Red. masses --      7.1818                 5.8932                 1.2657
 Frc consts  --      3.3865                 3.5762                 0.7848
 IR Inten    --      2.6265                67.3635                28.5062

                     10                     11                     12
                     A'                     A'                     A'
 Frequencies --   1175.7125              1534.1570              2646.8542
 Red. masses --      1.2562                11.5113                 1.0818
 Frc consts  --      1.0231                15.9630                 4.4653
 IR Inten    --     97.1227                70.6602               400.0908

 - Thermochemistry -
 -------------------
 Temperature   298.150 Kelvin.  Pressure   1.00000 Atm.
 Atom     1 has atomic number  6 and mass  12.00000

 Molecular mass:    61.00783 amu.
 Principal axes and moments of inertia in atomic units:
                           1         2         3
     Eigenvalues --    80.67823 380.16809 408.51359
           X            0.30713   0.00000   0.95167
           Y            0.95167   0.00000  -0.30713
           Z            0.00000   1.00000   0.00000
 This molecule is an asymmetric top.
 Rotational symmetry number  1.
 Rotational temperatures (Kelvin)      1.07357     0.22783     0.21202
 Rotational constants (GHZ):          22.36962     4.74722     4.41782
 Zero-point vibrational energy      66981.7 (Joules/Mol)
                                   16.00900 (Kcal/Mol)
 Warning -- explicit consideration of   5 degrees of freedom as
           vibrations may cause significant error
 Vibrational temperatures:    372.24   435.39   632.90   658.92   859.92
          (Kelvin)           1222.28  1287.13  1460.17  1476.00  1691.59
                             2207.31  3808.23

 Zero-point correction=                           0.025512 (Hartree/Particle)
 Thermal correction to Energy=                    0.030138
 Thermal correction to Enthalpy=                  0.031082
 Thermal correction to Gibbs Free Energy=        -0.002242
 Sum of electronic and zero-point Energies=           -188.850906
 Sum of electronic and thermal Energies=              -188.846280
 Sum of electronic and thermal Enthalpies=            -188.845336
 Sum of electronic and thermal Free Energies=         -188.878660

                     E (Thermal)             CV                S
                      KCal/Mol        Cal/Mol-Kelvin    Cal/Mol-Kelvin
 Total                   18.912             15.221             70.137
 Electronic               0.000              0.000              2.183
 Translational            0.889              2.981             38.245
 Rotational               0.889              2.981             24.042
 Vibrational             17.134              9.260              5.667
 Vibration     1          0.668              1.748              1.670
 Vibration     2          0.694              1.669              1.402
 Vibration     3          0.800              1.383              0.827
 Vibration     4          0.816              1.343              0.772
 Vibration     5          0.956              1.037              0.454

 Optimization completed.
    -- Stationary point found.
 Normal termination of Gaussian 09 at Mon Jun 20 15:09:01 2016.
