 Gaussian 09, Revision E.01,
 Gaussian 09:  EM64L-G09RevE.01 30-Nov-2015

 ---------------------------------------------
 #p b3lyp/6-311++G(3df,2p) freq symmetry=Loose
 ---------------------------------------------

 ---------
 b3lyp opt
 ---------
 Symbolic Z-matrix:
 Charge =  2 Multiplicity = 2

                         Standard orientation:
 ---------------------------------------------------------------------
 Center     Atomic      Atomic             Coordinates (Angstroms)
 Number     Number       Type             X           Y           Z
 ---------------------------------------------------------------------
      1          1           0        0.000000    0.000000   -3.509295
      2          6           0        0.000000    0.000000   -2.417072
      3          6           0        0.000000    0.000000   -1.171569
      4          6           0        0.000000    0.000000    0.114563
      5          6           0        0.000000    0.000000    1.406242
      6          6           0        0.000000    0.000000    2.652719
 ---------------------------------------------------------------------

 SCF Done:  E(UB3LYP) =  -189.988516160     A.U. after   22 cycles

 The electronic state is 2-SG.
 Alpha  occ. eigenvalues --  -10.82883 -10.79835 -10.76869 -10.71810 -10.70695
 Alpha  occ. eigenvalues --   -1.34160  -1.29577  -1.22408  -1.13652  -1.00508
 Alpha  occ. eigenvalues --   -0.90571  -0.87758  -0.87758  -0.80038  -0.80038
 Alpha virt. eigenvalues --   -0.64484  -0.64484  -0.46568  -0.46568  -0.32229
 Alpha virt. eigenvalues --   -0.30793  -0.30793  -0.30754  -0.27173  -0.24657
 Alpha virt. eigenvalues --   -0.24657  -0.24537  -0.21022  -0.20129  -0.20129

  Beta  occ. eigenvalues --  -10.79858 -10.79781 -10.77481 -10.71736 -10.70649
  Beta  occ. eigenvalues --   -1.34036  -1.28805  -1.21478  -1.13207  -1.01041
  Beta  occ. eigenvalues --   -0.87732  -0.87732  -0.79101  -0.79101
  Beta virt. eigenvalues --   -0.65930  -0.63122  -0.63122  -0.45065  -0.45065
  Beta virt. eigenvalues --   -0.32213  -0.31314  -0.29895  -0.29895  -0.26983
  Beta virt. eigenvalues --   -0.24647  -0.24647  -0.24567  -0.20557  -0.20106

 Mulliken charges and spin densities:
               1          2
     1  H    0.446428   0.010027
     2  C    0.551395  -0.264062
     3  C    0.423938  -0.157634
     4  C   -0.939633  -0.044331
     5  C    1.022894   0.003257
     6  C    0.494978   1.452744
 Sum of Mulliken charges =   2.00000   1.00000

 Dipole moment (field-independent basis, Debye):
    X=              0.0000    Y=              0.0000    Z=             -1.0625  Tot=              1.0625
 Quadrupole moment (field-independent basis, Debye-Ang):
   XX=            -22.7201   YY=            -22.7201   ZZ=             35.1596
   XY=              0.0000   XZ=              0.0000   YZ=              0.0000

  Exact polarizability:  22.414   0.000  22.414  -0.000   0.000 116.398
 Approx polarizability:  30.387  -0.000  30.387  -0.000  -0.000 388.644

                      1                      2                      3
                     PI                     PI                     PI
 Frequencies --    146.1634               146.1634               302.7469
 Red. masses --      5.5600                 5.5600                 6.6860
 Frc consts  --      0.0700                 0.0700                 0.3611
 IR Inten    --     17.7501                17.7501                 1.3545

                      4                      5                      6
                     PI                     PI                     PI
 Frequencies --    302.7469               652.1137               652.1137
 Red. masses --      6.6860                 7.7519                 7.7519
 Frc consts  --      0.3611                 1.9423                 1.9423
 IR Inten    --      1.3545                15.1082                15.1082

                      7                      8                      9
                     SG                     PI                     PI
 Frequencies --    799.0448               823.8662               823.8662
 Red. masses --      8.9001                 1.4034                 1.4034
 Frc consts  --      3.3480                 0.5612                 0.5612
 IR Inten    --      0.4105                12.6182                12.6182

                     10                     11                     12
                     SG                     SG                     SG
 Frequencies --   1565.3995              2060.4074              2243.9443
 Red. masses --      8.5293                 8.7186                 9.0119
 Frc consts  --     12.3144                21.8074                26.7356
 IR Inten    --    123.5920                 0.7242              2157.2960

                     13
                     SG
 Frequencies --   3182.7534
 Red. masses --      1.1692
 Frc consts  --      6.9782
 IR Inten    --    270.4683

 - Thermochemistry -
 -------------------
 Temperature   298.150 Kelvin.  Pressure   1.00000 Atm.
 Atom     1 has atomic number  1 and mass   1.00783

 Molecular mass:    61.00783 amu.
 Principal axes and moments of inertia in atomic units:
                           1         2         3
     Eigenvalues --     0.00000 739.64340 739.64340
           X            0.00000  -0.00000   1.00000
           Y            0.00000   1.00000   0.00000
           Z            1.00000   0.00000   0.00000
 This molecule is a prolate symmetric top.
 Rotational symmetry number  1.
 Warning -- assumption of classical behavior for rotation
           may cause significant error
 Rotational temperature (Kelvin)      0.11710
 Rotational constant (GHZ):           2.440015
 Zero-point vibrational energy      81952.2 (Joules/Mol)
                                   19.58703 (Kcal/Mol)
 Warning -- explicit consideration of   4 degrees of freedom as
           vibrations may cause significant error
 Vibrational temperatures:    210.30   210.30   435.58   435.58   938.24
          (Kelvin)            938.24  1149.65  1185.36  1185.36  2252.26
                             2964.46  3228.53  4579.27

 Zero-point correction=                           0.031214 (Hartree/Particle)
 Thermal correction to Energy=                    0.036201
 Thermal correction to Enthalpy=                  0.037146
 Thermal correction to Gibbs Free Energy=         0.005420
 Sum of electronic and zero-point Energies=           -189.957302
 Sum of electronic and thermal Energies=              -189.952315
 Sum of electronic and thermal Enthalpies=            -189.951370
 Sum of electronic and thermal Free Energies=         -189.983096

                     E (Thermal)             CV                S
                      KCal/Mol        Cal/Mol-Kelvin    Cal/Mol-Kelvin
 Total                   22.717             15.916             66.773
 Electronic               0.000              0.000              1.377
 Translational            0.889              2.981             38.245
 Rotational               0.592              1.987             17.571
 Vibrational             21.236             10.948              9.579
 Vibration     1          0.617              1.907              2.722
 Vibration     2          0.617              1.907              2.722
 Vibration     3          0.694              1.668              1.402
 Vibration     4          0.694              1.668              1.402

 Optimization completed.
    -- Stationary point found.
 Normal termination of Gaussian 09 at Mon Jun 20 14:39:56 2016.
