 Gaussian 09, Revision E.01,
 Gaussian 09:  EM64L-G09RevE.01 30-Nov-2015

 ---------------------------------------------
 #p b3lyp/6-311++G(3df,2p) freq symmetry=Loose
 ---------------------------------------------

 ---------
 b3lyp opt
 ---------
 Symbolic Z-matrix:
 Charge =  3 Multiplicity = 1

                         Standard orientation:
 ---------------------------------------------------------------------
 Center     Atomic      Atomic             Coordinates (Angstroms)
 Number     Number       Type             X           Y           Z
 ---------------------------------------------------------------------
      1          6           0        0.000000    0.000000    2.356104
      2          6           0        0.000000    0.000000    0.638778
      3          6           0        0.000000    0.869674   -0.459499
      4          6           0        0.000000   -0.000000   -1.618702
      5          6           0       -0.000000   -0.869674   -0.459499
      6          1           0        0.000000   -0.000000   -2.743088
 ---------------------------------------------------------------------

 SCF Done:  E(RB3LYP) =  -188.980214716     A.U. after   13 cycles

 The electronic state is 1-A1.
 Alpha  occ. eigenvalues --  -11.24945 -11.09274 -11.08821 -11.06958 -11.06952
 Alpha  occ. eigenvalues --   -1.76393  -1.51529  -1.41865  -1.35207  -1.24097
 Alpha  occ. eigenvalues --   -1.21305  -1.18057  -1.13091  -1.04034
 Alpha virt. eigenvalues --   -0.96893  -0.93723  -0.88099  -0.84282  -0.81226
 Alpha virt. eigenvalues --   -0.73054  -0.67786  -0.56366  -0.52395  -0.51363
 Alpha virt. eigenvalues --   -0.48138  -0.45100  -0.44458  -0.42200  -0.40332

 Mulliken charges:
               1
     1  C    0.735496
     2  C   -0.533440
     3  C    1.438799
     4  C   -0.531516
     5  C    1.438799
     6  H    0.451863
 Sum of Mulliken charges =   3.00000

 Dipole moment (field-independent basis, Debye):
    X=             -0.0000    Y=              0.0000    Z=              2.0844  Tot=              2.0844
 Quadrupole moment (field-independent basis, Debye-Ang):
   XX=            -19.3000   YY=            -17.5181   ZZ=             26.1727
   XY=              0.0000   XZ=              0.0000   YZ=              0.0000

  Exact polarizability:  20.986  -0.000  35.988   0.000  -0.000  56.536
 Approx polarizability:  34.417   0.000 106.627   0.000   0.000  98.666

                      1                      2                      3
                     B1                     B2                     B1
 Frequencies --    217.5032               251.8152               417.0858
 Red. masses --      4.2820                 8.1637                 4.3286
 Frc consts  --      0.1194                 0.3050                 0.4437
 IR Inten    --     12.6500                 6.8063                 6.5922

                      4                      5                      6
                     A1                     B2                     A1
 Frequencies --    441.3932               674.3365               748.4120
 Red. masses --     11.2443                 9.4531                10.9450
 Frc consts  --      1.2907                 2.5327                 3.6120
 IR Inten    --    301.5586                35.6284                76.4498

                      7                      8                      9
                     B1                     B2                     A1
 Frequencies --    884.7370              1002.0608              1203.1153
 Red. masses --      1.6190                 1.1861                 6.3390
 Frc consts  --      0.7466                 0.7017                 5.4061
 IR Inten    --     13.1124                28.0174               407.8076

                     10                     11                     12
                     B2                     A1                     A1
 Frequencies --   1229.0924              1440.8009              2853.5985
 Red. masses --      9.7509                11.4313                 1.1299
 Frc consts  --      8.6789                13.9814                 5.4210
 IR Inten    --      3.6954                20.8671               436.6223

 - Thermochemistry -
 -------------------
 Temperature   298.150 Kelvin.  Pressure   1.00000 Atm.
 Atom     1 has atomic number  6 and mass  12.00000

 Molecular mass:    61.00783 amu.
 Principal axes and moments of inertia in atomic units:
                           1         2         3
     Eigenvalues --    64.82193 412.39676 477.21869
           X            0.00000   0.00000   1.00000
           Y            0.00000   1.00000  -0.00000
           Z            1.00000  -0.00000  -0.00000
 This molecule is an asymmetric top.
 Rotational symmetry number  2.
 Rotational temperatures (Kelvin)      1.33618     0.21003     0.18150
 Rotational constants (GHZ):          27.84152     4.37623     3.78179
 Zero-point vibrational energy      67971.5 (Joules/Mol)
                                   16.24558 (Kcal/Mol)
 Warning -- explicit consideration of   4 degrees of freedom as
           vibrations may cause significant error
 Vibrational temperatures:    312.94   362.31   600.09   635.07   970.22
          (Kelvin)           1076.80  1272.94  1441.74  1731.01  1768.39
                             2072.99  4105.69

 Zero-point correction=                           0.025889 (Hartree/Particle)
 Thermal correction to Energy=                    0.030653
 Thermal correction to Enthalpy=                  0.031597
 Thermal correction to Gibbs Free Energy=        -0.000367
 Sum of electronic and zero-point Energies=           -188.954326
 Sum of electronic and thermal Energies=              -188.949562
 Sum of electronic and thermal Enthalpies=            -188.948617
 Sum of electronic and thermal Free Energies=         -188.980582

                     E (Thermal)             CV                S
                      KCal/Mol        Cal/Mol-Kelvin    Cal/Mol-Kelvin
 Total                   19.235             15.345             67.275
 Electronic               0.000              0.000              0.000
 Translational            0.889              2.981             38.245
 Rotational               0.889              2.981             22.682
 Vibrational             17.458              9.384              6.347
 Vibration     1          0.646              1.814              1.980
 Vibration     2          0.664              1.760              1.718
 Vibration     3          0.780              1.433              0.902
 Vibration     4          0.801              1.380              0.822

 Optimization completed.
    -- Stationary point found.
 Normal termination of Gaussian 09 at Mon Jun 20 14:56:39 2016.
