 Gaussian 09, Revision E.01,
 Gaussian 09:  EM64L-G09RevE.01 30-Nov-2015

 -----------------------------------------------------
 #p b3lyp/6-311++G(3df,2p) opt freq symmetry=veryLoose
 -----------------------------------------------------

 ---------
 b3lyp opt
 ---------
 Symbolic Z-matrix:
 Charge =  0 Multiplicity = 2

 SCF Done:  E(UB3LYP) =  -190.772833391     A.U. after   13 cycles
 SCF Done:  E(UB3LYP) =  -190.772836871     A.U. after    9 cycles
 Optimization completed.
    -- Stationary point found.
 Normal termination of Gaussian 09 at Wed Jul  6 11:28:50 2016.

 ----------------------------------------------------------------------
 #P Geom=AllCheck Guess=TCheck SCRF=Check GenChk UB3LYP/6-311++G(3df,2p
 ) Freq
 ----------------------------------------------------------------------

 Structure from the checkpoint file:  "/scratch/sergio/HC5.q0.m2-15.bis.com-2127033/Gau-19546.chk"
 ---------
 b3lyp opt
 ---------
 Charge =  0 Multiplicity = 2

                         Standard orientation:
 ---------------------------------------------------------------------
 Center     Atomic      Atomic             Coordinates (Angstroms)
 Number     Number       Type             X           Y           Z
 ---------------------------------------------------------------------
      1          6           0        0.000000    0.000000    1.090791
      2          6           0        0.000000    1.051960    0.073973
      3          6           0        0.911024   -0.525980    0.073973
      4          6           0       -0.911024   -0.525980    0.073973
      5          6           0        0.000000    0.000000   -0.971632
      6          1           0        0.000000    0.000000   -2.046469
 ---------------------------------------------------------------------

 SCF Done:  E(UB3LYP) =  -190.772836871     A.U. after    1 cycles

 The electronic state is 2-A1.
 Alpha  occ. eigenvalues --  -10.30199 -10.28993 -10.27068 -10.27062 -10.27062
 Alpha  occ. eigenvalues --   -1.08110  -0.74005  -0.65177  -0.65177  -0.56060
 Alpha  occ. eigenvalues --   -0.42902  -0.42902  -0.38118  -0.32724  -0.29575
 Alpha  occ. eigenvalues --   -0.29575
 Alpha virt. eigenvalues --   -0.08126  -0.08126  -0.00232   0.01041   0.02720
 Alpha virt. eigenvalues --    0.02801   0.02801   0.06779   0.07560   0.07560
 Alpha virt. eigenvalues --    0.08990   0.08990   0.09399   0.11296   0.11296

  Beta  occ. eigenvalues --  -10.28746 -10.28506 -10.26953 -10.26947 -10.26947
  Beta  occ. eigenvalues --   -1.07386  -0.72591  -0.64730  -0.64730  -0.53888
  Beta  occ. eigenvalues --   -0.42083  -0.42083  -0.35415  -0.29106  -0.29106
  Beta virt. eigenvalues --   -0.17896  -0.07552  -0.07552  -0.00146   0.01130
  Beta virt. eigenvalues --    0.03046   0.03046   0.03250   0.06950   0.07599
  Beta virt. eigenvalues --    0.07599   0.09027   0.09027   0.09499   0.11360

 Mulliken charges and spin densities:
               1          2
     1  C    0.365663   0.816822
     2  C   -0.491131   0.036970
     3  C   -0.491131   0.036970
     4  C   -0.491131   0.036970
     5  C    0.784111   0.043181
     6  H    0.323620   0.029087
 Sum of Mulliken charges =  -0.00000   1.00000

 Dipole moment (field-independent basis, Debye):
    X=              0.0000    Y=             -0.0000    Z=             -1.3052  Tot=              1.3052
 Quadrupole moment (field-independent basis, Debye-Ang):
   XX=            -32.3368   YY=            -32.3368   ZZ=            -24.0058
   XY=             -0.0000   XZ=              0.0000   YZ=             -0.0000

  Exact polarizability:  50.249  -0.000  50.248   0.000  -0.000  43.874
 Approx polarizability: 111.720  -0.000 111.720   0.000  -0.000  72.357

                      1                      2                      3
                      E                      E                      E
 Frequencies --    508.3370               508.3397               677.9336
 Red. masses --     11.7482                11.7483                10.4159
 Frc consts  --      1.7887                 1.7887                 2.8205
 IR Inten    --     17.0563                17.0581                11.8850

                      4                      5                      6
                      E                     A1                      E
 Frequencies --    677.9393               741.0461               845.9116
 Red. masses --     10.4159                11.0361                 3.7283
 Frc consts  --      2.8205                 3.5707                 1.5718
 IR Inten    --     11.8833                 4.3452                20.7063

                      7                      8                      9
                      E                      E                      E
 Frequencies --    845.9135              1054.5685              1054.5699
 Red. masses --      3.7281                 1.4318                 1.4318
 Frc consts  --      1.5718                 0.9382                 0.9382
 IR Inten    --     20.7089                 2.2201                 2.2190

                     10                     11                     12
                     A1                     A1                     A1
 Frequencies --   1256.7311              1352.2190              3279.0169
 Red. masses --      7.7331                 9.8000                 1.1047
 Frc consts  --      7.1960                10.5577                 6.9979
 IR Inten    --     24.9626                 0.8139                 6.6558

 - Thermochemistry -
 -------------------
 Temperature   298.150 Kelvin.  Pressure   1.00000 Atm.
 Atom     1 has atomic number  6 and mass  12.00000

 Molecular mass:    61.00783 amu.
 Principal axes and moments of inertia in atomic units:
                           1         2         3
     Eigenvalues --   142.26513 178.11079 178.11079
           X            0.00000   0.82265   0.56855
           Y            0.00000  -0.56855   0.82265
           Z            1.00000  -0.00000  -0.00000
 This molecule is a prolate symmetric top.
 Rotational symmetry number  3.
 Rotational temperatures (Kelvin)      0.60882     0.48629     0.48629
 Rotational constants (GHZ):          12.68576    10.13269    10.13269
 Zero-point vibrational energy      76576.1 (Joules/Mol)
                                   18.30213 (Kcal/Mol)
 Warning -- explicit consideration of   2 degrees of freedom as
           vibrations may cause significant error
 Vibrational temperatures:    731.38   731.39   975.39   975.40  1066.20
          (Kelvin)           1217.08  1217.08  1517.29  1517.29  1808.15
                             1945.54  4717.77

 Zero-point correction=                           0.029166 (Hartree/Particle)
 Thermal correction to Energy=                    0.032990
 Thermal correction to Enthalpy=                  0.033934
 Thermal correction to Gibbs Free Energy=         0.003896
 Sum of electronic and zero-point Energies=           -190.743671
 Sum of electronic and thermal Energies=              -190.739847
 Sum of electronic and thermal Enthalpies=            -190.738903
 Sum of electronic and thermal Free Energies=         -190.768941

                     E (Thermal)             CV                S
                      KCal/Mol        Cal/Mol-Kelvin    Cal/Mol-Kelvin
 Total                   20.702             13.015             63.220
 Electronic               0.000              0.000              1.377
 Translational            0.889              2.981             38.245
 Rotational               0.889              2.981             20.844
 Vibrational             18.924              7.053              2.754
 Vibration     1          0.864              1.232              0.638
 Vibration     2          0.864              1.232              0.638

 Optimization completed.
    -- Stationary point found.
 Normal termination of Gaussian 09 at Wed Jul  6 11:37:48 2016.
