 Gaussian 09, Revision E.01,
 Gaussian 09:  EM64L-G09RevE.01 30-Nov-2015

 -------------------------------------------------
 #p b3lyp/6-311++G(3df,2p) opt freq symmetry=Loose
 -------------------------------------------------

 ---------
 b3lyp opt
 ---------
 Symbolic Z-matrix:
 Charge =  0 Multiplicity = 2

 SCF Done:  E(UB3LYP) =  -190.772139160     A.U. after   13 cycles
 SCF Done:  E(UB3LYP) =  -190.772183732     A.U. after   10 cycles
 Optimization completed.
    -- Stationary point found.
 Normal termination of Gaussian 09 at Tue Jul  5 15:57:02 2016.

 ----------------------------------------------------------------------
 #P Geom=AllCheck Guess=TCheck SCRF=Check GenChk UB3LYP/6-311++G(3df,2p
 ) Freq
 ----------------------------------------------------------------------

 Structure from the checkpoint file:  "/scratch/sergio/HC5.q0.m2-14.bis.com-2105443/Gau-17081.chk"
 ---------
 b3lyp opt
 ---------
 Charge =  0 Multiplicity = 2

                         Standard orientation:
 ---------------------------------------------------------------------
 Center     Atomic      Atomic             Coordinates (Angstroms)
 Number     Number       Type             X           Y           Z
 ---------------------------------------------------------------------
      1          6           0       -0.000000    1.119568   -0.157302
      2          6           0       -0.000000   -1.119568   -0.157302
      3          6           0        0.937849   -0.000000   -0.441174
      4          6           0       -0.937849    0.000000   -0.441174
      5          6           0        0.000000    0.000000    0.872662
      6          1           0        0.000000   -0.000000    1.945745
 ---------------------------------------------------------------------

 SCF Done:  E(UB3LYP) =  -190.772183732     A.U. after    1 cycles

 The electronic state is 2-B2.
 Alpha  occ. eigenvalues --  -10.28996 -10.28364 -10.28358 -10.28084 -10.28078
 Alpha  occ. eigenvalues --   -1.09429  -0.74055  -0.67072  -0.66735  -0.50053
 Alpha  occ. eigenvalues --   -0.43807  -0.40907  -0.38786  -0.32464  -0.31815
 Alpha  occ. eigenvalues --   -0.29834
 Alpha virt. eigenvalues --   -0.11094  -0.03220  -0.00318   0.02454   0.02689
 Alpha virt. eigenvalues --    0.02902   0.03051   0.06216   0.07780   0.08006
 Alpha virt. eigenvalues --    0.08096   0.08173   0.09342   0.09867   0.11712

  Beta  occ. eigenvalues --  -10.28998 -10.28310 -10.28307 -10.27216 -10.27215
  Beta  occ. eigenvalues --   -1.08580  -0.72382  -0.66769  -0.66600  -0.49563
  Beta  occ. eigenvalues --   -0.42997  -0.38095  -0.36070  -0.31823  -0.30266
  Beta virt. eigenvalues --   -0.17844  -0.10742  -0.02896  -0.00062   0.02540
  Beta virt. eigenvalues --    0.02944   0.03156   0.03512   0.06406   0.07869
  Beta virt. eigenvalues --    0.08081   0.08107   0.08265   0.09747   0.09918

 Mulliken charges and spin densities:
               1          2
     1  C   -0.135111   0.499481
     2  C   -0.135111   0.499481
     3  C   -0.271889   0.013867
     4  C   -0.271889   0.013867
     5  C    0.473132  -0.024909
     6  H    0.340869  -0.001787
 Sum of Mulliken charges =  -0.00000   1.00000

 Dipole moment (field-independent basis, Debye):
    X=              0.0000    Y=             -0.0000    Z=              2.1098  Tot=              2.1098
 Quadrupole moment (field-independent basis, Debye-Ang):
   XX=            -31.0195   YY=            -32.1500   ZZ=            -25.6154
   XY=             -0.0000   XZ=             -0.0000   YZ=              0.0000

  Exact polarizability:  51.000  -0.000  73.101   0.000  -0.000  42.995
 Approx polarizability: 125.170   0.000 153.980  -0.000  -0.000  77.634

                      1                      2                      3
                     A1                     B1                     B2
 Frequencies --    420.7702               440.7546               502.1293
 Red. masses --     11.9135                11.8868                 9.4992
 Frc consts  --      1.2427                 1.3605                 1.4111
 IR Inten    --      3.9026                83.5471                22.3118

                      4                      5                      6
                     A2                     B1                     A1
 Frequencies --    669.4983               775.8478               835.6768
 Red. masses --     12.0000                 1.3954                11.7185
 Frc consts  --      3.1691                 0.4949                 4.8217
 IR Inten    --      0.0000                19.2947                 0.7715

                      7                      8                      9
                     B2                     A1                     B1
 Frequencies --    917.6743              1015.5765              1015.7192
 Red. masses --      1.5283                 7.8518                 3.9698
 Frc consts  --      0.7583                 4.7714                 2.4131
 IR Inten    --     99.7325                 1.7967                 1.5972

                     10                     11                     12
                     B2                     A1                     A1
 Frequencies --   1057.4171              1265.2476              3288.0385
 Red. masses --      3.2254                 9.6462                 1.0986
 Frc consts  --      2.1248                 9.0982                 6.9978
 IR Inten    --     81.4655                 0.2577                28.5850

 - Thermochemistry -
 -------------------
 Temperature   298.150 Kelvin.  Pressure   1.00000 Atm.
 Atom     1 has atomic number  6 and mass  12.00000

 Molecular mass:    61.00783 amu.
 Principal axes and moments of inertia in atomic units:
                           1         2         3
     Eigenvalues --   140.22667 172.26963 182.80945
           X            0.00000   1.00000   0.00000
           Y            1.00000  -0.00000   0.00000
           Z            0.00000   0.00000   1.00000
 This molecule is an asymmetric top.
 Rotational symmetry number  2.
 Rotational temperatures (Kelvin)      0.61767     0.50278     0.47379
 Rotational constants (GHZ):          12.87017    10.47626     9.87225
 Zero-point vibrational energy      72998.2 (Joules/Mol)
                                   17.44699 (Kcal/Mol)
 Warning -- explicit consideration of   3 degrees of freedom as
           vibrations may cause significant error
 Vibrational temperatures:    605.39   634.15   722.45   963.26  1116.27
          (Kelvin)           1202.35  1320.33  1461.19  1461.39  1521.39
                             1820.41  4730.75

 Zero-point correction=                           0.027804 (Hartree/Particle)
 Thermal correction to Energy=                    0.031862
 Thermal correction to Enthalpy=                  0.032806
 Thermal correction to Gibbs Free Energy=         0.002027
 Sum of electronic and zero-point Energies=           -190.744380
 Sum of electronic and thermal Energies=              -190.740321
 Sum of electronic and thermal Enthalpies=            -190.739377
 Sum of electronic and thermal Free Energies=         -190.770157

                     E (Thermal)             CV                S
                      KCal/Mol        Cal/Mol-Kelvin    Cal/Mol-Kelvin
 Total                   19.994             13.869             64.781
 Electronic               0.000              0.000              1.377
 Translational            0.889              2.981             38.245
 Rotational               0.889              2.981             21.628
 Vibrational             18.216              7.907              3.530
 Vibration     1          0.783              1.425              0.889
 Vibration     2          0.801              1.381              0.824
 Vibration     3          0.857              1.245              0.653

 Normal termination of Gaussian 09 at Tue Jul  5 16:04:17 2016.
