 Gaussian 09, Revision E.01,
 Gaussian 09:  EM64L-G09RevE.01 30-Nov-2015

 ---------------------------------------------
 #p b3lyp/6-311++G(3df,2p) freq symmetry=Loose
 ---------------------------------------------

 ---------
 b3lyp opt
 ---------
 Symbolic Z-matrix:
 Charge =  2 Multiplicity = 4

                         Standard orientation:
 ---------------------------------------------------------------------
 Center     Atomic      Atomic             Coordinates (Angstroms)
 Number     Number       Type             X           Y           Z
 ---------------------------------------------------------------------
      1          6           0        0.853779    1.769233    0.000000
      2          6           0       -0.165535    0.724703   -0.000000
      3          6           0       -0.168888   -0.543263    0.778804
      4          6           0       -0.168888   -1.637381    0.000000
      5          6           0       -0.168888   -0.543263   -0.778804
      6          1           0       -1.089476    1.379825   -0.000000
 ---------------------------------------------------------------------

 SCF Done:  E(UB3LYP) =  -189.758667318     A.U. after   18 cycles

 The electronic state is 4-A".
 Alpha  occ. eigenvalues --  -10.91071 -10.83001 -10.81287 -10.81267 -10.79962
 Alpha  occ. eigenvalues --   -1.53849  -1.35041  -1.19050  -1.08593  -1.04767
 Alpha  occ. eigenvalues --   -0.96873  -0.96634  -0.88273  -0.87831  -0.81288
 Alpha  occ. eigenvalues --   -0.79455
 Alpha virt. eigenvalues --   -0.68308  -0.58893  -0.54531  -0.52442  -0.36185
 Alpha virt. eigenvalues --   -0.32053  -0.30863  -0.28748  -0.27029  -0.25378
 Alpha virt. eigenvalues --   -0.24022  -0.23698  -0.23032  -0.21476  -0.20784

  Beta  occ. eigenvalues --  -10.87751 -10.82625 -10.80673 -10.80655 -10.78045
  Beta  occ. eigenvalues --   -1.53137  -1.31616  -1.14686  -1.06318  -1.03472
  Beta  occ. eigenvalues --   -0.94767  -0.88281  -0.82001
  Beta virt. eigenvalues --   -0.73015  -0.65380  -0.62924  -0.62820  -0.57572
  Beta virt. eigenvalues --   -0.49732  -0.48731  -0.35458  -0.30772  -0.29879
  Beta virt. eigenvalues --   -0.27986  -0.25183  -0.24283  -0.23231  -0.22833

 Mulliken charges and spin densities:
               1          2
     1  C    0.252650   1.727334
     2  C    0.546550  -0.035045
     3  C    0.392636   0.223859
     4  C    0.098946   0.864781
     5  C    0.392636   0.223859
     6  H    0.316582  -0.004787
 Sum of Mulliken charges =   2.00000   3.00000

 Dipole moment (field-independent basis, Debye):
    X=              0.5622    Y=              3.5554    Z=             -0.0000  Tot=              3.5996
 Quadrupole moment (field-independent basis, Debye-Ang):
   XX=            -17.0631   YY=             -1.9610   ZZ=            -21.6955
   XY=              3.7147   XZ=             -0.0000   YZ=             -0.0000

  Exact polarizability:  30.015   9.477  62.876   0.000  -0.000  32.030
 Approx polarizability:  52.203  21.185 121.547   0.000   0.000  73.081

                      1                      2                      3
                     A'                     A"                     A'
 Frequencies --    250.2086               417.2332               522.0748
 Red. masses --     10.7233                11.0373                 6.7051
 Frc consts  --      0.3955                 1.1321                 1.0768
 IR Inten    --      1.0899                 2.9533                 0.3386

                      4                      5                      6
                     A'                     A"                     A'
 Frequencies --    647.6559               660.9024               791.1119
 Red. masses --     10.8869                 7.2552                 7.0620
 Frc consts  --      2.6906                 1.8671                 2.6041
 IR Inten    --     10.1299                18.1462                20.1126

                      7                      8                      9
                     A"                     A'                     A'
 Frequencies --    938.7947              1086.8957              1132.4036
 Red. masses --      1.2300                 2.2382                 2.0506
 Frc consts  --      0.6387                 1.5579                 1.5493
 IR Inten    --     20.7266                29.2306                41.0613

                     10                     11                     12
                     A"                     A'                     A'
 Frequencies --   1248.1564              1640.9238              2706.5066
 Red. masses --     11.8434                11.4218                 1.0797
 Frc consts  --     10.8709                18.1202                 4.6597
 IR Inten    --      4.1583               157.8694               306.7762

 - Thermochemistry -
 -------------------
 Temperature   298.150 Kelvin.  Pressure   1.00000 Atm.
 Atom     1 has atomic number  6 and mass  12.00000

 Molecular mass:    61.00783 amu.
 Principal axes and moments of inertia in atomic units:
                           1         2         3
     Eigenvalues --    72.90195 343.85103 374.91604
           X            0.25321   0.00000   0.96741
           Y            0.96741  -0.00000  -0.25321
           Z            0.00000   1.00000  -0.00000
 This molecule is an asymmetric top.
 Rotational symmetry number  1.
 Rotational temperatures (Kelvin)      1.18809     0.25189     0.23102
 Rotational constants (GHZ):          24.75573     5.24861     4.81372
 Zero-point vibrational energy      72032.3 (Joules/Mol)
                                   17.21614 (Kcal/Mol)
 Warning -- explicit consideration of   3 degrees of freedom as
           vibrations may cause significant error
 Vibrational temperatures:    359.99   600.30   751.15   931.83   950.89
          (Kelvin)           1138.23  1350.71  1563.80  1629.27  1795.82
                             2360.92  3894.05

 Zero-point correction=                           0.027436 (Hartree/Particle)
 Thermal correction to Energy=                    0.031713
 Thermal correction to Enthalpy=                  0.032657
 Thermal correction to Gibbs Free Energy=        -0.000230
 Sum of electronic and zero-point Energies=           -189.731232
 Sum of electronic and thermal Energies=              -189.726954
 Sum of electronic and thermal Enthalpies=            -189.726010
 Sum of electronic and thermal Free Energies=         -189.758898

                     E (Thermal)             CV                S
                      KCal/Mol        Cal/Mol-Kelvin    Cal/Mol-Kelvin
 Total                   19.900             14.078             69.217
 Electronic               0.000              0.000              2.755
 Translational            0.889              2.981             38.245
 Rotational               0.889              2.981             23.756
 Vibrational             18.123              8.116              4.461
 Vibration     1          0.663              1.762              1.729
 Vibration     2          0.780              1.433              0.901
 Vibration     3          0.877              1.201              0.605

 Normal termination of Gaussian 09 at Mon Jun 20 14:50:00 2016.
