 Gaussian 09, Revision E.01,
 Gaussian 09:  EM64L-G09RevE.01 30-Nov-2015

 ---------------------------------------------
 #p b3lyp/6-311++G(3df,2p) freq symmetry=Loose
 ---------------------------------------------

 ---------
 b3lyp opt
 ---------
 Symbolic Z-matrix:
 Charge =  1 Multiplicity = 3

                         Standard orientation:
 ---------------------------------------------------------------------
 Center     Atomic      Atomic             Coordinates (Angstroms)
 Number     Number       Type             X           Y           Z
 ---------------------------------------------------------------------
      1          6           0       -0.825865   -1.720693   -0.000000
      2          6           0        0.244663   -0.770100   -0.000000
      3          6           0        0.190530    0.547237    0.771157
      4          6           0       -0.000000    1.615995    0.000000
      5          6           0        0.190530    0.547237   -0.771157
      6          1           0        1.200878   -1.318038   -0.000000
 ---------------------------------------------------------------------

 SCF Done:  E(UB3LYP) =  -190.398238343     A.U. after   19 cycles

 The electronic state is 3-A".
 Alpha  occ. eigenvalues --  -10.57003 -10.56984 -10.54460 -10.54071 -10.53813
 Alpha  occ. eigenvalues --   -1.29397  -1.07790  -0.91524  -0.85098  -0.79913
 Alpha  occ. eigenvalues --   -0.71515  -0.68107  -0.65633  -0.57321  -0.56494
 Alpha  occ. eigenvalues --   -0.50516
 Alpha virt. eigenvalues --   -0.38009  -0.35903  -0.30025  -0.28787  -0.16775
 Alpha virt. eigenvalues --   -0.12773  -0.12167  -0.11113  -0.08564  -0.07918
 Alpha virt. eigenvalues --   -0.07800  -0.06367  -0.06104  -0.04787  -0.03231

  Beta  occ. eigenvalues --  -10.56283 -10.56264 -10.53728 -10.52905 -10.52835
  Beta  occ. eigenvalues --   -1.28873  -1.06156  -0.88668  -0.82431  -0.79353
  Beta  occ. eigenvalues --   -0.69669  -0.66075  -0.59654  -0.54906
  Beta virt. eigenvalues --   -0.43306  -0.37762  -0.36469  -0.33634  -0.26045
  Beta virt. eigenvalues --   -0.25421  -0.16639  -0.11915  -0.11871  -0.10750
  Beta virt. eigenvalues --   -0.08338  -0.07544  -0.07472  -0.06011  -0.05391

 Mulliken charges and spin densities:
               1          2
     1  C   -0.329436   0.718585
     2  C    0.511714  -0.019753
     3  C    0.358029   0.273425
     4  C   -0.162555   0.759532
     5  C    0.358029   0.273425
     6  H    0.264218  -0.005213
 Sum of Mulliken charges =   1.00000   2.00000

 Dipole moment (field-independent basis, Debye):
    X=              1.5005    Y=              0.0385    Z=              0.0000  Tot=              1.5010
 Quadrupole moment (field-independent basis, Debye-Ang):
   XX=            -23.5588   YY=            -19.7583   ZZ=            -25.4687
   XY=             -2.6256   XZ=             -0.0000   YZ=              0.0000

  Exact polarizability:  35.040   6.727  64.528   0.000   0.000  37.540
 Approx polarizability:  57.533  11.181 114.261   0.000   0.000  76.355

                      1                      2                      3
                     A'                     A"                     A'
 Frequencies --    172.7739               374.0400               482.9459
 Red. masses --     10.8339                11.2485                 6.8567
 Frc consts  --      0.1905                 0.9272                 0.9422
 IR Inten    --     13.1466                 6.8001                 9.0793

                      4                      5                      6
                     A"                     A'                     A'
 Frequencies --    484.5994               693.6935               913.2319
 Red. masses --      9.7463                 9.8887                 3.3830
 Frc consts  --      1.3485                 2.8036                 1.6623
 IR Inten    --     24.4454                 9.3106                 6.2335

                      7                      8                      9
                     A"                     A'                     A'
 Frequencies --    965.8497              1008.5027              1233.6709
 Red. masses --      1.1800                 3.1610                 2.1652
 Frc consts  --      0.6485                 1.8942                 1.9416
 IR Inten    --     10.3938                36.1860                 8.8781

                     10                     11                     12
                     A"                     A'                     A'
 Frequencies --   1263.9143              1702.3947              2992.9364
 Red. masses --     11.2603                11.8442                 1.0811
 Frc consts  --     10.5983                20.2244                 5.7057
 IR Inten    --      0.3109                 8.6918                93.9865

 - Thermochemistry -
 -------------------
 Temperature   298.150 Kelvin.  Pressure   1.00000 Atm.
 Atom     1 has atomic number  6 and mass  12.00000

 Molecular mass:    61.00783 amu.
 Principal axes and moments of inertia in atomic units:
                           1         2         3
     Eigenvalues --    79.20389 336.02893 358.76043
           X            0.20523   0.00000   0.97871
           Y            0.97871   0.00000  -0.20523
           Z           -0.00000   1.00000  -0.00000
 This molecule is an asymmetric top.
 Rotational symmetry number  1.
 Rotational temperatures (Kelvin)      1.09355     0.25776     0.24143
 Rotational constants (GHZ):          22.78602     5.37079     5.03049
 Zero-point vibrational energy      73501.9 (Joules/Mol)
                                   17.56737 (Kcal/Mol)
 Warning -- explicit consideration of   4 degrees of freedom as
           vibrations may cause significant error
 Vibrational temperatures:    248.58   538.16   694.85   697.23   998.07
          (Kelvin)           1313.94  1389.64  1451.01  1774.98  1818.49
                             2449.36  4306.16

 Zero-point correction=                           0.027995 (Hartree/Particle)
 Thermal correction to Energy=                    0.032515
 Thermal correction to Enthalpy=                  0.033459
 Thermal correction to Gibbs Free Energy=         0.000302
 Sum of electronic and zero-point Energies=           -190.370243
 Sum of electronic and thermal Energies=              -190.365724
 Sum of electronic and thermal Enthalpies=            -190.364779
 Sum of electronic and thermal Free Energies=         -190.397936

                     E (Thermal)             CV                S
                      KCal/Mol        Cal/Mol-Kelvin    Cal/Mol-Kelvin
 Total                   20.403             14.430             69.785
 Electronic               0.000              0.000              2.183
 Translational            0.889              2.981             38.245
 Rotational               0.889              2.981             23.772
 Vibrational             18.626              8.468              5.585
 Vibration     1          0.626              1.876              2.405
 Vibration     2          0.745              1.525              1.063
 Vibration     3          0.839              1.288              0.702
 Vibration     4          0.841              1.284              0.698

 Optimization completed.
    -- Stationary point found.
 Normal termination of Gaussian 09 at Mon Jun 20 14:24:19 2016.
