 Gaussian 09, Revision E.01,
 Gaussian 09:  EM64L-G09RevE.01 30-Nov-2015

 ---------------------------------------------
 #p b3lyp/6-311++G(3df,2p) freq symmetry=Loose
 ---------------------------------------------

 ---------
 b3lyp opt
 ---------
 Symbolic Z-matrix:
 Charge =  3 Multiplicity = 3

                         Standard orientation:
 ---------------------------------------------------------------------
 Center     Atomic      Atomic             Coordinates (Angstroms)
 Number     Number       Type             X           Y           Z
 ---------------------------------------------------------------------
      1          6           0       -2.353408   -0.497885    0.000071
      2          6           0       -1.320479    0.309999    0.000009
      3          6           0        0.052971    0.105786   -0.000007
      4          6           0        1.319968   -0.024363   -0.000024
      5          6           0        2.598552   -0.124475   -0.000043
      6          1           0       -1.785626    1.385628   -0.000038
 ---------------------------------------------------------------------

 SCF Done:  E(UB3LYP) =  -189.014506220     A.U. after   22 cycles

 The electronic state is 3-A.
 Alpha  occ. eigenvalues --  -11.14264 -11.12788 -11.07077 -10.98880 -10.97730
 Alpha  occ. eigenvalues --   -1.60194  -1.56365  -1.47365  -1.37056  -1.21436
 Alpha  occ. eigenvalues --   -1.15317  -1.14962  -1.11434  -1.08455  -1.05500
 Alpha virt. eigenvalues --   -0.90329  -0.89356  -0.87022  -0.74025  -0.65219
 Alpha virt. eigenvalues --   -0.58773  -0.53301  -0.49975  -0.48397  -0.43367
 Alpha virt. eigenvalues --   -0.41602  -0.41588  -0.38610  -0.37600  -0.36070

  Beta  occ. eigenvalues --  -11.11968 -11.09671 -11.07661 -10.98657 -10.97443
  Beta  occ. eigenvalues --   -1.59975  -1.54348  -1.45389  -1.36066  -1.21281
  Beta  occ. eigenvalues --   -1.11950  -1.07751  -1.03076
  Beta virt. eigenvalues --   -0.92849  -0.89726  -0.87262  -0.86200  -0.83517
  Beta virt. eigenvalues --   -0.71036  -0.62469  -0.57401  -0.53383  -0.49925
  Beta virt. eigenvalues --   -0.48259  -0.43160  -0.41659  -0.41597  -0.38667

 Mulliken charges and spin densities:
               1          2
     1  C    0.552764   1.036911
     2  C    0.461766  -0.118609
     3  C   -0.024197  -0.222695
     4  C    0.992339   0.008806
     5  C    0.667284   1.310717
     6  H    0.350044  -0.015130
 Sum of Mulliken charges =   3.00000   2.00000

 Dipole moment (field-independent basis, Debye):
    X=             -0.8514    Y=              0.0209    Z=              0.0000  Tot=              0.8516
 Quadrupole moment (field-independent basis, Debye-Ang):
   XX=             47.0732   YY=            -14.5244   ZZ=            -21.2712
   XY=             -0.8034   XZ=             -0.0013   YZ=             -0.0003

  Exact polarizability:  94.098   0.961  26.291  -0.001   0.000  22.288
 Approx polarizability: 279.022   9.595  45.761  -0.005  -0.001  28.215

                      1                      2                      3
                      A                      A                      A
 Frequencies --    119.6293               199.6356               283.8263
 Red. masses --      9.7358                 5.4551                10.2808
 Frc consts  --      0.0821                 0.1281                 0.4880
 IR Inten    --     14.7660                26.8729                 0.0622

                      4                      5                      6
                      A                      A                      A
 Frequencies --    420.6770               524.1109               596.4476
 Red. masses --      2.6377                 5.6703                 3.7171
 Frc consts  --      0.2750                 0.9177                 0.7791
 IR Inten    --      8.4372                 4.6206                22.8814

                      7                      8                      9
                      A                      A                      A
 Frequencies --    781.8409               936.1733              1424.2455
 Red. masses --      9.5852                 1.2160                 9.8087
 Frc consts  --      3.4522                 0.6279                11.7228
 IR Inten    --     14.8423                 1.7878               194.2808

                     10                     11                     12
                      A                      A                      A
 Frequencies --   1615.3458              2131.7291              2362.2467
 Red. masses --     10.6862                10.7903                 1.0843
 Frc consts  --     16.4287                28.8899                 3.5651
 IR Inten    --    120.8320              1357.6662               743.8637

 - Thermochemistry -
 -------------------
 Temperature   298.150 Kelvin.  Pressure   1.00000 Atm.
 Atom     1 has atomic number  6 and mass  12.00000

 Molecular mass:    61.00783 amu.
 Principal axes and moments of inertia in atomic units:
                           1         2         3
     Eigenvalues --    22.58977 687.61861 710.20839
           X            0.99991  -0.01340   0.00002
           Y            0.01340   0.99991   0.00005
           Z           -0.00002  -0.00005   1.00000
 This molecule is an asymmetric top.
 Rotational symmetry number  1.
 Rotational temperatures (Kelvin)      3.83420     0.12596     0.12196
 Rotational constants (GHZ):          79.89196     2.62463     2.54114
 Zero-point vibrational energy      68162.7 (Joules/Mol)
                                   16.29127 (Kcal/Mol)
 Warning -- explicit consideration of   6 degrees of freedom as
           vibrations may cause significant error
 Vibrational temperatures:    172.12   287.23   408.36   605.26   754.08
          (Kelvin)            858.15  1124.89  1346.94  2049.17  2324.12
                             3067.08  3398.74

 Zero-point correction=                           0.025962 (Hartree/Particle)
 Thermal correction to Energy=                    0.031294
 Thermal correction to Enthalpy=                  0.032238
 Thermal correction to Gibbs Free Energy=        -0.002642
 Sum of electronic and zero-point Energies=           -188.988544
 Sum of electronic and thermal Energies=              -188.983212
 Sum of electronic and thermal Enthalpies=            -188.982268
 Sum of electronic and thermal Free Energies=         -189.017148

                     E (Thermal)             CV                S
                      KCal/Mol        Cal/Mol-Kelvin    Cal/Mol-Kelvin
 Total                   19.637             16.391             73.411
 Electronic               0.000              0.000              2.183
 Translational            0.889              2.981             38.245
 Rotational               0.889              2.981             23.915
 Vibrational             17.860             10.429              9.067
 Vibration     1          0.609              1.933              3.106
 Vibration     2          0.638              1.840              2.136
 Vibration     3          0.682              1.704              1.511
 Vibration     4          0.783              1.425              0.890
 Vibration     5          0.879              1.197              0.601
 Vibration     6          0.954              1.039              0.456

 Optimization completed.
    -- Stationary point found.
 Normal termination of Gaussian 09 at Wed Jul 20 21:56:01 2016.
