 Gaussian 09, Revision E.01,
 Gaussian 09:  EM64L-G09RevE.01 30-Nov-2015

 ---------------------------------------------
 #p b3lyp/6-311++G(3df,2p) freq symmetry=Loose
 ---------------------------------------------

 ---------
 b3lyp opt
 ---------
 Symbolic Z-matrix:
 Charge =  1 Multiplicity = 4

                         Standard orientation:
 ---------------------------------------------------------------------
 Center     Atomic      Atomic             Coordinates (Angstroms)
 Number     Number       Type             X           Y           Z
 ---------------------------------------------------------------------
      1         16           0        0.000000    0.000000    0.000000
 ---------------------------------------------------------------------

 SCF Done:  E(UB3LYP) =  -397.746957561     A.U. after    7 cycles

 The electronic state is 4-A1G.
 Alpha  occ. eigenvalues --  -89.34278  -8.41625  -6.38141  -6.38141  -6.38141
 Alpha  occ. eigenvalues --   -1.12599  -0.69869  -0.69869  -0.69869
 Alpha virt. eigenvalues --   -0.18616  -0.11530  -0.11530  -0.11530  -0.11462
 Alpha virt. eigenvalues --   -0.11462  -0.11462  -0.11462  -0.11462   0.09284
 Alpha virt. eigenvalues --    0.09284   0.09284   0.25281   0.56971   0.56971

  Beta  occ. eigenvalues --  -89.32231  -8.39790  -6.35252  -6.35252  -6.35252
  Beta  occ. eigenvalues --   -0.97864
  Beta virt. eigenvalues --   -0.51331  -0.51331  -0.51331  -0.17425  -0.10626
  Beta virt. eigenvalues --   -0.10626  -0.10626  -0.04840  -0.04840  -0.04840
  Beta virt. eigenvalues --   -0.04840  -0.04840   0.10903   0.10903   0.10903

 Mulliken charges and spin densities:
               1          2
     1  S    1.000000   3.000000
 Sum of Mulliken charges =   1.00000   3.00000

 Dipole moment (field-independent basis, Debye):
    X=              0.0000    Y=              0.0000    Z=              0.0000  Tot=              0.0000
 Quadrupole moment (field-independent basis, Debye-Ang):
   XX=             -9.2786   YY=             -9.2786   ZZ=             -9.2786
   XY=              0.0000   XZ=              0.0000   YZ=             -0.0000

  Exact polarizability:  10.757   0.000  10.757  -0.000  -0.000  10.757
 Approx polarizability:  14.885  -0.000  14.885  -0.000  -0.000  14.885

 - Thermochemistry -
 -------------------
 Temperature   298.150 Kelvin.  Pressure   1.00000 Atm.
 Atom     1 has atomic number 16 and mass  31.97207
 Molecular mass:    31.97207 amu.
 Zero-point vibrational energy          0.0 (Joules/Mol)
                                    0.00000 (Kcal/Mol)
 Vibrational temperatures:
          (Kelvin)

 Zero-point correction=                           0.000000 (Hartree/Particle)
 Thermal correction to Energy=                    0.001416
 Thermal correction to Enthalpy=                  0.002360
 Thermal correction to Gibbs Free Energy=        -0.016205
 Sum of electronic and zero-point Energies=           -397.746958
 Sum of electronic and thermal Energies=              -397.745541
 Sum of electronic and thermal Enthalpies=            -397.744597
 Sum of electronic and thermal Free Energies=         -397.763162

                     E (Thermal)             CV                S
                      KCal/Mol        Cal/Mol-Kelvin    Cal/Mol-Kelvin
 Total                    0.889              2.981             39.074
 Electronic               0.000              0.000              2.755
 Translational            0.889              2.981             36.319
 Rotational               0.000              0.000              0.000
 Vibrational              0.000              0.000              0.000

 Optimization completed.
    -- Stationary point found.
 Normal termination of Gaussian 09 at Mon Oct 24 00:25:47 2016.
