 Gaussian 09, Revision E.01,
 Gaussian 09:  EM64L-G09RevE.01 30-Nov-2015

 ---------------------------------------------
 #p b3lyp/6-311++G(3df,2p) freq symmetry=Loose
 ---------------------------------------------

 ---------
 b3lyp opt
 ---------
 Symbolic Z-matrix:
 Charge =  1 Multiplicity = 2

                         Standard orientation:
 ---------------------------------------------------------------------
 Center     Atomic      Atomic             Coordinates (Angstroms)
 Number     Number       Type             X           Y           Z
 ---------------------------------------------------------------------
      1         16           0        0.000000    0.000000    0.000000
 ---------------------------------------------------------------------

 SCF Done:  E(UB3LYP) =  -397.665661761     A.U. after    8 cycles

 Unable to determine electronic state:  an orbital has unidentified symmetry.
 Alpha  occ. eigenvalues --  -89.35649  -8.42812  -6.40085  -6.39554  -6.37338
 Alpha  occ. eigenvalues --   -1.08861  -0.69462  -0.64197
 Alpha virt. eigenvalues --   -0.60165  -0.18705  -0.11812  -0.11786  -0.11589
 Alpha virt. eigenvalues --   -0.11267  -0.11194  -0.09363  -0.09206  -0.08164
 Alpha virt. eigenvalues --    0.08934   0.09012   0.10213   0.25994   0.56247

  Beta  occ. eigenvalues --  -89.34961  -8.42191  -6.39731  -6.37353  -6.36966
  Beta  occ. eigenvalues --   -1.03749  -0.62808
  Beta virt. eigenvalues --   -0.58568  -0.53295  -0.18329  -0.11737  -0.11274
  Beta virt. eigenvalues --   -0.11046  -0.08945  -0.08844  -0.07872  -0.06305
  Beta virt. eigenvalues --   -0.05841   0.09119   0.10346   0.10575   0.27449

 Mulliken charges and spin densities:
               1          2
     1  S    1.000000   1.000000
 Sum of Mulliken charges =   1.00000   1.00000

 Dipole moment (field-independent basis, Debye):
    X=              0.0000    Y=              0.0000    Z=              0.0000  Tot=              0.0000
 Quadrupole moment (field-independent basis, Debye-Ang):
   XX=             -9.4286   YY=            -11.6592   ZZ=             -7.3278
   XY=              0.0000   XZ=              0.0000   YZ=             -0.0000

  Exact polarizability:  10.992   0.000  11.829   0.000   0.000  10.570
 Approx polarizability:  14.785  -0.000  14.006  -0.000  -0.000  18.050

 - Thermochemistry -
 -------------------
 Temperature   298.150 Kelvin.  Pressure   1.00000 Atm.
 Atom     1 has atomic number 16 and mass  31.97207
 Molecular mass:    31.97207 amu.
 Zero-point vibrational energy          0.0 (Joules/Mol)
                                    0.00000 (Kcal/Mol)
 Vibrational temperatures:
          (Kelvin)

 Zero-point correction=                           0.000000 (Hartree/Particle)
 Thermal correction to Energy=                    0.001416
 Thermal correction to Enthalpy=                  0.002360
 Thermal correction to Gibbs Free Energy=        -0.015550
 Sum of electronic and zero-point Energies=           -397.665662
 Sum of electronic and thermal Energies=              -397.664245
 Sum of electronic and thermal Enthalpies=            -397.663301
 Sum of electronic and thermal Free Energies=         -397.681212

                     E (Thermal)             CV                S
                      KCal/Mol        Cal/Mol-Kelvin    Cal/Mol-Kelvin
 Total                    0.889              2.981             37.696
 Electronic               0.000              0.000              1.377
 Translational            0.889              2.981             36.319
 Rotational               0.000              0.000              0.000
 Vibrational              0.000              0.000              0.000

 Optimization completed.
    -- Stationary point found.
 Normal termination of Gaussian 09 at Mon Oct 24 00:25:48 2016.
