 Gaussian 09, Revision E.01,
 Gaussian 09:  EM64L-G09RevE.01 30-Nov-2015

 ---------------------------------------------
 #p b3lyp/6-311++G(3df,2p) freq symmetry=Loose
 ---------------------------------------------

 ---------
 b3lyp opt
 ---------
 Symbolic Z-matrix:
 Charge =  1 Multiplicity = 4

                         Standard orientation:
 ---------------------------------------------------------------------
 Center     Atomic      Atomic             Coordinates (Angstroms)
 Number     Number       Type             X           Y           Z
 ---------------------------------------------------------------------
      1         16           0        0.000000    0.000000    1.029760
      2         16           0        0.000000    0.000000   -1.029760
 ---------------------------------------------------------------------

 SCF Done:  E(UB3LYP) =  -796.009532528     A.U. after    9 cycles

 Unable to determine electronic state:  partially filled degenerate orbitals.
 Alpha  occ. eigenvalues --  -89.22287 -89.22286  -8.30114  -8.30114  -6.26943
 Alpha  occ. eigenvalues --   -6.26942  -6.26059  -6.26031  -6.26013  -6.26012
 Alpha  occ. eigenvalues --   -1.11668  -0.94887  -0.67815  -0.67332  -0.64601
 Alpha  occ. eigenvalues --   -0.56656  -0.54104
 Alpha virt. eigenvalues --   -0.33174  -0.17996  -0.11863  -0.11177  -0.10815
 Alpha virt. eigenvalues --   -0.10800  -0.09972  -0.09771  -0.08962  -0.07619
 Alpha virt. eigenvalues --   -0.06618  -0.06305  -0.01669   0.01087   0.01124

  Beta  occ. eigenvalues --  -89.21278 -89.21278  -8.29200  -8.29199  -6.25542
  Beta  occ. eigenvalues --   -6.25514  -6.24688  -6.24686  -6.24509  -6.24507
  Beta  occ. eigenvalues --   -1.05663  -0.87055  -0.65006  -0.58431
  Beta virt. eigenvalues --   -0.51300  -0.42233  -0.40222  -0.30181  -0.17322
  Beta virt. eigenvalues --   -0.10784  -0.10667  -0.10508  -0.10097  -0.05922
  Beta virt. eigenvalues --   -0.05853  -0.05717  -0.05570  -0.05365  -0.05098

 Mulliken charges and spin densities:
               1          2
     1  S    0.500000   1.500000
     2  S    0.500000   1.500000
 Sum of Mulliken charges =   1.00000   3.00000

 Dipole moment (field-independent basis, Debye):
    X=              0.0000    Y=              0.0000    Z=              0.0000  Tot=              0.0000
 Quadrupole moment (field-independent basis, Debye-Ang):
   XX=            -22.9086   YY=            -20.4685   ZZ=            -14.2505
   XY=              0.0000   XZ=             -0.0000   YZ=              0.0000

  Exact polarizability:  23.576   0.000  22.683   0.000   0.000  50.165
 Approx polarizability:  35.355  -0.000  35.038  -0.000  -0.000 104.798

                      1
                     SGG
 Frequencies --    561.3748
 Red. masses --     31.9721
 Frc consts  --      5.9364
 IR Inten    --      0.0000

 - Thermochemistry -
 -------------------
 Temperature   298.150 Kelvin.  Pressure   1.00000 Atm.
 Atom     1 has atomic number 16 and mass  31.97207

 Molecular mass:    63.94414 amu.
 Principal axes and moments of inertia in atomic units:
                           1         2         3
     Eigenvalues --     0.00000 242.14224 242.14224
           X           -0.00000   1.00000  -0.00000
           Y            0.00000   0.00000   1.00000
           Z            1.00000   0.00000  -0.00000
 This molecule is a prolate symmetric top.
 Rotational symmetry number  2.
 Rotational temperature (Kelvin)      0.35770
 Rotational constant (GHZ):           7.453228
 Zero-point vibrational energy       3357.8 (Joules/Mol)
                                    0.80253 (Kcal/Mol)
 Warning -- explicit consideration of   1 degrees of freedom as
           vibrations may cause significant error
 Vibrational temperatures:    807.69
          (Kelvin)

 Zero-point correction=                           0.001279 (Hartree/Particle)
 Thermal correction to Energy=                    0.003822
 Thermal correction to Enthalpy=                  0.004766
 Thermal correction to Gibbs Free Energy=        -0.021668
 Sum of electronic and zero-point Energies=           -796.008254
 Sum of electronic and thermal Energies=              -796.005711
 Sum of electronic and thermal Enthalpies=            -796.004766
 Sum of electronic and thermal Free Energies=         -796.031201

                     E (Thermal)             CV                S
                      KCal/Mol        Cal/Mol-Kelvin    Cal/Mol-Kelvin
 Total                    2.398              6.083             55.636
 Electronic               0.000              0.000              2.755
 Translational            0.889              2.981             38.385
 Rotational               0.592              1.987             13.975
 Vibrational              0.917              1.115              0.521
 Vibration     1          0.917              1.115              0.521

 Optimization completed.
    -- Stationary point found.
 Normal termination of Gaussian 09 at Sun Oct 23 21:12:10 2016.
