 Gaussian 09, Revision E.01,
 Gaussian 09:  EM64L-G09RevE.01 30-Nov-2015

 ---------------------------------------------
 #p b3lyp/6-311++G(3df,2p) freq symmetry=Loose
 ---------------------------------------------

 ---------
 b3lyp opt
 ---------
 Symbolic Z-matrix:
 Charge =  1 Multiplicity = 2

                         Standard orientation:
 ---------------------------------------------------------------------
 Center     Atomic      Atomic             Coordinates (Angstroms)
 Number     Number       Type             X           Y           Z
 ---------------------------------------------------------------------
      1         16           0        0.000000    0.000000    0.911345
      2         16           0        0.000000    0.000000   -0.911345
 ---------------------------------------------------------------------

 SCF Done:  E(UB3LYP) =  -796.082560704     A.U. after    9 cycles

 Unable to determine electronic state:  partially filled degenerate orbitals.
 Alpha  occ. eigenvalues --  -89.22454 -89.22454  -8.30479  -8.30455  -6.26728
 Alpha  occ. eigenvalues --   -6.26717  -6.26475  -6.26465  -6.26430  -6.26300
 Alpha  occ. eigenvalues --   -1.15484  -0.90975  -0.69085  -0.67189  -0.65862
 Alpha  occ. eigenvalues --   -0.52029
 Alpha virt. eigenvalues --   -0.45171  -0.25582  -0.18593  -0.12365  -0.12202
 Alpha virt. eigenvalues --   -0.11025  -0.10429  -0.10362  -0.10275  -0.06720
 Alpha virt. eigenvalues --   -0.06403  -0.06132  -0.05997  -0.00789   0.03267

  Beta  occ. eigenvalues --  -89.22090 -89.22090  -8.30154  -8.30128  -6.26535
  Beta  occ. eigenvalues --   -6.26524  -6.26243  -6.26113  -6.25326  -6.25315
  Beta  occ. eigenvalues --   -1.14151  -0.88017  -0.67800  -0.65310  -0.62712
  Beta virt. eigenvalues --   -0.44288  -0.41255  -0.24660  -0.18460  -0.12348
  Beta virt. eigenvalues --   -0.11708  -0.10919  -0.10246  -0.09017  -0.08903
  Beta virt. eigenvalues --   -0.06229  -0.05972  -0.05651  -0.04564  -0.00671

 Mulliken charges and spin densities:
               1          2
     1  S    0.500000   0.500000
     2  S    0.500000   0.500000
 Sum of Mulliken charges =   1.00000   1.00000

 Dipole moment (field-independent basis, Debye):
    X=              0.0000    Y=             -0.0000    Z=              0.0000  Tot=              0.0000
 Quadrupole moment (field-independent basis, Debye-Ang):
   XX=            -20.3794   YY=            -22.4762   ZZ=            -14.5613
   XY=              0.0000   XZ=             -0.0000   YZ=              0.0000

  Exact polarizability:  21.448  -0.000  22.183   0.000   0.000  42.726
 Approx polarizability:  36.505  -0.000  33.751  -0.000  -0.000 113.172

                      1
                     SGG
 Frequencies --    833.7507
 Red. masses --     31.9721
 Frc consts  --     13.0946
 IR Inten    --      0.0000

 - Thermochemistry -
 -------------------
 Temperature   298.150 Kelvin.  Pressure   1.00000 Atm.
 Atom     1 has atomic number 16 and mass  31.97207

 Molecular mass:    63.94414 amu.
 Principal axes and moments of inertia in atomic units:
                           1         2         3
     Eigenvalues --    -0.00000 189.65493 189.65493
           X           -0.00000   0.70711   0.70711
           Y           -0.00000   0.70711  -0.70711
           Z            1.00000   0.00000   0.00000
 This molecule is a prolate symmetric top.
 Rotational symmetry number  2.
 Rotational temperature (Kelvin)      0.45669
 Rotational constant (GHZ):           9.515920
 Zero-point vibrational energy       4986.9 (Joules/Mol)
                                    1.19191 (Kcal/Mol)
 Vibrational temperatures:   1199.58
          (Kelvin)

 Zero-point correction=                           0.001899 (Hartree/Particle)
 Thermal correction to Energy=                    0.004329
 Thermal correction to Enthalpy=                  0.005273
 Thermal correction to Gibbs Free Energy=        -0.020115
 Sum of electronic and zero-point Energies=           -796.080661
 Sum of electronic and thermal Energies=              -796.078232
 Sum of electronic and thermal Enthalpies=            -796.077287
 Sum of electronic and thermal Free Energies=         -796.102675

                     E (Thermal)             CV                S
                      KCal/Mol        Cal/Mol-Kelvin    Cal/Mol-Kelvin
 Total                    2.717              5.565             53.434
 Electronic               0.000              0.000              1.377
 Translational            0.889              2.981             38.385
 Rotational               0.592              1.987             13.490
 Vibrational              1.235              0.597              0.182

 Optimization completed.
    -- Stationary point found.
 Normal termination of Gaussian 09 at Sun Oct 23 21:12:10 2016.
