 Gaussian 09, Revision E.01,
 Gaussian 09:  EM64L-G09RevE.01 30-Nov-2015

 ---------------------------------------------
 #p b3lyp/6-311++G(3df,2p) freq symmetry=Loose
 ---------------------------------------------

 ---------
 b3lyp opt
 ---------
 Symbolic Z-matrix:
 Charge =  0 Multiplicity = 3

                         Standard orientation:
 ---------------------------------------------------------------------
 Center     Atomic      Atomic             Coordinates (Angstroms)
 Number     Number       Type             X           Y           Z
 ---------------------------------------------------------------------
      1         16           0        0.000000    0.000000    0.951409
      2         16           0        0.000000    0.000000   -0.951409
 ---------------------------------------------------------------------

 SCF Done:  E(UB3LYP) =  -796.433240337     A.U. after    9 cycles

 The electronic state is 3-SGG.
 Alpha  occ. eigenvalues --  -88.90340 -88.90340  -7.98653  -7.98643  -5.94810
 Alpha  occ. eigenvalues --   -5.94810  -5.94805  -5.94805  -5.94727  -5.94649
 Alpha  occ. eigenvalues --   -0.84302  -0.63877  -0.40497  -0.38200  -0.38200
 Alpha  occ. eigenvalues --   -0.25177  -0.25177
 Alpha virt. eigenvalues --   -0.02604   0.01127   0.04464   0.04464   0.05669
 Alpha virt. eigenvalues --    0.05688   0.08086   0.08086   0.13834   0.15033
 Alpha virt. eigenvalues --    0.15033   0.17524   0.17524   0.22812   0.26693

  Beta  occ. eigenvalues --  -88.89673 -88.89673  -7.98055  -7.98042  -5.94382
  Beta  occ. eigenvalues --   -5.94303  -5.93577  -5.93577  -5.93570  -5.93570
  Beta  occ. eigenvalues --   -0.81538  -0.58310  -0.38252  -0.33372  -0.33372
  Beta virt. eigenvalues --   -0.14356  -0.14356  -0.01350   0.01293   0.04516
  Beta virt. eigenvalues --    0.04516   0.05716   0.06185   0.08349   0.08349
  Beta virt. eigenvalues --    0.14157   0.17394   0.17396   0.19649   0.19649

 Mulliken charges and spin densities:
               1          2
     1  S    0.000000   1.000000
     2  S    0.000000   1.000000
 Sum of Mulliken charges =   0.00000   2.00000

 Dipole moment (field-independent basis, Debye):
    X=             -0.0000    Y=             -0.0000    Z=             -0.0000  Tot=              0.0000
 Quadrupole moment (field-independent basis, Debye-Ang):
   XX=            -26.0565   YY=            -26.0565   ZZ=            -24.1786
   XY=              0.0000   XZ=              0.0000   YZ=              0.0000

  Exact polarizability:  30.054  -0.000  30.054   0.000   0.000  58.008
 Approx polarizability:  46.452  -0.000  46.452  -0.000  -0.000 122.237

                      1
                     SGG
 Frequencies --    715.2770
 Red. masses --     31.9721
 Frc consts  --      9.6376
 IR Inten    --      0.0000

 - Thermochemistry -
 -------------------
 Temperature   298.150 Kelvin.  Pressure   1.00000 Atm.
 Atom     1 has atomic number 16 and mass  31.97207

 Molecular mass:    63.94414 amu.
 Principal axes and moments of inertia in atomic units:
                           1         2         3
     Eigenvalues --     0.00000 206.69645 206.69645
           X           -0.00000   1.00000  -0.00000
           Y            0.00000   0.00000   1.00000
           Z            1.00000   0.00000  -0.00000
 This molecule is a prolate symmetric top.
 Rotational symmetry number  2.
 Rotational temperature (Kelvin)      0.41904
 Rotational constant (GHZ):           8.731360
 Zero-point vibrational energy       4278.3 (Joules/Mol)
                                    1.02254 (Kcal/Mol)
 Vibrational temperatures:   1029.12
          (Kelvin)

 Zero-point correction=                           0.001630 (Hartree/Particle)
 Thermal correction to Energy=                    0.004097
 Thermal correction to Enthalpy=                  0.005041
 Thermal correction to Gibbs Free Energy=        -0.020862
 Sum of electronic and zero-point Energies=           -796.431611
 Sum of electronic and thermal Energies=              -796.429144
 Sum of electronic and thermal Enthalpies=            -796.428199
 Sum of electronic and thermal Free Energies=         -796.454102

                     E (Thermal)             CV                S
                      KCal/Mol        Cal/Mol-Kelvin    Cal/Mol-Kelvin
 Total                    2.571              5.768             54.517
 Electronic               0.000              0.000              2.183
 Translational            0.889              2.981             38.385
 Rotational               0.592              1.987             13.661
 Vibrational              1.089              0.800              0.288

 Optimization completed.
    -- Stationary point found.
 Normal termination of Gaussian 09 at Sun Oct 23 21:12:09 2016.
