 Gaussian 09, Revision E.01,
 Gaussian 09:  EM64L-G09RevE.01 30-Nov-2015

 ---------------------------------------------
 #p b3lyp/6-311++G(3df,2p) freq symmetry=Loose
 ---------------------------------------------

 ---------
 b3lyp opt
 ---------
 Symbolic Z-matrix:
 Charge =  0 Multiplicity = 1

                         Standard orientation:
 ---------------------------------------------------------------------
 Center     Atomic      Atomic             Coordinates (Angstroms)
 Number     Number       Type             X           Y           Z
 ---------------------------------------------------------------------
      1         16           0        0.000000    0.000000    0.951648
      2         16           0        0.000000    0.000000   -0.951648
 ---------------------------------------------------------------------

 SCF Done:  E(RB3LYP) =  -796.397310570     A.U. after    8 cycles

 Unable to determine electronic state:  partially filled degenerate orbitals.
 Alpha  occ. eigenvalues --  -88.90597 -88.90597  -7.98896  -7.98885  -5.95396
 Alpha  occ. eigenvalues --   -5.95389  -5.95087  -5.95009  -5.94092  -5.94087
 Alpha  occ. eigenvalues --   -0.83279  -0.61469  -0.39721  -0.36665  -0.35536
 Alpha  occ. eigenvalues --   -0.21927
 Alpha virt. eigenvalues --   -0.18235  -0.02192   0.01063   0.04159   0.04634
 Alpha virt. eigenvalues --    0.05577   0.05686   0.07995   0.08010   0.13900
 Alpha virt. eigenvalues --    0.15928   0.16008   0.17683   0.18971   0.23084

 Mulliken charges:
               1
     1  S    0.000000
     2  S    0.000000
 Sum of Mulliken charges =   0.00000

 Dipole moment (field-independent basis, Debye):
    X=             -0.0000    Y=             -0.0000    Z=              0.0000  Tot=              0.0000
 Quadrupole moment (field-independent basis, Debye-Ang):
   XX=            -23.7445   YY=            -28.6991   ZZ=            -24.4605
   XY=              0.0000   XZ=              0.0000   YZ=              0.0000

  Exact polarizability:  27.938  -0.000  33.294   0.000   0.000  55.958
 Approx polarizability:  48.403  -0.000  47.060  -0.000  -0.000 128.218

                      1
                     SGG
 Frequencies --    712.8468
 Red. masses --     31.9721
 Frc consts  --      9.5722
 IR Inten    --      0.0000

 - Thermochemistry -
 -------------------
 Temperature   298.150 Kelvin.  Pressure   1.00000 Atm.
 Atom     1 has atomic number 16 and mass  31.97207

 Molecular mass:    63.94414 amu.
 Principal axes and moments of inertia in atomic units:
                           1         2         3
     Eigenvalues --     0.00000 206.80031 206.80031
           X           -0.00000   1.00000  -0.00000
           Y            0.00000   0.00000   1.00000
           Z            1.00000   0.00000  -0.00000
 This molecule is a prolate symmetric top.
 Rotational symmetry number  2.
 Rotational temperature (Kelvin)      0.41883
 Rotational constant (GHZ):           8.726975
 Zero-point vibrational energy       4263.8 (Joules/Mol)
                                    1.01907 (Kcal/Mol)
 Vibrational temperatures:   1025.63
          (Kelvin)

 Zero-point correction=                           0.001624 (Hartree/Particle)
 Thermal correction to Energy=                    0.004092
 Thermal correction to Enthalpy=                  0.005036
 Thermal correction to Gibbs Free Energy=        -0.019831
 Sum of electronic and zero-point Energies=           -796.395687
 Sum of electronic and thermal Energies=              -796.393219
 Sum of electronic and thermal Enthalpies=            -796.392274
 Sum of electronic and thermal Free Energies=         -796.417142

                     E (Thermal)             CV                S
                      KCal/Mol        Cal/Mol-Kelvin    Cal/Mol-Kelvin
 Total                    2.568              5.773             52.338
 Electronic               0.000              0.000              0.000
 Translational            0.889              2.981             38.385
 Rotational               0.592              1.987             13.662
 Vibrational              1.087              0.805              0.291

 Optimization completed.
    -- Stationary point found.

 1\1\GINC-BELVIS17\Freq\RB3LYP\6-311++G(3df,2p)\S2\ROOT\23-Oct-2016\0\\
 #p b3lyp/6-311++G(3df,2p) freq symmetry=Loose\\b3lyp opt\\0,1\S,0.9516
 48,0.,0.\S,-0.951648,0.,0.\\Version=EM64L-G09RevE.01\HF=-796.3973106\R
 MSD=9.052e-10\RMSF=1.546e-04\ZeroPoint=0.001624\Thermal=0.004092\Dipol
 e=0.,0.,0.\DipoleDeriv=0.,0.,0.,0.,0.,0.,0.,0.,0.,0.,0.,0.,0.,0.,0.,0.
 ,0.,0.\Polar=55.9576241,0.,33.2936322,0.,0.,27.9384956\PG=D*H [C*(S1.S
 1)]\NImag=0\\0.30741473,0.,-0.00007410,0.,0.,-0.00010185,-0.30741473,0
 .,0.,0.30741473,0.,0.00007410,0.,0.,-0.00007410,0.,0.,0.00010185,0.,0.

 Normal termination of Gaussian 09 at Sun Oct 23 21:12:07 2016.
