 Gaussian 09, Revision E.01,
 Gaussian 09:  EM64L-G09RevE.01 30-Nov-2015

 ---------------------------------------------
 #p b3lyp/6-311++G(3df,2p) freq symmetry=Loose
 ---------------------------------------------

 ---------
 b3lyp opt
 ---------
 Symbolic Z-matrix:
 Charge =  0 Multiplicity = 3

                         Standard orientation:
 ---------------------------------------------------------------------
 Center     Atomic      Atomic             Coordinates (Angstroms)
 Number     Number       Type             X           Y           Z
 ---------------------------------------------------------------------
      1         16           0        0.000000   -0.000000    0.907166
      2         16           0        0.000000   -1.462032   -0.453588
      3         16           0        0.000000    1.462032   -0.453588
 ---------------------------------------------------------------------

 SCF Done:  E(UB3LYP) =  -1194.62911093     A.U. after   12 cycles

 The electronic state is 3-A2.
 Alpha  occ. eigenvalues --  -88.94925 -88.89478 -88.89478  -8.02923  -7.97804
 Alpha  occ. eigenvalues --   -7.97799  -5.99117  -5.98999  -5.98804  -5.94275
 Alpha  occ. eigenvalues --   -5.94274  -5.93818  -5.93818  -5.93549  -5.93549
 Alpha  occ. eigenvalues --   -0.88016  -0.73589  -0.62792  -0.42976  -0.42721
 Alpha  occ. eigenvalues --   -0.40590  -0.31649  -0.29642  -0.27847  -0.24136
 Alpha virt. eigenvalues --   -0.05878  -0.05568   0.00985   0.03709   0.03849
 Alpha virt. eigenvalues --    0.04006   0.05562   0.05700   0.06971   0.07115
 Alpha virt. eigenvalues --    0.07526   0.10509   0.11808   0.13567   0.14248

  Beta  occ. eigenvalues --  -88.94616 -88.88945 -88.88945  -8.02646  -7.97323
  Beta  occ. eigenvalues --   -7.97320  -5.98953  -5.98663  -5.98001  -5.93732
  Beta  occ. eigenvalues --   -5.93732  -5.92896  -5.92896  -5.92767  -5.92767
  Beta  occ. eigenvalues --   -0.86148  -0.70542  -0.59305  -0.41577  -0.40176
  Beta  occ. eigenvalues --   -0.37186  -0.27925  -0.25960
  Beta virt. eigenvalues --   -0.17975  -0.15533  -0.04917  -0.04247   0.01166
  Beta virt. eigenvalues --    0.03970   0.04003   0.04152   0.05753   0.06081
  Beta virt. eigenvalues --    0.07133   0.07278   0.07829   0.10629   0.12130

 Mulliken charges and spin densities:
               1          2
     1  S    0.141759   0.387322
     2  S   -0.070879   0.806339
     3  S   -0.070879   0.806339
 Sum of Mulliken charges =  -0.00000   2.00000

 Dipole moment (field-independent basis, Debye):
    X=             -0.0000    Y=              0.0000    Z=              0.7883  Tot=              0.7883
 Quadrupole moment (field-independent basis, Debye-Ang):
   XX=            -40.1952   YY=            -37.6718   ZZ=            -37.4852
   XY=             -0.0000   XZ=              0.0000   YZ=              0.0000

  Exact polarizability:  45.341   0.000 108.958   0.000   0.000  56.086
 Approx polarizability:  70.581   0.000 291.163  -0.000  -0.000 108.709

                      1                      2                      3
                     A1                     B2                     A1
 Frequencies --    206.8856               471.8277               589.4334
 Red. masses --     31.9721                31.9721                31.9721
 Frc consts  --      0.8063                 4.1936                 6.5447
 IR Inten    --      0.3498                 8.3429                 0.5208

 - Thermochemistry -
 -------------------
 Temperature   298.150 Kelvin.  Pressure   1.00000 Atm.
 Atom     1 has atomic number 16 and mass  31.97207

 Molecular mass:    95.91622 amu.
 Principal axes and moments of inertia in atomic units:
                           1         2         3
     Eigenvalues --   140.94070 488.10389 629.04459
           X            0.00000  -0.00000   1.00000
           Y            1.00000   0.00000  -0.00000
           Z           -0.00000   1.00000   0.00000
 This molecule is an asymmetric top.
 Rotational symmetry number  2.
 Rotational temperatures (Kelvin)      0.61454     0.17745     0.13769
 Rotational constants (GHZ):          12.80497     3.69745     2.86902
 Zero-point vibrational energy       7585.2 (Joules/Mol)
                                    1.81291 (Kcal/Mol)
 Warning -- explicit consideration of   3 degrees of freedom as
           vibrations may cause significant error
 Vibrational temperatures:    297.66   678.85   848.06
          (Kelvin)

 Zero-point correction=                           0.002889 (Hartree/Particle)
 Thermal correction to Energy=                    0.006683
 Thermal correction to Enthalpy=                  0.007627
 Thermal correction to Gibbs Free Energy=        -0.025130
 Sum of electronic and zero-point Energies=          -1194.626222
 Sum of electronic and thermal Energies=             -1194.622428
 Sum of electronic and thermal Enthalpies=           -1194.621483
 Sum of electronic and thermal Free Energies=        -1194.654241

                     E (Thermal)             CV                S
                      KCal/Mol        Cal/Mol-Kelvin    Cal/Mol-Kelvin
 Total                    4.194             10.159             68.945
 Electronic               0.000              0.000              2.183
 Translational            0.889              2.981             39.594
 Rotational               0.889              2.981             23.896
 Vibrational              2.416              4.197              3.272
 Vibration     1          0.641              1.830              2.071
 Vibration     2          0.829              1.313              0.732
 Vibration     3          0.947              1.054              0.468

 Optimization completed.
    -- Stationary point found.
 Normal termination of Gaussian 09 at Sun Oct 23 21:14:02 2016.
