 Gaussian 09, Revision E.01,
 Gaussian 09:  EM64L-G09RevE.01 30-Nov-2015

 ---------------------------------------------
 #p b3lyp/6-311++G(3df,2p) freq symmetry=Loose
 ---------------------------------------------

 ---------
 b3lyp opt
 ---------
 Symbolic Z-matrix:
 Charge =  1 Multiplicity = 4

                         Standard orientation:
 ---------------------------------------------------------------------
 Center     Atomic      Atomic             Coordinates (Angstroms)
 Number     Number       Type             X           Y           Z
 ---------------------------------------------------------------------
      1         16           0       -0.000000    0.000000    0.772902
      2         16           0        0.000000   -1.638750   -0.386451
      3         16           0        0.000000    1.638750   -0.386451
 ---------------------------------------------------------------------

 SCF Done:  E(UB3LYP) =  -1194.27238155     A.U. after   12 cycles

 The electronic state is 4-A2.
 Alpha  occ. eigenvalues --  -89.18695 -89.16816 -89.16816  -8.26706  -8.24818
 Alpha  occ. eigenvalues --   -8.24813  -6.22862  -6.22729  -6.22683  -6.21604
 Alpha  occ. eigenvalues --   -6.21603  -6.21037  -6.21036  -6.20317  -6.20317
 Alpha  occ. eigenvalues --   -1.11792  -1.00576  -0.87111  -0.68249  -0.65784
 Alpha  occ. eigenvalues --   -0.63432  -0.56061  -0.55745  -0.54383  -0.47150
 Alpha virt. eigenvalues --   -0.30028  -0.27063  -0.16404  -0.11737  -0.11628
 Alpha virt. eigenvalues --   -0.10724  -0.10544  -0.09360  -0.08989  -0.07961
 Alpha virt. eigenvalues --   -0.07618  -0.06249  -0.05960  -0.05435  -0.03800

  Beta  occ. eigenvalues --  -89.18319 -89.15972 -89.15972  -8.26348  -8.24054
  Beta  occ. eigenvalues --   -8.24050  -6.22710  -6.22390  -6.21620  -6.20402
  Beta  occ. eigenvalues --   -6.20402  -6.19646  -6.19646  -6.19323  -6.19323
  Beta  occ. eigenvalues --   -1.08841  -0.95365  -0.81648  -0.65256  -0.61878
  Beta  occ. eigenvalues --   -0.59516  -0.49861
  Beta virt. eigenvalues --   -0.43479  -0.42091  -0.37690  -0.27293  -0.24625
  Beta virt. eigenvalues --   -0.15754  -0.11056  -0.10880  -0.10104  -0.09816
  Beta virt. eigenvalues --   -0.08808  -0.07482  -0.06842  -0.05704  -0.05306

 Mulliken charges and spin densities:
               1          2
     1  S    0.349651   0.470370
     2  S    0.325175   1.264815
     3  S    0.325175   1.264815
 Sum of Mulliken charges =   1.00000   3.00000

 Dipole moment (field-independent basis, Debye):
    X=              0.0000    Y=             -0.0000    Z=             -0.2878  Tot=              0.2878
 Quadrupole moment (field-independent basis, Debye-Ang):
   XX=            -36.3767   YY=            -20.7068   ZZ=            -30.3163
   XY=              0.0000   XZ=              0.0000   YZ=             -0.0000

  Exact polarizability:  35.996  -0.000  90.748  -0.000  -0.000  43.098
 Approx polarizability:  56.304   0.000 205.223  -0.000  -0.000  85.323

                      1                      2                      3
                     A1                     B2                     A1
 Frequencies --    187.6995               467.0510               505.3266
 Red. masses --     31.9721                31.9721                31.9721
 Frc consts  --      0.6637                 4.1091                 4.8102
 IR Inten    --      0.6666                 4.1984                 0.0585

 - Thermochemistry -
 -------------------
 Temperature   298.150 Kelvin.  Pressure   1.00000 Atm.
 Atom     1 has atomic number 16 and mass  31.97207

 Molecular mass:    95.91622 amu.
 Principal axes and moments of inertia in atomic units:
                           1         2         3
     Eigenvalues --   102.30781 613.23094 715.53875
           X           -0.00000  -0.00000   1.00000
           Y            1.00000   0.00000   0.00000
           Z           -0.00000   1.00000   0.00000
 This molecule is an asymmetric top.
 Rotational symmetry number  2.
 Rotational temperatures (Kelvin)      0.84660     0.14124     0.12105
 Rotational constants (GHZ):          17.64031     2.94300     2.52221
 Zero-point vibrational energy       6938.8 (Joules/Mol)
                                    1.65841 (Kcal/Mol)
 Warning -- explicit consideration of   3 degrees of freedom as
           vibrations may cause significant error
 Vibrational temperatures:    270.06   671.98   727.05
          (Kelvin)

 Zero-point correction=                           0.002643 (Hartree/Particle)
 Thermal correction to Energy=                    0.006526
 Thermal correction to Enthalpy=                  0.007470
 Thermal correction to Gibbs Free Energy=        -0.025753
 Sum of electronic and zero-point Energies=          -1194.269739
 Sum of electronic and thermal Energies=             -1194.265856
 Sum of electronic and thermal Enthalpies=           -1194.264912
 Sum of electronic and thermal Free Energies=        -1194.298134

                     E (Thermal)             CV                S
                      KCal/Mol        Cal/Mol-Kelvin    Cal/Mol-Kelvin
 Total                    4.095             10.380             69.922
 Electronic               0.000              0.000              2.755
 Translational            0.889              2.981             39.594
 Rotational               0.889              2.981             23.933
 Vibrational              2.317              4.418              3.641
 Vibration     1          0.632              1.857              2.250
 Vibration     2          0.824              1.323              0.746
 Vibration     3          0.861              1.238              0.645

 Optimization completed.
    -- Stationary point found.
 Normal termination of Gaussian 09 at Sun Oct 23 21:18:04 2016.
