 Gaussian 09, Revision E.01,
 Gaussian 09:  EM64L-G09RevE.01 30-Nov-2015

 ---------------------------------------------
 #p b3lyp/6-311++G(3df,2p) freq symmetry=Loose
 ---------------------------------------------

 ---------
 b3lyp opt
 ---------
 Symbolic Z-matrix:
 Charge =  1 Multiplicity = 4

                         Standard orientation:
 ---------------------------------------------------------------------
 Center     Atomic      Atomic             Coordinates (Angstroms)
 Number     Number       Type             X           Y           Z
 ---------------------------------------------------------------------
      1         16           0       -0.000000    0.000000    1.005471
      2         16           0        0.000000   -1.358919   -0.502735
      3         16           0        0.000000    1.358919   -0.502735
 ---------------------------------------------------------------------

 SCF Done:  E(UB3LYP) =  -1194.28789561     A.U. after   12 cycles

 The electronic state is 4-A1.
 Alpha  occ. eigenvalues --  -89.18176 -89.17222 -89.17222  -8.26159  -8.25190
 Alpha  occ. eigenvalues --   -8.25187  -6.22361  -6.22124  -6.22088  -6.21718
 Alpha  occ. eigenvalues --   -6.21718  -6.21398  -6.21398  -6.21011  -6.21011
 Alpha  occ. eigenvalues --   -1.12590  -0.98503  -0.88295  -0.66674  -0.66224
 Alpha  occ. eigenvalues --   -0.65096  -0.57183  -0.56055  -0.50373  -0.49509
 Alpha virt. eigenvalues --   -0.30449  -0.28277  -0.16205  -0.11887  -0.11545
 Alpha virt. eigenvalues --   -0.10973  -0.10958  -0.08990  -0.08874  -0.07793
 Alpha virt. eigenvalues --   -0.07623  -0.06615  -0.05778  -0.05079  -0.03680

  Beta  occ. eigenvalues --  -89.17891 -89.16306 -89.16306  -8.25901  -8.24362
  Beta  occ. eigenvalues --   -8.24359  -6.22232  -6.21986  -6.21152  -6.20691
  Beta  occ. eigenvalues --   -6.20691  -6.19822  -6.19822  -6.19744  -6.19744
  Beta  occ. eigenvalues --   -1.09732  -0.92794  -0.83589  -0.64212  -0.63492
  Beta  occ. eigenvalues --   -0.58934  -0.52763
  Beta virt. eigenvalues --   -0.42359  -0.39161  -0.37553  -0.28933  -0.26500
  Beta virt. eigenvalues --   -0.15609  -0.11422  -0.10791  -0.10301  -0.10062
  Beta virt. eigenvalues --   -0.08689  -0.07213  -0.06775  -0.05923  -0.05141

 Mulliken charges and spin densities:
               1          2
     1  S    0.308223   0.354969
     2  S    0.345888   1.322516
     3  S    0.345888   1.322516
 Sum of Mulliken charges =   1.00000   3.00000

 Dipole moment (field-independent basis, Debye):
    X=              0.0000    Y=             -0.0000    Z=             -0.0817  Tot=              0.0817
 Quadrupole moment (field-independent basis, Debye-Ang):
   XX=            -34.1422   YY=            -24.7795   ZZ=            -30.2270
   XY=              0.0000   XZ=             -0.0000   YZ=             -0.0000

  Exact polarizability:  33.736   0.000  79.319   0.000  -0.000  49.825
 Approx polarizability:  56.300   0.000 189.741  -0.000  -0.000 102.697

                      1                      2                      3
                     A1                     B2                     A1
 Frequencies --    224.0625               437.4886               591.0995
 Red. masses --     31.9721                31.9721                31.9721
 Frc consts  --      0.9457                 3.6054                 6.5818
 IR Inten    --      0.5434                 8.5938                 0.0056

 - Thermochemistry -
 -------------------
 Temperature   298.150 Kelvin.  Pressure   1.00000 Atm.
 Atom     1 has atomic number 16 and mass  31.97207

 Molecular mass:    95.91622 amu.
 Principal axes and moments of inertia in atomic units:
                           1         2         3
     Eigenvalues --   173.14054 421.68282 594.82336
           X            0.00000   0.00000   1.00000
           Y            1.00000   0.00000  -0.00000
           Z           -0.00000   1.00000  -0.00000
 This molecule is an asymmetric top.
 Rotational symmetry number  2.
 Rotational temperatures (Kelvin)      0.50025     0.20540     0.14561
 Rotational constants (GHZ):          10.42356     4.27985     3.03408
 Zero-point vibrational energy       7492.5 (Joules/Mol)
                                    1.79075 (Kcal/Mol)
 Warning -- explicit consideration of   3 degrees of freedom as
           vibrations may cause significant error
 Vibrational temperatures:    322.38   629.45   850.46
          (Kelvin)

 Zero-point correction=                           0.002854 (Hartree/Particle)
 Thermal correction to Energy=                    0.006650
 Thermal correction to Enthalpy=                  0.007594
 Thermal correction to Gibbs Free Energy=        -0.025415
 Sum of electronic and zero-point Energies=          -1194.285042
 Sum of electronic and thermal Energies=             -1194.281246
 Sum of electronic and thermal Enthalpies=           -1194.280302
 Sum of electronic and thermal Free Energies=        -1194.313311

                     E (Thermal)             CV                S
                      KCal/Mol        Cal/Mol-Kelvin    Cal/Mol-Kelvin
 Total                    4.173             10.205             69.474
 Electronic               0.000              0.000              2.755
 Translational            0.889              2.981             39.594
 Rotational               0.889              2.981             23.900
 Vibrational              2.395              4.244              3.226
 Vibration     1          0.649              1.804              1.926
 Vibration     2          0.798              1.388              0.835
 Vibration     3          0.949              1.051              0.465

 Optimization completed.
    -- Stationary point found.
 Normal termination of Gaussian 09 at Mon Oct 24 01:01:47 2016.
