 Gaussian 09, Revision E.01,
 Gaussian 09:  EM64L-G09RevE.01 30-Nov-2015

 ---------------------------------------------
 #p b3lyp/6-311++G(3df,2p) freq symmetry=Loose
 ---------------------------------------------

 ---------
 b3lyp opt
 ---------
 Symbolic Z-matrix:
 Charge =  0 Multiplicity = 1

                         Standard orientation:
 ---------------------------------------------------------------------
 Center     Atomic      Atomic             Coordinates (Angstroms)
 Number     Number       Type             X           Y           Z
 ---------------------------------------------------------------------
      1         16           0        0.000000   -0.000000    0.655678
      2         16           0        0.000000   -1.650642   -0.327853
      3         16           0        0.000000    1.650642   -0.327853
 ---------------------------------------------------------------------

 SCF Done:  E(RB3LYP) =  -1194.65715856     A.U. after   10 cycles

 The electronic state is 1-A1.
 Alpha  occ. eigenvalues --  -88.97549 -88.88154 -88.88154  -8.05225  -7.96697
 Alpha  occ. eigenvalues --   -7.96693  -6.01365  -6.01361  -6.00947  -5.92982
 Alpha  occ. eigenvalues --   -5.92981  -5.92782  -5.92781  -5.92127  -5.92126
 Alpha  occ. eigenvalues --   -0.88803  -0.74801  -0.59410  -0.43840  -0.41341
 Alpha  occ. eigenvalues --   -0.40750  -0.28878  -0.27480  -0.27288
 Alpha virt. eigenvalues --   -0.16803  -0.05071  -0.00766   0.00354   0.03605
 Alpha virt. eigenvalues --    0.03824   0.04157   0.05403   0.06239   0.06749
 Alpha virt. eigenvalues --    0.07784   0.07820   0.09250   0.10910   0.14273

 Mulliken charges:
               1
     1  S    0.211155
     2  S   -0.105577
     3  S   -0.105577
 Sum of Mulliken charges =  -0.00000

 Dipole moment (field-independent basis, Debye):
    X=             -0.0000    Y=              0.0000    Z=              0.4705  Tot=              0.4705
 Quadrupole moment (field-independent basis, Debye-Ang):
   XX=            -37.6411   YY=            -39.0388   ZZ=            -39.5394
   XY=             -0.0000   XZ=              0.0000   YZ=             -0.0000

  Exact polarizability:  41.524  -0.000 108.863  -0.000   0.000  51.047
 Approx polarizability:  71.573   0.000 315.279  -0.000  -0.000  92.770

                      1                      2                      3
                     A1                     A1                     B2
 Frequencies --    262.3283               595.3557               687.5534
 Red. masses --     31.9721                31.9721                31.9721
 Frc consts  --      1.2963                 6.6769                 8.9050
 IR Inten    --      0.4973                 1.8229               133.7410

 - Thermochemistry -
 -------------------
 Temperature   298.150 Kelvin.  Pressure   1.00000 Atm.
 Atom     1 has atomic number 16 and mass  31.97207

 Molecular mass:    95.91622 amu.
 Principal axes and moments of inertia in atomic units:
                           1         2         3
     Eigenvalues --    73.62984 622.16288 695.79272
           X            0.00000   0.00000   1.00000
           Y            1.00000   0.00000  -0.00000
           Z            0.00000   1.00000   0.00000
 This molecule is an asymmetric top.
 Rotational symmetry number  2.
 Rotational temperatures (Kelvin)      1.17634     0.13921     0.12448
 Rotational constants (GHZ):          24.51100     2.90075     2.59379
 Zero-point vibrational energy       9242.6 (Joules/Mol)
                                    2.20903 (Kcal/Mol)
 Warning -- explicit consideration of   2 degrees of freedom as
           vibrations may cause significant error
 Vibrational temperatures:    377.43   856.58   989.23
          (Kelvin)

 Zero-point correction=                           0.003520 (Hartree/Particle)
 Thermal correction to Energy=                    0.007103
 Thermal correction to Enthalpy=                  0.008047
 Thermal correction to Gibbs Free Energy=        -0.023127
 Sum of electronic and zero-point Energies=          -1194.653638
 Sum of electronic and thermal Energies=             -1194.650056
 Sum of electronic and thermal Enthalpies=           -1194.649112
 Sum of electronic and thermal Free Energies=        -1194.680286

                     E (Thermal)             CV                S
                      KCal/Mol        Cal/Mol-Kelvin    Cal/Mol-Kelvin
 Total                    4.457              9.598             65.611
 Electronic               0.000              0.000              0.000
 Translational            0.889              2.981             39.594
 Rotational               0.889              2.981             23.592
 Vibrational              2.679              3.637              2.425
 Vibration     1          0.670              1.742              1.646
 Vibration     2          0.953              1.042              0.458

 Optimization completed.
    -- Stationary point found.

 1\1\GINC-BELVIS17\Freq\RB3LYP\6-311++G(3df,2p)\S3\ROOT\23-Oct-2016\0\\
 #p b3lyp/6-311++G(3df,2p) freq symmetry=Loose\\b3lyp opt\\0,1\S,-0.525
 2995034,-0.3923968427,0.\S,1.250501,-1.126212,0.\S,-0.7251797613,1.518
 6238258,0.\\Version=EM64L-G09RevE.01\State=1-A1\HF=-1194.6571586\RMSD=
 5.140e-09\RMSF=1.535e-04\ZeroPoint=0.0035203\Thermal=0.0071026\Dipole=
 -0.1483004,-0.1107797,0.\DipoleDeriv=0.7241922,-0.6747514,0.,-0.674751
 4,1.1234428,0.,0.,0.,0.0994067,-0.6001558,0.6148921,0.,0.2007194,-0.32
 36617,0.,0.,0.,-0.0497033,-0.1240363,0.0598593,0.,0.4740321,-0.7997812

 Normal termination of Gaussian 09 at Sun Oct 23 21:13:45 2016.
