 Gaussian 09, Revision E.01,
 Gaussian 09:  EM64L-G09RevE.01 30-Nov-2015

 ---------------------------------------------
 #p b3lyp/6-311++G(3df,2p) freq symmetry=Loose
 ---------------------------------------------

 ---------
 b3lyp opt
 ---------
 Symbolic Z-matrix:
 Charge =  0 Multiplicity = 1

                         Standard orientation:
 ---------------------------------------------------------------------
 Center     Atomic      Atomic             Coordinates (Angstroms)
 Number     Number       Type             X           Y           Z
 ---------------------------------------------------------------------
      1         16           0        0.000000    1.207182    0.000000
      2         16           0        1.045450   -0.603591    0.000000
      3         16           0       -1.045450   -0.603591   -0.000000
 ---------------------------------------------------------------------

 SCF Done:  E(RB3LYP) =  -1194.64244352     A.U. after    8 cycles

 The electronic state is 1-A1'.
 Alpha  occ. eigenvalues --  -88.91040 -88.91040 -88.91040  -7.99251  -7.99246
 Alpha  occ. eigenvalues --   -7.99246  -5.95629  -5.95603  -5.95603  -5.95542
 Alpha  occ. eigenvalues --   -5.95542  -5.95533  -5.94453  -5.94450  -5.94450
 Alpha  occ. eigenvalues --   -0.89227  -0.66199  -0.66199  -0.42643  -0.38963
 Alpha  occ. eigenvalues --   -0.37758  -0.37758  -0.24413  -0.24413
 Alpha virt. eigenvalues --   -0.10426  -0.07578  -0.07578   0.01350   0.04103
 Alpha virt. eigenvalues --    0.04877   0.04877   0.05555   0.06269   0.06269
 Alpha virt. eigenvalues --    0.07684   0.07684   0.11183   0.11226   0.14159

 Mulliken charges:
               1
     1  S   -0.000000
     2  S   -0.000000
     3  S   -0.000000
 Sum of Mulliken charges =  -0.00000

 Dipole moment (field-independent basis, Debye):
    X=             -0.0000    Y=              0.0000    Z=             -0.0000  Tot=              0.0000
 Quadrupole moment (field-independent basis, Debye-Ang):
   XX=            -35.7638   YY=            -35.7638   ZZ=            -42.2885
   XY=              0.0000   XZ=             -0.0000   YZ=             -0.0000

  Exact polarizability:  63.050  -0.000  63.053  -0.000   0.000  45.442
 Approx polarizability: 132.501   0.000 132.501   0.000   0.000  68.828

                      1                      2                      3
                     E'                     E'                     A1'
 Frequencies --    455.1302               455.1302               597.8331
 Red. masses --     31.9721                31.9721                31.9721
 Frc consts  --      3.9020                 3.9020                 6.7326
 IR Inten    --      0.3671                 0.3675                 0.0000

 - Thermochemistry -
 -------------------
 Temperature   298.150 Kelvin.  Pressure   1.00000 Atm.
 Atom     1 has atomic number 16 and mass  31.97207

 Molecular mass:    95.91622 amu.
 Principal axes and moments of inertia in atomic units:
                           1         2         3
     Eigenvalues --   249.57743 249.57743 499.15486
           X            0.18584   0.98258   0.00000
           Y            0.98258  -0.18584   0.00000
           Z           -0.00000  -0.00000   1.00000
 This molecule is an oblate symmetric top.
 Rotational symmetry number  6.
 Rotational temperatures (Kelvin)      0.34704     0.34704     0.17352
 Rotational constants (GHZ):           7.23119     7.23119     3.61559
 Zero-point vibrational energy       9020.4 (Joules/Mol)
                                    2.15593 (Kcal/Mol)
 Warning -- explicit consideration of   3 degrees of freedom as
           vibrations may cause significant error
 Vibrational temperatures:    654.83   654.83   860.15
          (Kelvin)

 Zero-point correction=                           0.003436 (Hartree/Particle)
 Thermal correction to Energy=                    0.006948
 Thermal correction to Enthalpy=                  0.007893
 Thermal correction to Gibbs Free Energy=        -0.022037
 Sum of electronic and zero-point Energies=          -1194.639008
 Sum of electronic and thermal Energies=             -1194.635495
 Sum of electronic and thermal Enthalpies=           -1194.634551
 Sum of electronic and thermal Free Energies=        -1194.664481

                     E (Thermal)             CV                S
                      KCal/Mol        Cal/Mol-Kelvin    Cal/Mol-Kelvin
 Total                    4.360              9.697             62.992
 Electronic               0.000              0.000              0.000
 Translational            0.889              2.981             39.594
 Rotational               0.889              2.981             21.384
 Vibrational              2.583              3.736              2.014
 Vibration     1          0.813              1.350              0.780
 Vibration     2          0.813              1.350              0.780
 Vibration     3          0.956              1.036              0.453

 Optimization completed.
    -- Stationary point found.

 1\1\GINC-BELVIS17\Freq\RB3LYP\6-311++G(3df,2p)\S3\ROOT\24-Oct-2016\0\\
 #p b3lyp/6-311++G(3df,2p) freq symmetry=Loose\\b3lyp opt\\0,1\S,-0.967
 118813,-0.722475027,0.\S,1.109240845,-0.4763124479,0.\S,-0.142122031,1
 .1987864738,0.\\Version=EM64L-G09RevE.01\State=1-A1'\HF=-1194.6424435\
 RMSD=5.892e-09\RMSF=6.953e-06\ZeroPoint=0.0034357\Thermal=0.0069484\Di
 pole=0.,0.,0.\DipoleDeriv=-0.0180154,-0.0607752,0.,-0.0607752,0.017938
 1,0.,0.,0.,-0.0000295,-0.0436405,0.04594,0.,0.0459637,0.0436212,0.,0.,
 0.,-0.0000074,0.0615979,0.0148352,0.,0.0148115,-0.0616172,0.,0.,0.,-0.

 Normal termination of Gaussian 09 at Mon Oct 24 01:01:13 2016.
