 Gaussian 09, Revision E.01,
 Gaussian 09:  EM64L-G09RevE.01 30-Nov-2015

 ---------------------------------------------
 #p b3lyp/6-311++G(3df,2p) freq symmetry=Loose
 ---------------------------------------------

 ---------
 b3lyp opt
 ---------
 Symbolic Z-matrix:
 Charge =  1 Multiplicity = 2

                         Standard orientation:
 ---------------------------------------------------------------------
 Center     Atomic      Atomic             Coordinates (Angstroms)
 Number     Number       Type             X           Y           Z
 ---------------------------------------------------------------------
      1         16           0        0.000000   -0.000000    1.130249
      2         16           0       -0.000000    1.089593   -0.565124
      3         16           0       -0.000000   -1.089593   -0.565124
 ---------------------------------------------------------------------

 SCF Done:  E(UB3LYP) =  -1194.31456276     A.U. after   13 cycles

 The electronic state is 2-B1.
 Alpha  occ. eigenvalues --  -89.21110 -89.16899 -89.16899  -8.28967  -8.24926
 Alpha  occ. eigenvalues --   -8.24925  -6.25226  -6.24985  -6.24943  -6.21253
 Alpha  occ. eigenvalues --   -6.21242  -6.21118  -6.21115  -6.20370  -6.20369
 Alpha  occ. eigenvalues --   -1.16699  -0.92738  -0.91644  -0.67900  -0.66362
 Alpha  occ. eigenvalues --   -0.64541  -0.61177  -0.50818  -0.49905
 Alpha virt. eigenvalues --   -0.34759  -0.31423  -0.28900  -0.16636  -0.12275
 Alpha virt. eigenvalues --   -0.12272  -0.11158  -0.09982  -0.09236  -0.08448
 Alpha virt. eigenvalues --   -0.08062  -0.07229  -0.06613  -0.05528  -0.05222

  Beta  occ. eigenvalues --  -89.20650 -89.16772 -89.16772  -8.28552  -8.24813
  Beta  occ. eigenvalues --   -8.24812  -6.24708  -6.24696  -6.23811  -6.21200
  Beta  occ. eigenvalues --   -6.21189  -6.21064  -6.21061  -6.19947  -6.19947
  Beta  occ. eigenvalues --   -1.15659  -0.92088  -0.89192  -0.67125  -0.63864
  Beta  occ. eigenvalues --   -0.62823  -0.60652  -0.47915
  Beta virt. eigenvalues --   -0.41244  -0.34321  -0.30901  -0.28159  -0.16355
  Beta virt. eigenvalues --   -0.12100  -0.11818  -0.10668  -0.09910  -0.09079
  Beta virt. eigenvalues --   -0.08413  -0.07983  -0.06290  -0.06159  -0.04550

 Mulliken charges and spin densities:
               1          2
     1  S    0.415501   0.623290
     2  S    0.292250   0.188355
     3  S    0.292250   0.188355
 Sum of Mulliken charges =   1.00000   1.00000

 Dipole moment (field-independent basis, Debye):
    X=             -0.0000    Y=              0.0000    Z=              0.5992  Tot=              0.5992
 Quadrupole moment (field-independent basis, Debye-Ang):
   XX=            -36.0006   YY=            -27.0057   ZZ=            -26.8230
   XY=              0.0000   XZ=              0.0000   YZ=              0.0000

  Exact polarizability:  33.693  -0.000  65.938   0.000   0.000  51.567
 Approx polarizability:  53.917   0.000 164.377   0.000   0.000 117.798

                      1                      2                      3
                     B2                     A1                     A1
 Frequencies --    211.6971               415.8689               645.3557
 Red. masses --     31.9721                31.9721                31.9721
 Frc consts  --      0.8442                 3.2579                 7.8455
 IR Inten    --     88.5890                 1.7302                 0.3369

 - Thermochemistry -
 -------------------
 Temperature   298.150 Kelvin.  Pressure   1.00000 Atm.
 Atom     1 has atomic number 16 and mass  31.97207

 Molecular mass:    95.91622 amu.
 Principal axes and moments of inertia in atomic units:
                           1         2         3
     Eigenvalues --   218.78007 271.09869 489.87875
           X            0.00000   0.00000   1.00000
           Y            1.00000  -0.00000   0.00000
           Z            0.00000   1.00000  -0.00000
 This molecule is an asymmetric top.
 Rotational symmetry number  2.
 Rotational temperatures (Kelvin)      0.39589     0.31949     0.17681
 Rotational constants (GHZ):           8.24911     6.65714     3.68406
 Zero-point vibrational energy       7613.8 (Joules/Mol)
                                    1.81973 (Kcal/Mol)
 Warning -- explicit consideration of   2 degrees of freedom as
           vibrations may cause significant error
 Vibrational temperatures:    304.58   598.34   928.52
          (Kelvin)

 Zero-point correction=                           0.002900 (Hartree/Particle)
 Thermal correction to Energy=                    0.006706
 Thermal correction to Enthalpy=                  0.007650
 Thermal correction to Gibbs Free Energy=        -0.024556
 Sum of electronic and zero-point Energies=          -1194.311663
 Sum of electronic and thermal Energies=             -1194.307857
 Sum of electronic and thermal Enthalpies=           -1194.306913
 Sum of electronic and thermal Free Energies=        -1194.339119

                     E (Thermal)             CV                S
                      KCal/Mol        Cal/Mol-Kelvin    Cal/Mol-Kelvin
 Total                    4.208             10.158             67.784
 Electronic               0.000              0.000              1.377
 Translational            0.889              2.981             39.594
 Rotational               0.889              2.981             23.500
 Vibrational              2.431              4.196              3.313
 Vibration     1          0.643              1.823              2.029
 Vibration     2          0.779              1.436              0.906

 Optimization completed.
    -- Stationary point found.
 Normal termination of Gaussian 09 at Mon Oct 24 01:01:50 2016.
