 Gaussian 09, Revision E.01,
 Gaussian 09:  EM64L-G09RevE.01 30-Nov-2015

 ---------------------------------------------
 #p b3lyp/6-311++G(3df,2p) freq symmetry=Loose
 ---------------------------------------------

 ---------
 b3lyp opt
 ---------
 Symbolic Z-matrix:
 Charge =  1 Multiplicity = 2

                         Standard orientation:
 ---------------------------------------------------------------------
 Center     Atomic      Atomic             Coordinates (Angstroms)
 Number     Number       Type             X           Y           Z
 ---------------------------------------------------------------------
      1         16           0       -0.000000    0.000000    0.506754
      2         16           0        0.000000   -1.728502   -0.253378
      3         16           0        0.000000    1.728502   -0.253378
 ---------------------------------------------------------------------

 SCF Done:  E(UB3LYP) =  -1194.30448169     A.U. after   12 cycles

 The electronic state is 2-A1.
 Alpha  occ. eigenvalues --  -89.22616 -89.15599 -89.15599  -8.30313  -8.23800
 Alpha  occ. eigenvalues --   -8.23796  -6.26389  -6.26344  -6.26270  -6.20284
 Alpha  occ. eigenvalues --   -6.20283  -6.19655  -6.19654  -6.19520  -6.19520
 Alpha  occ. eigenvalues --   -1.14634  -1.01931  -0.84041  -0.69402  -0.65870
 Alpha  occ. eigenvalues --   -0.64897  -0.53657  -0.53318  -0.51968
 Alpha virt. eigenvalues --   -0.39738  -0.29588  -0.20235  -0.17877  -0.11594
 Alpha virt. eigenvalues --   -0.11256  -0.10902  -0.10598  -0.09244  -0.09123
 Alpha virt. eigenvalues --   -0.09018  -0.07971  -0.06075  -0.05247  -0.04827

  Beta  occ. eigenvalues --  -89.22477 -89.15306 -89.15306  -8.30153  -8.23538
  Beta  occ. eigenvalues --   -8.23534  -6.26293  -6.26281  -6.25882  -6.19781
  Beta  occ. eigenvalues --   -6.19780  -6.19498  -6.19498  -6.18938  -6.18938
  Beta  occ. eigenvalues --   -1.13599  -1.00202  -0.81840  -0.67616  -0.64447
  Beta  occ. eigenvalues --   -0.64230  -0.52768  -0.50947
  Beta virt. eigenvalues --   -0.43085  -0.39015  -0.28955  -0.18824  -0.17525
  Beta virt. eigenvalues --   -0.11368  -0.10971  -0.10764  -0.10335  -0.08852
  Beta virt. eigenvalues --   -0.08737  -0.08706  -0.07482  -0.05775  -0.04997

 Mulliken charges and spin densities:
               1          2
     1  S    0.402153   0.164210
     2  S    0.298923   0.417895
     3  S    0.298923   0.417895
 Sum of Mulliken charges =   1.00000   1.00000

 Dipole moment (field-independent basis, Debye):
    X=              0.0000    Y=             -0.0000    Z=             -0.2999  Tot=              0.2999
 Quadrupole moment (field-independent basis, Debye-Ang):
   XX=            -33.8054   YY=            -19.8743   ZZ=            -33.1038
   XY=              0.0000   XZ=              0.0000   YZ=              0.0000

  Exact polarizability:  33.716   0.000 111.894   0.000  -0.000  38.063
 Approx polarizability:  57.861   0.000 392.872  -0.000   0.000  71.453

                      1                      2                      3
                     A1                     A1                     B2
 Frequencies --    236.6850               550.3431               638.0216
 Red. masses --     31.9721                31.9721                31.9721
 Frc consts  --      1.0553                 5.7054                 7.6682
 IR Inten    --      0.0040                 0.0128                 0.5754

 - Thermochemistry -
 -------------------
 Temperature   298.150 Kelvin.  Pressure   1.00000 Atm.
 Atom     1 has atomic number 16 and mass  31.97207

 Molecular mass:    95.91622 amu.
 Principal axes and moments of inertia in atomic units:
                           1         2         3
     Eigenvalues --    43.97998 682.24210 726.22208
           X            0.00000   0.00000   1.00000
           Y            1.00000   0.00000   0.00000
           Z           -0.00000   1.00000   0.00000
 This molecule is an asymmetric top.
 Rotational symmetry number  2.
 Rotational temperatures (Kelvin)      1.96939     0.12695     0.11927
 Rotational constants (GHZ):          41.03552     2.64531     2.48511
 Zero-point vibrational energy       8523.7 (Joules/Mol)
                                    2.03721 (Kcal/Mol)
 Warning -- explicit consideration of   2 degrees of freedom as
           vibrations may cause significant error
 Vibrational temperatures:    340.54   791.82   917.97
          (Kelvin)

 Zero-point correction=                           0.003247 (Hartree/Particle)
 Thermal correction to Energy=                    0.006914
 Thermal correction to Enthalpy=                  0.007858
 Thermal correction to Gibbs Free Energy=        -0.023950
 Sum of electronic and zero-point Energies=          -1194.301235
 Sum of electronic and thermal Energies=             -1194.297568
 Sum of electronic and thermal Enthalpies=           -1194.296623
 Sum of electronic and thermal Free Energies=        -1194.328431

                     E (Thermal)             CV                S
                      KCal/Mol        Cal/Mol-Kelvin    Cal/Mol-Kelvin
 Total                    4.339              9.837             66.945
 Electronic               0.000              0.000              1.377
 Translational            0.889              2.981             39.594
 Rotational               0.889              2.981             23.214
 Vibrational              2.561              3.876              2.760
 Vibration     1          0.656              1.785              1.828
 Vibration     2          0.906              1.139              0.543

 Optimization completed.
    -- Stationary point found.
 Normal termination of Gaussian 09 at Sun Oct 23 21:15:45 2016.
