 Gaussian 09, Revision E.01,
 Gaussian 09:  EM64L-G09RevE.01 30-Nov-2015

 ---------------------------------------------
 #p b3lyp/6-311++G(3df,2p) freq symmetry=Loose
 ---------------------------------------------

 ---------
 b3lyp opt
 ---------
 Symbolic Z-matrix:
 Charge =  0 Multiplicity = 3

                         Standard orientation:
 ---------------------------------------------------------------------
 Center     Atomic      Atomic             Coordinates (Angstroms)
 Number     Number       Type             X           Y           Z
 ---------------------------------------------------------------------
      1         16           0        0.000000   -0.000000    0.572427
      2         16           0       -0.000000   -1.765793   -0.286213
      3         16           0        0.000000    1.765793   -0.286213
 ---------------------------------------------------------------------

 SCF Done:  E(UB3LYP) =  -1194.61868940     A.U. after   12 cycles

 The electronic state is 3-B1.
 Alpha  occ. eigenvalues --  -88.95598 -88.89634 -88.89634  -8.03574  -7.97982
 Alpha  occ. eigenvalues --   -7.97978  -5.99698  -5.99645  -5.99610  -5.94548
 Alpha  occ. eigenvalues --   -5.94547  -5.93814  -5.93814  -5.93785  -5.93785
 Alpha  occ. eigenvalues --   -0.88017  -0.76234  -0.61747  -0.45113  -0.41269
 Alpha  occ. eigenvalues --   -0.40869  -0.31083  -0.30122  -0.29536  -0.23273
 Alpha virt. eigenvalues --   -0.08249  -0.01242   0.00168   0.03414   0.03920
 Alpha virt. eigenvalues --    0.04120   0.05673   0.06385   0.06671   0.07620
 Alpha virt. eigenvalues --    0.08124   0.08313   0.10722   0.14223   0.14239

  Beta  occ. eigenvalues --  -88.95172 -88.89150 -88.89150  -8.03165  -7.97547
  Beta  occ. eigenvalues --   -7.97544  -5.99501  -5.99146  -5.98562  -5.93952
  Beta  occ. eigenvalues --   -5.93952  -5.93160  -5.93160  -5.92984  -5.92984
  Beta  occ. eigenvalues --   -0.85950  -0.73557  -0.57684  -0.42633  -0.39253
  Beta  occ. eigenvalues --   -0.37383  -0.27286  -0.27018
  Beta virt. eigenvalues --   -0.20447  -0.14521  -0.06928   0.00047   0.00469
  Beta virt. eigenvalues --    0.03708   0.04296   0.04306   0.05964   0.06830
  Beta virt. eigenvalues --    0.06842   0.07902   0.08573   0.08620   0.11262

 Mulliken charges and spin densities:
               1          2
     1  S    0.175910   0.522051
     2  S   -0.087955   0.738974
     3  S   -0.087955   0.738974
 Sum of Mulliken charges =  -0.00000   2.00000

 Dipole moment (field-independent basis, Debye):
    X=             -0.0000    Y=             -0.0000    Z=              0.0408  Tot=              0.0408
 Quadrupole moment (field-independent basis, Debye-Ang):
   XX=            -39.9639   YY=            -38.2469   ZZ=            -37.7684
   XY=             -0.0000   XZ=             -0.0000   YZ=             -0.0000

  Exact polarizability:  43.955  -0.000 149.201  -0.000   0.000  48.350
 Approx polarizability:  70.224   0.000 383.547  -0.000  -0.000  88.732

                      1                      2                      3
                     A1                     A1                     B2
 Frequencies --    209.2798               493.2654               512.2935
 Red. masses --     31.9721                31.9721                31.9721
 Frc consts  --      0.8250                 4.5833                 4.9438
 IR Inten    --      0.0991                 0.0017                 1.8257

 - Thermochemistry -
 -------------------
 Temperature   298.150 Kelvin.  Pressure   1.00000 Atm.
 Atom     1 has atomic number 16 and mass  31.97207

 Molecular mass:    95.91622 amu.
 Principal axes and moments of inertia in atomic units:
                           1         2         3
     Eigenvalues --    56.11764 711.99685 768.11448
           X            0.00000   0.00000   1.00000
           Y            1.00000   0.00000  -0.00000
           Z           -0.00000   1.00000  -0.00000
 This molecule is an asymmetric top.
 Rotational symmetry number  2.
 Rotational temperatures (Kelvin)      1.54343     0.12165     0.11276
 Rotational constants (GHZ):          32.15996     2.53476     2.34957
 Zero-point vibrational energy       7266.3 (Joules/Mol)
                                    1.73670 (Kcal/Mol)
 Warning -- explicit consideration of   3 degrees of freedom as
           vibrations may cause significant error
 Vibrational temperatures:    301.11   709.70   737.08
          (Kelvin)

 Zero-point correction=                           0.002768 (Hartree/Particle)
 Thermal correction to Energy=                    0.006591
 Thermal correction to Enthalpy=                  0.007535
 Thermal correction to Gibbs Free Energy=        -0.025099
 Sum of electronic and zero-point Energies=          -1194.615922
 Sum of electronic and thermal Energies=             -1194.612099
 Sum of electronic and thermal Enthalpies=           -1194.611154
 Sum of electronic and thermal Free Energies=        -1194.643789

                     E (Thermal)             CV                S
                      KCal/Mol        Cal/Mol-Kelvin    Cal/Mol-Kelvin
 Total                    4.136             10.276             68.685
 Electronic               0.000              0.000              2.183
 Translational            0.889              2.981             39.594
 Rotational               0.889              2.981             23.555
 Vibrational              2.358              4.314              3.353
 Vibration     1          0.642              1.827              2.050
 Vibration     2          0.849              1.265              0.675
 Vibration     3          0.867              1.223              0.628

 Optimization completed.
    -- Stationary point found.
 Normal termination of Gaussian 09 at Sun Oct 23 21:14:02 2016.
