 Gaussian 09, Revision E.01,
 Gaussian 09:  EM64L-G09RevE.01 30-Nov-2015

 ---------------------------------------------
 #p b3lyp/6-311++G(3df,2p) freq symmetry=Loose
 ---------------------------------------------

 ---------
 b3lyp opt
 ---------
 Symbolic Z-matrix:
 Charge =  0 Multiplicity = 3

                         Standard orientation:
 ---------------------------------------------------------------------
 Center     Atomic      Atomic             Coordinates (Angstroms)
 Number     Number       Type             X           Y           Z
 ---------------------------------------------------------------------
      1         16           0       -0.000000   -1.588190    0.938233
      2         16           0       -0.000000   -1.252356   -0.938233
      3         16           0        0.000000    1.252356   -0.938233
      4         16           0        0.000000    1.588190    0.938233
 ---------------------------------------------------------------------

 SCF Done:  E(UB3LYP) =  -1592.88026735     A.U. after   14 cycles

 The electronic state is 3-B2.
 Alpha  occ. eigenvalues --  -88.91546 -88.91546 -88.89386 -88.89386  -7.99747
 Alpha  occ. eigenvalues --   -7.99745  -7.97731  -7.97727  -5.95859  -5.95859
 Alpha  occ. eigenvalues --   -5.95823  -5.95822  -5.95644  -5.95644  -5.94077
 Alpha  occ. eigenvalues --   -5.94077  -5.93880  -5.93879  -5.93358  -5.93358
 Alpha  occ. eigenvalues --   -0.85655  -0.82450  -0.65532  -0.60857  -0.43169
 Alpha  occ. eigenvalues --   -0.40569  -0.39763  -0.38744  -0.36696  -0.29873
 Alpha  occ. eigenvalues --   -0.26675  -0.26584  -0.23470
 Alpha virt. eigenvalues --   -0.11615  -0.04558  -0.00094   0.00853   0.02857
 Alpha virt. eigenvalues --    0.03757   0.04219   0.04899   0.05385   0.06245
 Alpha virt. eigenvalues --    0.07104   0.07362   0.08618   0.09234   0.10427

  Beta  occ. eigenvalues --  -88.91259 -88.91258 -88.89009 -88.89009  -7.99489
  Beta  occ. eigenvalues --   -7.99486  -7.97390  -7.97386  -5.95711  -5.95710
  Beta  occ. eigenvalues --   -5.95504  -5.95504  -5.94899  -5.94899  -5.93681
  Beta  occ. eigenvalues --   -5.93681  -5.93143  -5.93143  -5.92895  -5.92895
  Beta  occ. eigenvalues --   -0.84318  -0.81034  -0.62907  -0.58006  -0.42452
  Beta  occ. eigenvalues --   -0.39704  -0.37625  -0.35648  -0.32224  -0.29161
  Beta  occ. eigenvalues --   -0.25859
  Beta virt. eigenvalues --   -0.16565  -0.13288  -0.10748  -0.03925   0.00608
  Beta virt. eigenvalues --    0.00942   0.02862   0.03909   0.04219   0.05102
  Beta virt. eigenvalues --    0.05612   0.06392   0.07459   0.07539   0.08706

 Mulliken charges and spin densities:
               1          2
     1  S   -0.022082   0.579645
     2  S    0.022082   0.420355
     3  S    0.022082   0.420355
     4  S   -0.022082   0.579645
 Sum of Mulliken charges =  -0.00000   2.00000

 Dipole moment (field-independent basis, Debye):
    X=             -0.0000    Y=             -0.0000    Z=             -0.4606  Tot=              0.4606
 Quadrupole moment (field-independent basis, Debye-Ang):
   XX=            -51.7741   YY=            -53.1201   ZZ=            -48.5706
   XY=             -0.0000   XZ=             -0.0000   YZ=             -0.0000

  Exact polarizability:  54.580  -0.000 124.878   0.000   0.000  93.429
 Approx polarizability:  92.930   0.000 266.092   0.000  -0.000 239.070

                      1                      2                      3
                     A1                     A2                     A1
 Frequencies --     80.6199                87.7755               221.7119
 Red. masses --     31.9721                31.9721                31.9721
 Frc consts  --      0.1224                 0.1451                 0.9260
 IR Inten    --      1.1552                 0.0000                 0.4895

                      4                      5                      6
                     B2                     B2                     A1
 Frequencies --    263.8248               666.4190               694.8498
 Red. masses --     31.9721                31.9721                31.9721
 Frc consts  --      1.3111                 8.3660                 9.0950
 IR Inten    --      0.1948                70.2727                 0.0251

 - Thermochemistry -
 -------------------
 Temperature   298.150 Kelvin.  Pressure   1.00000 Atm.
 Atom     1 has atomic number 16 and mass  31.97207

 Molecular mass:   127.88829 amu.
 Principal axes and moments of inertia in atomic units:
                           1         2         3
     Eigenvalues --   402.02181 934.115301336.13711
           X            0.00000   0.00000   1.00000
           Y            1.00000   0.00000  -0.00000
           Z            0.00000   1.00000   0.00000
 This molecule is an asymmetric top.
 Rotational symmetry number  2.
 Rotational temperatures (Kelvin)      0.21545     0.09272     0.06482
 Rotational constants (GHZ):           4.48916     1.93203     1.35072
 Zero-point vibrational energy      12053.6 (Joules/Mol)
                                    2.88087 (Kcal/Mol)
 Warning -- explicit consideration of   4 degrees of freedom as
           vibrations may cause significant error
 Vibrational temperatures:    115.99   126.29   318.99   379.58   958.83
          (Kelvin)            999.73

 Zero-point correction=                           0.004591 (Hartree/Particle)
 Thermal correction to Energy=                    0.010191
 Thermal correction to Enthalpy=                  0.011135
 Thermal correction to Gibbs Free Energy=        -0.027252
 Sum of electronic and zero-point Energies=          -1592.875676
 Sum of electronic and thermal Energies=             -1592.870077
 Sum of electronic and thermal Enthalpies=           -1592.869132
 Sum of electronic and thermal Free Energies=        -1592.907519

                     E (Thermal)             CV                S
                      KCal/Mol        Cal/Mol-Kelvin    Cal/Mol-Kelvin
 Total                    6.395             15.163             80.792
 Electronic               0.000              0.000              2.183
 Translational            0.889              2.981             40.451
 Rotational               0.889              2.981             26.331
 Vibrational              4.617              9.201             11.827
 Vibration     1          0.600              1.962              3.876
 Vibration     2          0.601              1.958              3.709
 Vibration     3          0.648              1.808              1.945
 Vibration     4          0.670              1.739              1.636

 Optimization completed.
    -- Stationary point found.
 Normal termination of Gaussian 09 at Mon Oct 24 01:05:44 2016.
