 Gaussian 09, Revision E.01,
 Gaussian 09:  EM64L-G09RevE.01 30-Nov-2015

 ---------------------------------------------
 #p b3lyp/6-311++G(3df,2p) freq symmetry=Loose
 ---------------------------------------------

 ---------
 b3lyp opt
 ---------
 Symbolic Z-matrix:
 Charge =  0 Multiplicity = 1

                         Standard orientation:
 ---------------------------------------------------------------------
 Center     Atomic      Atomic             Coordinates (Angstroms)
 Number     Number       Type             X           Y           Z
 ---------------------------------------------------------------------
      1         16           0        0.000000    1.440143    0.312293
      2         16           0       -1.440143   -0.000000   -0.312293
      3         16           0        1.440143   -0.000000   -0.312293
      4         16           0       -0.000000   -1.440143    0.312293
 ---------------------------------------------------------------------

 SCF Done:  E(RB3LYP) =  -1592.85595690     A.U. after    9 cycles

 The electronic state is 1-A1.
 Alpha  occ. eigenvalues --  -88.91182 -88.91182 -88.91182 -88.91182  -7.99382
 Alpha  occ. eigenvalues --   -7.99382  -7.99382  -7.99377  -5.95827  -5.95818
 Alpha  occ. eigenvalues --   -5.95818  -5.95809  -5.95562  -5.95552  -5.95552
 Alpha  occ. eigenvalues --   -5.95542  -5.94634  -5.94633  -5.94633  -5.94633
 Alpha  occ. eigenvalues --   -0.88307  -0.73666  -0.73666  -0.59175  -0.45172
 Alpha  occ. eigenvalues --   -0.43037  -0.38841  -0.36449  -0.36449  -0.27396
 Alpha  occ. eigenvalues --   -0.27396  -0.22474
 Alpha virt. eigenvalues --   -0.11854  -0.11854  -0.06929  -0.03645   0.01014
 Alpha virt. eigenvalues --    0.03727   0.03727   0.04112   0.04296   0.05244
 Alpha virt. eigenvalues --    0.06621   0.06642   0.06642   0.09791   0.09999

 Mulliken charges:
               1
     1  S   -0.000000
     2  S   -0.000000
     3  S   -0.000000
     4  S   -0.000000
 Sum of Mulliken charges =  -0.00000

 Dipole moment (field-independent basis, Debye):
    X=              0.0000    Y=             -0.0000    Z=             -0.0000  Tot=              0.0000
 Quadrupole moment (field-independent basis, Debye-Ang):
   XX=            -49.2319   YY=            -49.2319   ZZ=            -54.9731
   XY=             -0.0000   XZ=             -0.0000   YZ=              0.0000

  Exact polarizability:  86.283   0.000  86.283   0.000   0.000  61.139
 Approx polarizability: 174.056  -0.000 174.056   0.000  -0.000 106.135

                      1                      2                      3
                     A1                     B2                      E
 Frequencies --    201.3442               301.8954               413.3919
 Red. masses --     31.9721                31.9721                31.9721
 Frc consts  --      0.7637                 1.7169                 3.2192
 IR Inten    --      0.0000                 0.0267                 0.0016

                      4                      5                      6
                      E                     B1                     A1
 Frequencies --    413.3919               440.8861               504.9970
 Red. masses --     31.9721                31.9721                31.9721
 Frc consts  --      3.2192                 3.6616                 4.8040
 IR Inten    --      0.0016                 0.0000                 0.0000

 - Thermochemistry -
 -------------------
 Temperature   298.150 Kelvin.  Pressure   1.00000 Atm.
 Atom     1 has atomic number 16 and mass  31.97207

 Molecular mass:   127.88829 amu.
 Principal axes and moments of inertia in atomic units:
                           1         2         3
     Eigenvalues --   518.13834 518.13834 947.19610
           X            0.99969  -0.02478   0.00000
           Y            0.02478   0.99969   0.00000
           Z           -0.00000  -0.00000   1.00000
 This molecule is an oblate symmetric top.
 Rotational symmetry number  4.
 Warning -- assumption of classical behavior for rotation
           may cause significant error
 Rotational temperatures (Kelvin)      0.16716     0.16716     0.09144
 Rotational constants (GHZ):           3.48313     3.48313     1.90535
 Zero-point vibrational energy      13612.9 (Joules/Mol)
                                    3.25357 (Kcal/Mol)
 Warning -- explicit consideration of   6 degrees of freedom as
           vibrations may cause significant error
 Vibrational temperatures:    289.69   434.36   594.78   594.78   634.34
          (Kelvin)            726.58

 Zero-point correction=                           0.005185 (Hartree/Particle)
 Thermal correction to Energy=                    0.010079
 Thermal correction to Enthalpy=                  0.011023
 Thermal correction to Gibbs Free Energy=        -0.022975
 Sum of electronic and zero-point Energies=          -1592.850772
 Sum of electronic and thermal Energies=             -1592.845878
 Sum of electronic and thermal Enthalpies=           -1592.844934
 Sum of electronic and thermal Free Energies=        -1592.878932

                     E (Thermal)             CV                S
                      KCal/Mol        Cal/Mol-Kelvin    Cal/Mol-Kelvin
 Total                    6.325             14.972             71.556
 Electronic               0.000              0.000              0.000
 Translational            0.889              2.981             40.451
 Rotational               0.889              2.981             24.278
 Vibrational              4.547              9.010              6.826
 Vibration     1          0.638              1.838              2.121
 Vibration     2          0.694              1.670              1.406
 Vibration     3          0.777              1.441              0.915
 Vibration     4          0.777              1.441              0.915
 Vibration     5          0.801              1.381              0.824
 Vibration     6          0.860              1.239              0.646

 Optimization completed.
    -- Stationary point found.

 1\1\GINC-BELVIS17\Freq\RB3LYP\6-311++G(3df,2p)\S4\ROOT\24-Oct-2016\0\\
 #p b3lyp/6-311++G(3df,2p) freq symmetry=Loose\\b3lyp opt\\0,1\S,1.2241
 32886,0.591868843,0.48130497\S,-0.5431175498,-0.0793589898,1.463349766
 5\S,0.0561972268,0.4839198238,-1.2970105795\S,-0.916939563,-1.15127067
 7,-0.339258157\\Version=EM64L-G09RevE.01\State=1-A1\HF=-1592.8559569\R
 MSD=4.822e-09\RMSF=1.116e-05\ZeroPoint=0.0051849\Thermal=0.0100791\Dip
 ole=0.,0.,0.\DipoleDeriv=-0.0094916,0.0064694,-0.0015028,-0.0062626,0.
 006462,-0.0007574,-0.0041009,0.0020069,0.0030296,-0.0003686,0.0036242,

 Normal termination of Gaussian 09 at Mon Oct 24 01:02:02 2016.
