 Gaussian 09, Revision E.01,
 Gaussian 09:  EM64L-G09RevE.01 30-Nov-2015

 ---------------------------------------------
 #p b3lyp/6-311++G(3df,2p) freq symmetry=Loose
 ---------------------------------------------

 ---------
 b3lyp opt
 ---------
 Symbolic Z-matrix:
 Charge =  0 Multiplicity = 1

                         Standard orientation:
 ---------------------------------------------------------------------
 Center     Atomic      Atomic             Coordinates (Angstroms)
 Number     Number       Type             X           Y           Z
 ---------------------------------------------------------------------
      1         16           0        0.966818    2.303171   -0.000000
      2         16           0        0.966818    0.374303   -0.000000
      3         16           0       -0.966818   -0.374303   -0.000000
      4         16           0       -0.966818   -2.303171   -0.000000
 ---------------------------------------------------------------------

 SCF Done:  E(RB3LYP) =  -1592.87681457     A.U. after   10 cycles

 The electronic state is 1-AG.
 Alpha  occ. eigenvalues --  -88.95582 -88.95582 -88.87786 -88.87786  -8.03582
 Alpha  occ. eigenvalues --   -8.03580  -7.96261  -7.96258  -5.99800  -5.99778
 Alpha  occ. eigenvalues --   -5.99459  -5.99457  -5.99413  -5.99410  -5.92653
 Alpha  occ. eigenvalues --   -5.92653  -5.92135  -5.92135  -5.91808  -5.91808
 Alpha  occ. eigenvalues --   -0.89082  -0.82094  -0.68267  -0.59663  -0.45858
 Alpha  occ. eigenvalues --   -0.42800  -0.41159  -0.37022  -0.34759  -0.30227
 Alpha  occ. eigenvalues --   -0.25913  -0.24269
 Alpha virt. eigenvalues --   -0.17294  -0.08040  -0.04969  -0.01871   0.00691
 Alpha virt. eigenvalues --    0.02513   0.03436   0.03444   0.04431   0.05907
 Alpha virt. eigenvalues --    0.06002   0.06609   0.06644   0.06734   0.09233

 Mulliken charges:
               1
     1  S   -0.131148
     2  S    0.131148
     3  S    0.131148
     4  S   -0.131148
 Sum of Mulliken charges =  -0.00000

 Dipole moment (field-independent basis, Debye):
    X=             -0.0000    Y=             -0.0000    Z=              0.0000  Tot=              0.0000
 Quadrupole moment (field-independent basis, Debye-Ang):
   XX=            -52.3062   YY=            -54.1341   ZZ=            -51.6296
   XY=             -1.2645   XZ=              0.0000   YZ=              0.0000

  Exact polarizability:  93.571  54.372 176.863  -0.000  -0.000  54.464
 Approx polarizability: 289.371 298.727 684.417  -0.000   0.000  94.235

                      1                      2                      3
                     AU                     BU                     AG
 Frequencies --     92.8091               124.2447               225.5143
 Red. masses --     31.9721                31.9721                31.9721
 Frc consts  --      0.1623                 0.2908                 0.9580
 IR Inten    --      0.6420                 2.6576                 0.0000

                      4                      5                      6
                     AG                     BU                     AG
 Frequencies --    466.1248               634.5676               647.2336
 Red. masses --     31.9721                31.9721                31.9721
 Frc consts  --      4.0928                 7.5854                 7.8912
 IR Inten    --      0.0000               207.2951                 0.0000

 - Thermochemistry -
 -------------------
 Temperature   298.150 Kelvin.  Pressure   1.00000 Atm.
 Atom     1 has atomic number 16 and mass  31.97207

 Molecular mass:   127.88829 amu.
 Principal axes and moments of inertia in atomic units:
                           1         2         3
     Eigenvalues --   116.733321553.448551670.18188
           X            0.46463   0.88551   0.00000
           Y            0.88551  -0.46463   0.00000
           Z           -0.00000   0.00000   1.00000
 This molecule is an asymmetric top.
 Rotational symmetry number  2.
 Rotational temperatures (Kelvin)      0.74198     0.05576     0.05186
 Rotational constants (GHZ):          15.46038     1.16176     1.08057
 Zero-point vibrational energy      13102.1 (Joules/Mol)
                                    3.13147 (Kcal/Mol)
 Warning -- explicit consideration of   4 degrees of freedom as
           vibrations may cause significant error
 Vibrational temperatures:    133.53   178.76   324.46   670.65   913.00
          (Kelvin)            931.22

 Zero-point correction=                           0.004990 (Hartree/Particle)
 Thermal correction to Energy=                    0.010310
 Thermal correction to Enthalpy=                  0.011255
 Thermal correction to Gibbs Free Energy=        -0.025020
 Sum of electronic and zero-point Energies=          -1592.871824
 Sum of electronic and thermal Energies=             -1592.866504
 Sum of electronic and thermal Enthalpies=           -1592.865560
 Sum of electronic and thermal Free Energies=        -1592.901834

                     E (Thermal)             CV                S
                      KCal/Mol        Cal/Mol-Kelvin    Cal/Mol-Kelvin
 Total                    6.470             14.865             76.346
 Electronic               0.000              0.000              0.000
 Translational            0.889              2.981             40.451
 Rotational               0.889              2.981             25.829
 Vibrational              4.692              8.903             10.065
 Vibration     1          0.602              1.954              3.600
 Vibration     2          0.610              1.929              3.033
 Vibration     3          0.650              1.802              1.914
 Vibration     4          0.823              1.325              0.748

 Optimization completed.
    -- Stationary point found.

 1\1\GINC-BELVIS17\Freq\RB3LYP\6-311++G(3df,2p)\S4\ROOT\24-Oct-2016\0\\
 #p b3lyp/6-311++G(3df,2p) freq symmetry=Loose\\b3lyp opt\\0,1\S,-0.094
 721,-0.3453375,2.47206425\S,0.196195,0.6048275,0.81885975\S,-0.196195,
 -0.6048275,-0.81886025\S,0.094721,0.3453375,-2.47206475\\Version=EM64L
 -G09RevE.01\State=1-AG\HF=-1592.8768146\RMSD=8.141e-09\RMSF=5.047e-05\
 ZeroPoint=0.0049903\Thermal=0.0103105\Dipole=0.,0.,0.\DipoleDeriv=-0.0
 793598,-0.0252936,0.2032772,-0.0213963,-0.1524798,0.6616095,-0.0062616
 ,-0.0006206,-1.103144,0.0793598,0.0252936,-0.2032772,0.0213963,0.15247

 Normal termination of Gaussian 09 at Mon Oct 24 01:02:12 2016.
