 Gaussian 09, Revision E.01,
 Gaussian 09:  EM64L-G09RevE.01 30-Nov-2015

 ---------------------------------------------
 #p b3lyp/6-311++G(3df,2p) freq symmetry=Loose
 ---------------------------------------------

 ---------
 b3lyp opt
 ---------
 Symbolic Z-matrix:
 Charge =  1 Multiplicity = 2

                         Standard orientation:
 ---------------------------------------------------------------------
 Center     Atomic      Atomic             Coordinates (Angstroms)
 Number     Number       Type             X           Y           Z
 ---------------------------------------------------------------------
      1         16           0       -0.000000   -1.220524    0.450527
      2         16           0        1.491409   -0.000000   -0.450525
      3         16           0        0.000000    1.220524    0.450527
      4         16           0       -1.491409    0.000000   -0.450525
 ---------------------------------------------------------------------

 SCF Done:  E(UB3LYP) =  -1592.52293123     A.U. after   14 cycles

 The electronic state is 2-B2.
 Alpha  occ. eigenvalues --  -89.17770 -89.17770 -89.13233 -89.13233  -8.25575
 Alpha  occ. eigenvalues --   -8.25574  -8.21370  -8.21368  -6.21814  -6.21811
 Alpha  occ. eigenvalues --   -6.21765  -6.21764  -6.21334  -6.21334  -6.17802
 Alpha  occ. eigenvalues --   -6.17802  -6.17596  -6.17596  -6.16558  -6.16558
 Alpha  occ. eigenvalues --   -1.13856  -0.96426  -0.96176  -0.83374  -0.66959
 Alpha  occ. eigenvalues --   -0.66018  -0.62774  -0.61710  -0.58490  -0.48119
 Alpha  occ. eigenvalues --   -0.48092  -0.47637
 Alpha virt. eigenvalues --   -0.33252  -0.30758  -0.30691  -0.26950  -0.14584
 Alpha virt. eigenvalues --   -0.11743  -0.10398  -0.10290  -0.09987  -0.09844
 Alpha virt. eigenvalues --   -0.08995  -0.07939  -0.07681  -0.07606  -0.05445

  Beta  occ. eigenvalues --  -89.17401 -89.17401 -89.13228 -89.13228  -8.25243
  Beta  occ. eigenvalues --   -8.25241  -8.21364  -8.21362  -6.21542  -6.21542
  Beta  occ. eigenvalues --   -6.21327  -6.21326  -6.20491  -6.20490  -6.17763
  Beta  occ. eigenvalues --   -6.17763  -6.17617  -6.17616  -6.16556  -6.16556
  Beta  occ. eigenvalues --   -1.12793  -0.96255  -0.93930  -0.82309  -0.65438
  Beta  occ. eigenvalues --   -0.65289  -0.61387  -0.60209  -0.57690  -0.48103
  Beta  occ. eigenvalues --   -0.46511
  Beta virt. eigenvalues --   -0.38380  -0.32661  -0.30262  -0.30222  -0.26390
  Beta virt. eigenvalues --   -0.14342  -0.11566  -0.10220  -0.10060  -0.09575
  Beta virt. eigenvalues --   -0.09550  -0.08601  -0.07737  -0.07587  -0.07538

 Mulliken charges and spin densities:
               1          2
     1  S    0.319461   0.499631
     2  S    0.180539   0.000369
     3  S    0.319461   0.499631
     4  S    0.180539   0.000369
 Sum of Mulliken charges =   1.00000   1.00000

 Dipole moment (field-independent basis, Debye):
    X=              0.0000    Y=             -0.0000    Z=              0.1182  Tot=              0.1182
 Quadrupole moment (field-independent basis, Debye-Ang):
   XX=            -38.8663   YY=            -37.7943   ZZ=            -47.1583
   XY=             -0.0000   XZ=              0.0000   YZ=              0.0000

  Exact polarizability:  79.702   0.000  75.718   0.000  -0.000  53.224
 Approx polarizability: 174.150  -0.000 187.214  -0.000  -0.000 103.108

                      1                      2                      3
                     A1                     A1                     B2
 Frequencies --    264.9283               293.3158               338.0045
 Red. masses --     31.9721                31.9721                31.9721
 Frc consts  --      1.3221                 1.6207                 2.1521
 IR Inten    --      0.2116                 0.0153                 1.3971

                      4                      5                      6
                     A2                     B1                     A1
 Frequencies --    353.5928               435.4449               532.9997
 Red. masses --     31.9721                31.9721                31.9721
 Frc consts  --      2.3552                 3.5718                 5.3515
 IR Inten    --      0.0000                 2.4732                 0.1626

 - Thermochemistry -
 -------------------
 Temperature   298.150 Kelvin.  Pressure   1.00000 Atm.
 Atom     1 has atomic number 16 and mass  31.97207

 Molecular mass:   127.88829 amu.
 Principal axes and moments of inertia in atomic units:
                           1         2         3
     Eigenvalues --   432.86357 600.61330 848.08204
           X            1.00000   0.00000   0.00000
           Y           -0.00000   1.00000   0.00000
           Z           -0.00000  -0.00000   1.00000
 This molecule is an asymmetric top.
 Rotational symmetry number  2.
 Rotational temperatures (Kelvin)      0.20009     0.14421     0.10213
 Rotational constants (GHZ):           4.16931     3.00483     2.12803
 Zero-point vibrational energy      13268.3 (Joules/Mol)
                                    3.17120 (Kcal/Mol)
 Warning -- explicit consideration of   6 degrees of freedom as
           vibrations may cause significant error
 Vibrational temperatures:    381.17   422.02   486.31   508.74   626.51
          (Kelvin)            766.87

 Zero-point correction=                           0.005054 (Hartree/Particle)
 Thermal correction to Energy=                    0.009990
 Thermal correction to Enthalpy=                  0.010934
 Thermal correction to Gibbs Free Energy=        -0.024330
 Sum of electronic and zero-point Energies=          -1592.517878
 Sum of electronic and thermal Energies=             -1592.512941
 Sum of electronic and thermal Enthalpies=           -1592.511997
 Sum of electronic and thermal Free Energies=        -1592.547261

                     E (Thermal)             CV                S
                      KCal/Mol        Cal/Mol-Kelvin    Cal/Mol-Kelvin
 Total                    6.269             15.123             74.220
 Electronic               0.000              0.000              1.377
 Translational            0.889              2.981             40.451
 Rotational               0.889              2.981             25.514
 Vibrational              4.491              9.161              6.877
 Vibration     1          0.671              1.737              1.629
 Vibration     2          0.688              1.686              1.455
 Vibration     3          0.718              1.600              1.222
 Vibration     4          0.730              1.568              1.150
 Vibration     5          0.796              1.393              0.841
 Vibration     6          0.888              1.177              0.581

 Optimization completed.
    -- Stationary point found.
 Normal termination of Gaussian 09 at Sun Oct 23 21:31:11 2016.
