 Gaussian 09, Revision E.01,
 Gaussian 09:  EM64L-G09RevE.01 30-Nov-2015

 ---------------------------------------------
 #p b3lyp/6-311++G(3df,2p) freq symmetry=Loose
 ---------------------------------------------

 ---------
 b3lyp opt
 ---------
 Symbolic Z-matrix:
 Charge =  0 Multiplicity = 3

                         Standard orientation:
 ---------------------------------------------------------------------
 Center     Atomic      Atomic             Coordinates (Angstroms)
 Number     Number       Type             X           Y           Z
 ---------------------------------------------------------------------
      1         16           0        0.000000   -1.240963    1.003346
      2         16           0       -0.000000    1.240963    1.003346
      3         16           0        0.000000   -1.084019   -1.003346
      4         16           0       -0.000000    1.084019   -1.003346
 ---------------------------------------------------------------------

 SCF Done:  E(UB3LYP) =  -1592.85739432     A.U. after   13 cycles

 The electronic state is 3-B1.
 Alpha  occ. eigenvalues --  -88.92382 -88.92382 -88.90143 -88.90143  -8.00550
 Alpha  occ. eigenvalues --   -8.00550  -7.98358  -7.98355  -5.96888  -5.96878
 Alpha  occ. eigenvalues --   -5.96549  -5.96545  -5.96273  -5.96273  -5.94677
 Alpha  occ. eigenvalues --   -5.94676  -5.94480  -5.94480  -5.94075  -5.94074
 Alpha  occ. eigenvalues --   -0.88126  -0.78998  -0.70742  -0.60136  -0.46711
 Alpha  occ. eigenvalues --   -0.42974  -0.40392  -0.37208  -0.33230  -0.32964
 Alpha  occ. eigenvalues --   -0.28472  -0.24312  -0.21909
 Alpha virt. eigenvalues --   -0.09366  -0.07498  -0.01792   0.00776   0.03054
 Alpha virt. eigenvalues --    0.03898   0.03976   0.04032   0.04704   0.06674
 Alpha virt. eigenvalues --    0.07074   0.07255   0.09113   0.09196   0.10659

  Beta  occ. eigenvalues --  -88.92106 -88.92106 -88.89701 -88.89701  -8.00290
  Beta  occ. eigenvalues --   -8.00289  -7.97947  -7.97945  -5.96608  -5.96602
  Beta  occ. eigenvalues --   -5.96343  -5.96334  -5.95621  -5.95620  -5.94322
  Beta  occ. eigenvalues --   -5.94322  -5.93727  -5.93725  -5.93340  -5.93340
  Beta  occ. eigenvalues --   -0.86437  -0.76800  -0.68495  -0.57481  -0.44667
  Beta  occ. eigenvalues --   -0.41487  -0.38066  -0.36166  -0.30579  -0.30138
  Beta  occ. eigenvalues --   -0.25001
  Beta virt. eigenvalues --   -0.16370  -0.14523  -0.08343  -0.04731  -0.00804
  Beta virt. eigenvalues --    0.00936   0.03308   0.03983   0.04074   0.04262
  Beta virt. eigenvalues --    0.04961   0.06840   0.07173   0.07573   0.09268

 Mulliken charges and spin densities:
               1          2
     1  S   -0.032162   0.617603
     2  S   -0.032162   0.617603
     3  S    0.032162   0.382397
     4  S    0.032162   0.382397
 Sum of Mulliken charges =  -0.00000   2.00000

 Dipole moment (field-independent basis, Debye):
    X=             -0.0000    Y=             -0.0000    Z=             -0.5475  Tot=              0.5475
 Quadrupole moment (field-independent basis, Debye-Ang):
   XX=            -54.0814   YY=            -51.3859   ZZ=            -48.3780
   XY=              0.0000   XZ=              0.0000   YZ=             -0.0000

  Exact polarizability:  55.661   0.000 115.189  -0.000   0.000  91.681
 Approx polarizability:  93.355  -0.000 280.986  -0.000  -0.000 222.074

                      1                      2                      3
                     A2                     A1                     B2
 Frequencies --     71.0565               164.8812               286.1052
 Red. masses --     31.9721                31.9721                31.9721
 Frc consts  --      0.0951                 0.5121                 1.5420
 IR Inten    --      0.0000                 9.8466                 0.4933

                      4                      5                      6
                     A1                     B2                     A1
 Frequencies --    398.6128               499.0401               588.0410
 Red. masses --     31.9721                31.9721                31.9721
 Frc consts  --      2.9931                 4.6913                 6.5138
 IR Inten    --      1.5538                20.9081                 0.7901

 - Thermochemistry -
 -------------------
 Temperature   298.150 Kelvin.  Pressure   1.00000 Atm.
 Atom     1 has atomic number 16 and mass  31.97207

 Molecular mass:   127.88829 amu.
 Principal axes and moments of inertia in atomic units:
                           1         2         3
     Eigenvalues --   459.75866 619.986601079.74525
           X           -0.00000   0.00000   1.00000
           Y            1.00000   0.00000   0.00000
           Z           -0.00000   1.00000  -0.00000
 This molecule is an asymmetric top.
 Rotational symmetry number  2.
 Warning -- assumption of classical behavior for rotation
           may cause significant error
 Rotational temperatures (Kelvin)      0.18839     0.13970     0.08022
 Rotational constants (GHZ):           3.92541     2.91094     1.67145
 Zero-point vibrational energy      12008.9 (Joules/Mol)
                                    2.87020 (Kcal/Mol)
 Warning -- explicit consideration of   6 degrees of freedom as
           vibrations may cause significant error
 Vibrational temperatures:    102.23   237.23   411.64   573.51   718.01
          (Kelvin)            846.06

 Zero-point correction=                           0.004574 (Hartree/Particle)
 Thermal correction to Energy=                    0.009956
 Thermal correction to Enthalpy=                  0.010900
 Thermal correction to Gibbs Free Energy=        -0.026489
 Sum of electronic and zero-point Energies=          -1592.852820
 Sum of electronic and thermal Energies=             -1592.847438
 Sum of electronic and thermal Enthalpies=           -1592.846494
 Sum of electronic and thermal Free Energies=        -1592.883884

                     E (Thermal)             CV                S
                      KCal/Mol        Cal/Mol-Kelvin    Cal/Mol-Kelvin
 Total                    6.247             15.297             78.693
 Electronic               0.000              0.000              2.183
 Translational            0.889              2.981             40.451
 Rotational               0.889              2.981             25.845
 Vibrational              4.470              9.335             10.213
 Vibration     1          0.598              1.968              4.124
 Vibration     2          0.623              1.886              2.493
 Vibration     3          0.684              1.699              1.497
 Vibration     4          0.765              1.473              0.968
 Vibration     5          0.854              1.252              0.661
 Vibration     6          0.945              1.057              0.471

 Optimization completed.
    -- Stationary point found.
 Normal termination of Gaussian 09 at Mon Oct 24 01:05:38 2016.
