 Gaussian 09, Revision E.01,
 Gaussian 09:  EM64L-G09RevE.01 30-Nov-2015

 ---------------------------------------------
 #p b3lyp/6-311++G(3df,2p) freq symmetry=Loose
 ---------------------------------------------

 ---------
 b3lyp opt
 ---------
 Symbolic Z-matrix:
 Charge =  1 Multiplicity = 4

                         Standard orientation:
 ---------------------------------------------------------------------
 Center     Atomic      Atomic             Coordinates (Angstroms)
 Number     Number       Type             X           Y           Z
 ---------------------------------------------------------------------
      1         16           0       -0.000000    1.304856    0.980758
      2         16           0       -0.000000   -1.304856    0.980758
      3         16           0        0.000000    1.146164   -0.980758
      4         16           0       -0.000000   -1.146164   -0.980758
 ---------------------------------------------------------------------

 SCF Done:  E(UB3LYP) =  -1592.53520143     A.U. after   13 cycles

 The electronic state is 4-A1.
 Alpha  occ. eigenvalues --  -89.15005 -89.15005 -89.14062 -89.14062  -8.23041
 Alpha  occ. eigenvalues --   -8.23039  -8.22117  -8.22114  -6.19310  -6.19305
 Alpha  occ. eigenvalues --   -6.19017  -6.19017  -6.18958  -6.18957  -6.18302
 Alpha  occ. eigenvalues --   -6.18302  -6.18284  -6.18284  -6.18100  -6.18100
 Alpha  occ. eigenvalues --   -1.10157  -1.03300  -0.91564  -0.82934  -0.68206
 Alpha  occ. eigenvalues --   -0.64072  -0.62573  -0.59720  -0.57006  -0.53338
 Alpha  occ. eigenvalues --   -0.50240  -0.48632  -0.44838
 Alpha virt. eigenvalues --   -0.30848  -0.28044  -0.21590  -0.15617  -0.11769
 Alpha virt. eigenvalues --   -0.10634  -0.10450  -0.10230  -0.10007  -0.09779
 Alpha virt. eigenvalues --   -0.08200  -0.07009  -0.05861  -0.05743  -0.05445

  Beta  occ. eigenvalues --  -89.14594 -89.14594 -89.13411 -89.13411  -8.22659
  Beta  occ. eigenvalues --   -8.22658  -8.21522  -8.21520  -6.18929  -6.18927
  Beta  occ. eigenvalues --   -6.18681  -6.18678  -6.17958  -6.17958  -6.17810
  Beta  occ. eigenvalues --   -6.17809  -6.17238  -6.17238  -6.16905  -6.16905
  Beta  occ. eigenvalues --   -1.07565  -1.00318  -0.87768  -0.78915  -0.65513
  Beta  occ. eigenvalues --   -0.62054  -0.58143  -0.57795  -0.51768  -0.50452
  Beta virt. eigenvalues --   -0.39983  -0.39491  -0.33997  -0.27358  -0.26544
  Beta virt. eigenvalues --   -0.19970  -0.15162  -0.11268  -0.10212  -0.10145
  Beta virt. eigenvalues --   -0.09841  -0.09182  -0.08014  -0.07319  -0.06625

 Mulliken charges and spin densities:
               1          2
     1  S    0.256668   0.922821
     2  S    0.256668   0.922821
     3  S    0.243332   0.577179
     4  S    0.243332   0.577179
 Sum of Mulliken charges =   1.00000   3.00000

 Dipole moment (field-independent basis, Debye):
    X=             -0.0000    Y=             -0.0000    Z=             -0.0033  Tot=              0.0033
 Quadrupole moment (field-independent basis, Debye-Ang):
   XX=            -47.7804   YY=            -37.0073   ZZ=            -37.4515
   XY=             -0.0000   XZ=              0.0000   YZ=             -0.0000

  Exact polarizability:  45.161  -0.000  95.476  -0.000   0.000  82.239
 Approx polarizability:  77.492   0.000 207.249  -0.000  -0.000 214.313

                      1                      2                      3
                     A2                     A1                     B2
 Frequencies --    118.0054               140.7475               252.9070
 Red. masses --     31.9721                31.9721                31.9721
 Frc consts  --      0.2623                 0.3732                 1.2049
 IR Inten    --      0.0000                 0.0886                 2.7531

                      4                      5                      6
                     A1                     B2                     A1
 Frequencies --    341.9459               573.1150               633.3837
 Red. masses --     31.9721                31.9721                31.9721
 Frc consts  --      2.2026                 6.1873                 7.5571
 IR Inten    --      0.0326                 1.8636                 0.0807

 - Thermochemistry -
 -------------------
 Temperature   298.150 Kelvin.  Pressure   1.00000 Atm.
 Atom     1 has atomic number 16 and mass  31.97207

 Molecular mass:   127.88829 amu.
 Principal axes and moments of inertia in atomic units:
                           1         2         3
     Eigenvalues --   439.29109 688.777521128.06861
           X            0.00000   0.00000   1.00000
           Y            1.00000   0.00000  -0.00000
           Z            0.00000   1.00000   0.00000
 This molecule is an asymmetric top.
 Rotational symmetry number  2.
 Warning -- assumption of classical behavior for rotation
           may cause significant error
 Rotational temperatures (Kelvin)      0.19717     0.12575     0.07678
 Rotational constants (GHZ):           4.10830     2.62021     1.59985
 Zero-point vibrational energy      12322.2 (Joules/Mol)
                                    2.94507 (Kcal/Mol)
 Warning -- explicit consideration of   5 degrees of freedom as
           vibrations may cause significant error
 Vibrational temperatures:    169.78   202.50   363.88   491.98   824.58
          (Kelvin)            911.30

 Zero-point correction=                           0.004693 (Hartree/Particle)
 Thermal correction to Energy=                    0.010057
 Thermal correction to Enthalpy=                  0.011001
 Thermal correction to Gibbs Free Energy=        -0.026481
 Sum of electronic and zero-point Energies=          -1592.530508
 Sum of electronic and thermal Energies=             -1592.525145
 Sum of electronic and thermal Enthalpies=           -1592.524201
 Sum of electronic and thermal Free Energies=        -1592.561683

                     E (Thermal)             CV                S
                      KCal/Mol        Cal/Mol-Kelvin    Cal/Mol-Kelvin
 Total                    6.311             15.209             78.888
 Electronic               0.000              0.000              2.755
 Translational            0.889              2.981             40.451
 Rotational               0.889              2.981             25.948
 Vibrational              4.533              9.248              9.734
 Vibration     1          0.608              1.934              3.133
 Vibration     2          0.615              1.913              2.794
 Vibration     3          0.664              1.758              1.710
 Vibration     4          0.721              1.592              1.203
 Vibration     5          0.929              1.089              0.498

 Normal termination of Gaussian 09 at Mon Oct 24 01:05:31 2016.
