 Gaussian 09, Revision E.01,
 Gaussian 09:  EM64L-G09RevE.01 30-Nov-2015

 ---------------------------------------------
 #p b3lyp/6-311++G(3df,2p) freq symmetry=Loose
 ---------------------------------------------

 ---------
 b3lyp opt
 ---------
 Symbolic Z-matrix:
 Charge =  1 Multiplicity = 2

                         Standard orientation:
 ---------------------------------------------------------------------
 Center     Atomic      Atomic             Coordinates (Angstroms)
 Number     Number       Type             X           Y           Z
 ---------------------------------------------------------------------
      1         16           0        0.000000    1.472763   -0.000000
      2         16           0        1.472763   -0.000000   -0.000000
      3         16           0       -0.000000   -1.472763   -0.000000
      4         16           0       -1.472763    0.000000   -0.000000
 ---------------------------------------------------------------------

 SCF Done:  E(UB3LYP) =  -1592.56883782     A.U. after   10 cycles

 The electronic state is 2-B2U.
 Alpha  occ. eigenvalues --  -89.15256 -89.15256 -89.15256 -89.15255  -8.23321
 Alpha  occ. eigenvalues --   -8.23321  -8.23320  -8.23316  -6.19669  -6.19656
 Alpha  occ. eigenvalues --   -6.19656  -6.19643  -6.19375  -6.19362  -6.19362
 Alpha  occ. eigenvalues --   -6.19350  -6.18954  -6.18952  -6.18952  -6.18951
 Alpha  occ. eigenvalues --   -1.12791  -0.98100  -0.98100  -0.81025  -0.70173
 Alpha  occ. eigenvalues --   -0.65740  -0.63324  -0.57424  -0.57424  -0.52923
 Alpha  occ. eigenvalues --   -0.52923  -0.42791
 Alpha virt. eigenvalues --   -0.34095  -0.34095  -0.24921  -0.21809  -0.15848
 Alpha virt. eigenvalues --   -0.11711  -0.11710  -0.11264  -0.09791  -0.09791
 Alpha virt. eigenvalues --   -0.09632  -0.09093  -0.06334  -0.06334  -0.06086

  Beta  occ. eigenvalues --  -89.15057 -89.15057 -89.15057 -89.15057  -8.23144
  Beta  occ. eigenvalues --   -8.23144  -8.23143  -8.23138  -6.19560  -6.19547
  Beta  occ. eigenvalues --   -6.19547  -6.19533  -6.19279  -6.19265  -6.19265
  Beta  occ. eigenvalues --   -6.19253  -6.18332  -6.18330  -6.18330  -6.18328
  Beta  occ. eigenvalues --   -1.12173  -0.97166  -0.97166  -0.79369  -0.69976
  Beta  occ. eigenvalues --   -0.65182  -0.61369  -0.56844  -0.56844  -0.49997
  Beta  occ. eigenvalues --   -0.49997
  Beta virt. eigenvalues --   -0.35454  -0.33701  -0.33701  -0.24439  -0.21195
  Beta virt. eigenvalues --   -0.15667  -0.11702  -0.11642  -0.10960  -0.09710
  Beta virt. eigenvalues --   -0.09710  -0.09375  -0.08578  -0.06151  -0.06151

 Mulliken charges and spin densities:
               1          2
     1  S    0.250000   0.250000
     2  S    0.250000   0.250000
     3  S    0.250000   0.250000
     4  S    0.250000   0.250000
 Sum of Mulliken charges =   1.00000   1.00000

 Dipole moment (field-independent basis, Debye):
    X=             -0.0000    Y=             -0.0000    Z=             -0.0000  Tot=              0.0000
 Quadrupole moment (field-independent basis, Debye-Ang):
   XX=            -36.7271   YY=            -36.7271   ZZ=            -49.5638
   XY=              0.0000   XZ=             -0.0000   YZ=             -0.0000

  Exact polarizability:  80.402  -0.000  80.402   0.000   0.000  44.470
 Approx polarizability: 190.455   0.000 190.455  -0.000  -0.000  75.051

                      1                      2                      3
                     B2U                    B1G                    EU
 Frequencies --     88.6745               313.0096               472.4785
 Red. masses --     31.9721                31.9721                31.9721
 Frc consts  --      0.1481                 1.8456                 4.2052
 IR Inten    --      0.0000                 0.0000                 0.0002

                      4                      5                      6
                     EU                     A1G                    B2G
 Frequencies --    472.4785               524.3837               564.3395
 Red. masses --     31.9721                31.9721                31.9721
 Frc consts  --      4.2052                 5.1799                 5.9993
 IR Inten    --      0.0002                 0.0000                 0.0000

 - Thermochemistry -
 -------------------
 Temperature   298.150 Kelvin.  Pressure   1.00000 Atm.
 Atom     1 has atomic number 16 and mass  31.97207

 Molecular mass:   127.88829 amu.
 Principal axes and moments of inertia in atomic units:
                           1         2         3
     Eigenvalues --   495.29534 495.29534 990.59068
           X            0.00000   1.00000   0.00000
           Y            1.00000  -0.00000   0.00000
           Z            0.00000   0.00000   1.00000
 This molecule is an oblate symmetric top.
 Rotational symmetry number  8.
 Warning -- assumption of classical behavior for rotation
           may cause significant error
 Rotational temperatures (Kelvin)      0.17487     0.17487     0.08744
 Rotational constants (GHZ):           3.64377     3.64377     1.82188
 Zero-point vibrational energy      14566.7 (Joules/Mol)
                                    3.48153 (Kcal/Mol)
 Warning -- explicit consideration of   6 degrees of freedom as
           vibrations may cause significant error
 Vibrational temperatures:    127.58   450.35   679.79   679.79   754.47
          (Kelvin)            811.96

 Zero-point correction=                           0.005548 (Hartree/Particle)
 Thermal correction to Energy=                    0.010419
 Thermal correction to Enthalpy=                  0.011364
 Thermal correction to Gibbs Free Energy=        -0.022987
 Sum of electronic and zero-point Energies=          -1592.563290
 Sum of electronic and thermal Energies=             -1592.558418
 Sum of electronic and thermal Enthalpies=           -1592.557474
 Sum of electronic and thermal Free Energies=        -1592.591825

                     E (Thermal)             CV                S
                      KCal/Mol        Cal/Mol-Kelvin    Cal/Mol-Kelvin
 Total                    6.538             14.494             72.296
 Electronic               0.000              0.000              1.377
 Translational            0.889              2.981             40.451
 Rotational               0.889              2.981             22.856
 Vibrational              4.761              8.533              7.612
 Vibration     1          0.601              1.957              3.689
 Vibration     2          0.701              1.649              1.346
 Vibration     3          0.829              1.311              0.731
 Vibration     4          0.829              1.311              0.731
 Vibration     5          0.879              1.196              0.600
 Vibration     6          0.920              1.108              0.515

 Optimization completed.
    -- Stationary point found.
 Normal termination of Gaussian 09 at Sun Oct 23 21:30:02 2016.
