 Gaussian 09, Revision E.01,
 Gaussian 09:  EM64L-G09RevE.01 30-Nov-2015

 ---------------------------------------------
 #p b3lyp/6-311++G(3df,2p) freq symmetry=Loose
 ---------------------------------------------

 ---------
 b3lyp opt
 ---------
 Symbolic Z-matrix:
 Charge =  0 Multiplicity = 1

                         Standard orientation:
 ---------------------------------------------------------------------
 Center     Atomic      Atomic             Coordinates (Angstroms)
 Number     Number       Type             X           Y           Z
 ---------------------------------------------------------------------
      1         16           0        0.000000    1.440141    0.312449
      2         16           0       -1.440141   -0.000000   -0.312449
      3         16           0        1.440141    0.000000   -0.312449
      4         16           0        0.000000   -1.440141    0.312449
 ---------------------------------------------------------------------

 SCF Done:  E(RB3LYP) =  -1592.85595686     A.U. after    9 cycles

 The electronic state is 1-A1.
 Alpha  occ. eigenvalues --  -88.91183 -88.91183 -88.91183 -88.91183  -7.99382
 Alpha  occ. eigenvalues --   -7.99382  -7.99382  -7.99377  -5.95827  -5.95819
 Alpha  occ. eigenvalues --   -5.95819  -5.95810  -5.95563  -5.95552  -5.95552
 Alpha  occ. eigenvalues --   -5.95542  -5.94635  -5.94634  -5.94634  -5.94633
 Alpha  occ. eigenvalues --   -0.88304  -0.73665  -0.73665  -0.59176  -0.45168
 Alpha  occ. eigenvalues --   -0.43036  -0.38839  -0.36449  -0.36449  -0.27395
 Alpha  occ. eigenvalues --   -0.27395  -0.22476
 Alpha virt. eigenvalues --   -0.11854  -0.11854  -0.06933  -0.03649   0.01015
 Alpha virt. eigenvalues --    0.03727   0.03727   0.04113   0.04296   0.05244
 Alpha virt. eigenvalues --    0.06620   0.06642   0.06642   0.09791   0.09999

 Mulliken charges:
               1
     1  S    0.000000
     2  S    0.000000
     3  S    0.000000
     4  S    0.000000
 Sum of Mulliken charges =   0.00000

 Dipole moment (field-independent basis, Debye):
    X=              0.0000    Y=             -0.0000    Z=              0.0000  Tot=              0.0000
 Quadrupole moment (field-independent basis, Debye-Ang):
   XX=            -49.2326   YY=            -49.2326   ZZ=            -54.9720
   XY=             -0.0000   XZ=             -0.0000   YZ=              0.0000

  Exact polarizability:  86.288   0.000  86.288   0.000   0.000  61.143
 Approx polarizability: 174.072  -0.000 174.072   0.000  -0.000 106.153

                      1                      2                      3
                     A1                     B2                      E
 Frequencies --    201.4656               301.9130               413.2925
 Red. masses --     31.9721                31.9721                31.9721
 Frc consts  --      0.7646                 1.7171                 3.2176
 IR Inten    --      0.0000                 0.0267                 0.0017

                      4                      5                      6
                      E                     B1                     A1
 Frequencies --    413.2925               440.7274               504.9179
 Red. masses --     31.9721                31.9721                31.9721
 Frc consts  --      3.2176                 3.6590                 4.8024
 IR Inten    --      0.0017                 0.0000                 0.0000

 - Thermochemistry -
 -------------------
 Temperature   298.150 Kelvin.  Pressure   1.00000 Atm.
 Atom     1 has atomic number 16 and mass  31.97207

 Molecular mass:   127.88829 amu.
 Principal axes and moments of inertia in atomic units:
                           1         2         3
     Eigenvalues --   518.18149 518.18149 947.19354
           X            0.99961   0.02810   0.00000
           Y           -0.02810   0.99961   0.00000
           Z            0.00000  -0.00000   1.00000
 This molecule is an oblate symmetric top.
 Rotational symmetry number  4.
 Warning -- assumption of classical behavior for rotation
           may cause significant error
 Rotational temperatures (Kelvin)      0.16715     0.16715     0.09144
 Rotational constants (GHZ):           3.48284     3.48284     1.90536
 Zero-point vibrational energy      13611.2 (Joules/Mol)
                                    3.25315 (Kcal/Mol)
 Warning -- explicit consideration of   6 degrees of freedom as
           vibrations may cause significant error
 Vibrational temperatures:    289.86   434.38   594.63   594.63   634.11
          (Kelvin)            726.46

 Zero-point correction=                           0.005184 (Hartree/Particle)
 Thermal correction to Energy=                    0.010079
 Thermal correction to Enthalpy=                  0.011023
 Thermal correction to Gibbs Free Energy=        -0.022976
 Sum of electronic and zero-point Energies=          -1592.850773
 Sum of electronic and thermal Energies=             -1592.845878
 Sum of electronic and thermal Enthalpies=           -1592.844934
 Sum of electronic and thermal Free Energies=        -1592.878933

                     E (Thermal)             CV                S
                      KCal/Mol        Cal/Mol-Kelvin    Cal/Mol-Kelvin
 Total                    6.324             14.973             71.556
 Electronic               0.000              0.000              0.000
 Translational            0.889              2.981             40.451
 Rotational               0.889              2.981             24.278
 Vibrational              4.547              9.011              6.826
 Vibration     1          0.638              1.838              2.120
 Vibration     2          0.694              1.670              1.406
 Vibration     3          0.777              1.441              0.915
 Vibration     4          0.777              1.441              0.915
 Vibration     5          0.801              1.381              0.824
 Vibration     6          0.860              1.239              0.646

 Optimization completed.
    -- Stationary point found.

 1\1\GINC-BELVIS17\Freq\RB3LYP\6-311++G(3df,2p)\S4\ROOT\24-Oct-2016\0\\
 #p b3lyp/6-311++G(3df,2p) freq symmetry=Loose\\b3lyp opt\\0,1\S,1.2616
 549802,0.7030834264,0.2924551293\S,-0.4563735409,1.0608570979,-0.91538
 87391\S,0.5712185298,-1.3113531342,0.3545329919\S,-1.3765019682,-0.452
 5883901,0.2684006179\\Version=EM64L-G09RevE.01\State=1-A1\HF=-1592.855
 9569\RMSD=4.822e-09\RMSF=2.892e-05\ZeroPoint=0.0051842\Thermal=0.01007
 86\Dipole=0.,0.,0.\DipoleDeriv=0.0001937,-0.0076934,-0.0116211,-0.0018
 523,-0.0007693,-0.006649,-0.0007099,-0.0019225,0.0005756,0.0036279,0.0

 Normal termination of Gaussian 09 at Mon Oct 24 01:02:03 2016.
