 Gaussian 09, Revision E.01,
 Gaussian 09:  EM64L-G09RevE.01 30-Nov-2015

 ---------------------------------------------
 #p b3lyp/6-311++G(3df,2p) freq symmetry=Loose
 ---------------------------------------------

 ---------
 b3lyp opt
 ---------
 Symbolic Z-matrix:
 Charge =  1 Multiplicity = 4

                         Standard orientation:
 ---------------------------------------------------------------------
 Center     Atomic      Atomic             Coordinates (Angstroms)
 Number     Number       Type             X           Y           Z
 ---------------------------------------------------------------------
      1         16           0        0.000000    1.322001    0.580399
      2         16           0       -1.285933    2.040250   -0.580437
      3         16           0       -0.000000   -1.322001    0.580399
      4         16           0        1.285933   -2.040250   -0.580437
 ---------------------------------------------------------------------

 SCF Done:  E(UB3LYP) =  -1592.56061223     A.U. after   16 cycles

 The electronic state is 4-B.
 Alpha  occ. eigenvalues --  -89.13189 -89.13189 -89.12383 -89.12383  -8.21305
 Alpha  occ. eigenvalues --   -8.21304  -8.20552  -8.20551  -6.17473  -6.17473
 Alpha  occ. eigenvalues --   -6.17300  -6.17300  -6.17279  -6.17279  -6.16777
 Alpha  occ. eigenvalues --   -6.16777  -6.16712  -6.16712  -6.16530  -6.16530
 Alpha  occ. eigenvalues --   -1.06851  -1.05476  -0.86176  -0.82641  -0.63792
 Alpha  occ. eigenvalues --   -0.60977  -0.60219  -0.58613  -0.58509  -0.55763
 Alpha  occ. eigenvalues --   -0.46247  -0.45308  -0.45009
 Alpha virt. eigenvalues --   -0.35295  -0.20560  -0.20501  -0.14969  -0.12092
 Alpha virt. eigenvalues --   -0.09684  -0.09600  -0.08787  -0.08583  -0.07683
 Alpha virt. eigenvalues --   -0.07534  -0.06614  -0.06267  -0.05729  -0.04736

  Beta  occ. eigenvalues --  -89.12843 -89.12843 -89.11705 -89.11705  -8.20994
  Beta  occ. eigenvalues --   -8.20992  -8.19941  -8.19941  -6.17237  -6.17237
  Beta  occ. eigenvalues --   -6.17031  -6.17031  -6.16317  -6.16317  -6.16170
  Beta  occ. eigenvalues --   -6.16170  -6.15658  -6.15658  -6.15330  -6.15330
  Beta  occ. eigenvalues --   -1.04831  -1.03411  -0.81907  -0.78273  -0.61906
  Beta  occ. eigenvalues --   -0.58829  -0.57503  -0.54188  -0.54158  -0.52225
  Beta virt. eigenvalues --   -0.37890  -0.34562  -0.34209  -0.31719  -0.19228
  Beta virt. eigenvalues --   -0.19223  -0.14676  -0.11715  -0.09330  -0.09255
  Beta virt. eigenvalues --   -0.08235  -0.08118  -0.07040  -0.06849  -0.06014

 Mulliken charges and spin densities:
               1          2
     1  S    0.324599   0.502478
     2  S    0.175401   0.997522
     3  S    0.324599   0.502478
     4  S    0.175401   0.997522
 Sum of Mulliken charges =   1.00000   3.00000

 Dipole moment (field-independent basis, Debye):
    X=             -0.0000    Y=              0.0000    Z=             -0.3635  Tot=              0.3635
 Quadrupole moment (field-independent basis, Debye-Ang):
   XX=            -40.3685   YY=            -27.8697   ZZ=            -43.9131
   XY=             -8.8150   XZ=             -0.0000   YZ=              0.0000

  Exact polarizability:  79.539 -44.011 141.572   0.000   0.000  62.757
 Approx polarizability: 172.202-102.543 281.022   0.000  -0.000 134.545

                      1                      2                      3
                      A                      A                      B
 Frequencies --     31.5584                80.4152               125.8419
 Red. masses --     31.9721                31.9721                31.9721
 Frc consts  --      0.0188                 0.1218                 0.2983
 IR Inten    --      0.0373                 0.0453                 0.3463

                      4                      5                      6
                      A                      B                      A
 Frequencies --    180.6512               701.5398               717.8955
 Red. masses --     31.9721                31.9721                31.9721
 Frc consts  --      0.6148                 9.2710                 9.7083
 IR Inten    --      0.0549                49.7759                 0.6555

 - Thermochemistry -
 -------------------
 Temperature   298.150 Kelvin.  Pressure   1.00000 Atm.
 Atom     1 has atomic number 16 and mass  31.97207

 Molecular mass:   127.88829 amu.
 Principal axes and moments of inertia in atomic units:
                           1         2         3
     Eigenvalues --   246.019881727.213701788.90323
           X           -0.43012   0.00000   0.90277
           Y            0.90277   0.00000   0.43012
           Z            0.00000   1.00000   0.00000
 This molecule is an asymmetric top.
 Rotational symmetry number  2.
 Rotational temperatures (Kelvin)      0.35206     0.05015     0.04842
 Rotational constants (GHZ):           7.33575     1.04489     1.00885
 Zero-point vibrational energy      10993.1 (Joules/Mol)
                                    2.62741 (Kcal/Mol)
 Warning -- explicit consideration of   4 degrees of freedom as
           vibrations may cause significant error
 Vibrational temperatures:     45.41   115.70   181.06   259.92  1009.36
          (Kelvin)           1032.89

 Zero-point correction=                           0.004187 (Hartree/Particle)
 Thermal correction to Energy=                    0.010162
 Thermal correction to Enthalpy=                  0.011106
 Thermal correction to Gibbs Free Energy=        -0.029508
 Sum of electronic and zero-point Energies=          -1592.556425
 Sum of electronic and thermal Energies=             -1592.550450
 Sum of electronic and thermal Enthalpies=           -1592.549506
 Sum of electronic and thermal Free Energies=        -1592.590120

                     E (Thermal)             CV                S
                      KCal/Mol        Cal/Mol-Kelvin    Cal/Mol-Kelvin
 Total                    6.377             15.322             85.480
 Electronic               0.000              0.000              2.755
 Translational            0.889              2.981             40.451
 Rotational               0.889              2.981             26.744
 Vibrational              4.599              9.361             15.530
 Vibration     1          0.594              1.983              5.729
 Vibration     2          0.600              1.962              3.881
 Vibration     3          0.611              1.927              3.009
 Vibration     4          0.630              1.866              2.322

 Normal termination of Gaussian 09 at Sun Oct 23 21:36:33 2016.
