 Gaussian 09, Revision E.01,
 Gaussian 09:  EM64L-G09RevE.01 30-Nov-2015

 ---------------------------------------------
 #p b3lyp/6-311++G(3df,2p) freq symmetry=Loose
 ---------------------------------------------

 ---------
 b3lyp opt
 ---------
 Symbolic Z-matrix:
 Charge =  1 Multiplicity = 2

                         Standard orientation:
 ---------------------------------------------------------------------
 Center     Atomic      Atomic             Coordinates (Angstroms)
 Number     Number       Type             X           Y           Z
 ---------------------------------------------------------------------
      1         16           0        1.793522   -1.702502   -0.000000
      2         16           0       -0.000189   -1.092412   -0.000000
      3         16           0        0.000000    1.091972    0.000000
      4         16           0       -1.793334    1.702943    0.000000
 ---------------------------------------------------------------------

 SCF Done:  E(UB3LYP) =  -1592.56399440     A.U. after   15 cycles

 The electronic state is 2-A".
 Alpha  occ. eigenvalues --  -89.16273 -89.16272 -89.11510 -89.11509  -8.24226
 Alpha  occ. eigenvalues --   -8.24225  -8.19760  -8.19756  -6.20387  -6.20377
 Alpha  occ. eigenvalues --   -6.20166  -6.20164  -6.20027  -6.20025  -6.16331
 Alpha  occ. eigenvalues --   -6.16330  -6.15928  -6.15927  -6.15106  -6.15105
 Alpha  occ. eigenvalues --   -1.09543  -1.04728  -0.89058  -0.81176  -0.66245
 Alpha  occ. eigenvalues --   -0.63115  -0.61565  -0.58081  -0.57273  -0.52075
 Alpha  occ. eigenvalues --   -0.46392  -0.46250
 Alpha virt. eigenvalues --   -0.38674  -0.29297  -0.23656  -0.20414  -0.15126
 Alpha virt. eigenvalues --   -0.12065  -0.10540  -0.10293  -0.09729  -0.08990
 Alpha virt. eigenvalues --   -0.07786  -0.07248  -0.07014  -0.06093  -0.05843

  Beta  occ. eigenvalues --  -89.16288 -89.16287 -89.11176 -89.11175  -8.24238
  Beta  occ. eigenvalues --   -8.24237  -8.19456  -8.19453  -6.20406  -6.20396
  Beta  occ. eigenvalues --   -6.20179  -6.20178  -6.20049  -6.20047  -6.15742
  Beta  occ. eigenvalues --   -6.15741  -6.15294  -6.15293  -6.14910  -6.14909
  Beta  occ. eigenvalues --   -1.09095  -1.03976  -0.87273  -0.79964  -0.65776
  Beta  occ. eigenvalues --   -0.62556  -0.60255  -0.57775  -0.54827  -0.51487
  Beta  occ. eigenvalues --   -0.45609
  Beta virt. eigenvalues --   -0.38347  -0.35424  -0.29108  -0.23165  -0.20065
  Beta virt. eigenvalues --   -0.15041  -0.11888  -0.10447  -0.10202  -0.09536
  Beta virt. eigenvalues --   -0.08608  -0.07293  -0.07213  -0.06970  -0.05811

 Mulliken charges and spin densities:
               1          2
     1  S    0.231721   0.502777
     2  S    0.268239  -0.002675
     3  S    0.268346  -0.002646
     4  S    0.231694   0.502543
 Sum of Mulliken charges =   1.00000   1.00000

 Dipole moment (field-independent basis, Debye):
    X=             -0.0006    Y=              0.0003    Z=              0.0000  Tot=              0.0007
 Quadrupole moment (field-independent basis, Debye-Ang):
   XX=            -35.5579   YY=            -35.5728   ZZ=            -45.5922
   XY=            -10.0340   XZ=             -0.0000   YZ=             -0.0000

  Exact polarizability: 111.144 -59.420 126.396   0.001   0.000  45.465
 Approx polarizability: 292.905-195.691 344.923  -0.000   0.000  80.547

                      1                      2                      3
                     A"                     A'                     A'
 Frequencies --     70.5783               101.3348               190.1859
 Red. masses --     31.9721                31.9721                31.9721
 Frc consts  --      0.0938                 0.1934                 0.6814
 IR Inten    --      0.0177                 1.9116                 0.0000

                      4                      5                      6
                     A'                     A'                     A'
 Frequencies --    395.5519               631.6326               664.6017
 Red. masses --     31.9721                31.9721                31.9721
 Frc consts  --      2.9473                 7.5154                 8.3204
 IR Inten    --      0.0000               122.4681                 0.0007

 - Thermochemistry -
 -------------------
 Temperature   298.150 Kelvin.  Pressure   1.00000 Atm.
 Atom     1 has atomic number 16 and mass  31.97207

 Molecular mass:   127.88829 amu.
 Principal axes and moments of inertia in atomic units:
                           1         2         3
     Eigenvalues --   130.026841538.866721668.89355
           X           -0.65500   0.75563   0.00000
           Y            0.75563   0.65500   0.00000
           Z           -0.00000  -0.00000   1.00000
 This molecule is an asymmetric top.
 Rotational symmetry number  1.
 Rotational temperatures (Kelvin)      0.66612     0.05628     0.05190
 Rotational constants (GHZ):          13.87976     1.17277     1.08140
 Zero-point vibrational energy      12285.0 (Joules/Mol)
                                    2.93618 (Kcal/Mol)
 Warning -- explicit consideration of   4 degrees of freedom as
           vibrations may cause significant error
 Vibrational temperatures:    101.55   145.80   273.63   569.11   908.78
          (Kelvin)            956.21

 Zero-point correction=                           0.004679 (Hartree/Particle)
 Thermal correction to Energy=                    0.010197
 Thermal correction to Enthalpy=                  0.011141
 Thermal correction to Gibbs Free Energy=        -0.027179
 Sum of electronic and zero-point Energies=          -1592.559315
 Sum of electronic and thermal Energies=             -1592.553797
 Sum of electronic and thermal Enthalpies=           -1592.552853
 Sum of electronic and thermal Free Energies=        -1592.591174

                     E (Thermal)             CV                S
                      KCal/Mol        Cal/Mol-Kelvin    Cal/Mol-Kelvin
 Total                    6.399             15.075             80.653
 Electronic               0.000              0.000              1.377
 Translational            0.889              2.981             40.451
 Rotational               0.889              2.981             27.304
 Vibrational              4.621              9.113             11.520
 Vibration     1          0.598              1.968              4.137
 Vibration     2          0.604              1.948              3.428
 Vibration     3          0.634              1.853              2.226
 Vibration     4          0.762              1.480              0.979

 Optimization completed.
    -- Stationary point found.
 Normal termination of Gaussian 09 at Mon Oct 24 01:06:17 2016.
