 Gaussian 09, Revision E.01,
 Gaussian 09:  EM64L-G09RevE.01 30-Nov-2015

 ---------------------------------------------
 #p b3lyp/6-311++G(3df,2p) freq symmetry=Loose
 ---------------------------------------------

 ---------
 b3lyp opt
 ---------
 Symbolic Z-matrix:
 Charge =  0 Multiplicity = 3

                         Standard orientation:
 ---------------------------------------------------------------------
 Center     Atomic      Atomic             Coordinates (Angstroms)
 Number     Number       Type             X           Y           Z
 ---------------------------------------------------------------------
      1         16           0       -1.866862   -1.641245   -0.000000
      2         16           0       -0.000006   -1.120913   -0.000000
      3         16           0        0.000000    1.120754    0.000000
      4         16           0        1.866868    1.641404    0.000000
 ---------------------------------------------------------------------

 SCF Done:  E(UB3LYP) =  -1592.87736338     A.U. after   14 cycles

 The electronic state is 3-A'.
 Alpha  occ. eigenvalues --  -88.93314 -88.93314 -88.89087 -88.89087  -8.01425
 Alpha  occ. eigenvalues --   -8.01424  -7.97471  -7.97469  -5.97646  -5.97638
 Alpha  occ. eigenvalues --   -5.97391  -5.97390  -5.97320  -5.97319  -5.93928
 Alpha  occ. eigenvalues --   -5.93928  -5.93696  -5.93696  -5.92927  -5.92927
 Alpha  occ. eigenvalues --   -0.86979  -0.82412  -0.67556  -0.61458  -0.44634
 Alpha  occ. eigenvalues --   -0.42079  -0.40897  -0.37465  -0.36869  -0.31372
 Alpha  occ. eigenvalues --   -0.27396  -0.26147  -0.24090
 Alpha virt. eigenvalues --   -0.10245  -0.04714  -0.02569   0.00805   0.02572
 Alpha virt. eigenvalues --    0.03541   0.03619   0.04824   0.05769   0.06037
 Alpha virt. eigenvalues --    0.06588   0.06611   0.06738   0.09322   0.09395

  Beta  occ. eigenvalues --  -88.93053 -88.93053 -88.88680 -88.88680  -8.01190
  Beta  occ. eigenvalues --   -8.01189  -7.97103  -7.97100  -5.97508  -5.97501
  Beta  occ. eigenvalues --   -5.97196  -5.97195  -5.96552  -5.96551  -5.93479
  Beta  occ. eigenvalues --   -5.93479  -5.92698  -5.92698  -5.92651  -5.92651
  Beta  occ. eigenvalues --   -0.85642  -0.80942  -0.64949  -0.58735  -0.43784
  Beta  occ. eigenvalues --   -0.41035  -0.36988  -0.36601  -0.32171  -0.30525
  Beta  occ. eigenvalues --   -0.25297
  Beta virt. eigenvalues --   -0.17043  -0.14185  -0.09501  -0.03923  -0.01908
  Beta virt. eigenvalues --    0.00938   0.02612   0.03744   0.03819   0.05118
  Beta virt. eigenvalues --    0.05766   0.06253   0.06704   0.06868   0.07063

 Mulliken charges and spin densities:
               1          2
     1  S   -0.078181   0.632160
     2  S    0.078192   0.367839
     3  S    0.078200   0.367807
     4  S   -0.078211   0.632194
 Sum of Mulliken charges =  -0.00000   2.00000

 Dipole moment (field-independent basis, Debye):
    X=             -0.0001    Y=             -0.0003    Z=             -0.0000  Tot=              0.0003
 Quadrupole moment (field-independent basis, Debye-Ang):
   XX=            -51.4511   YY=            -52.7920   ZZ=            -51.6756
   XY=             -0.3195   XZ=              0.0000   YZ=              0.0000

  Exact polarizability: 121.493  46.973 114.242   0.000   0.001  55.255
 Approx polarizability: 252.520  96.191 213.280   0.000   0.000  92.593

                      1                      2                      3
                     A"                     A'                     A'
 Frequencies --     14.9901                87.9083               170.7917
 Red. masses --     31.9721                31.9721                31.9721
 Frc consts  --      0.0042                 0.1456                 0.5495
 IR Inten    --      0.3805                 0.8356                 0.0000

                      4                      5                      6
                     A'                     A'                     A'
 Frequencies --    383.6196               619.0901               626.6663
 Red. masses --     31.9721                31.9721                31.9721
 Frc consts  --      2.7722                 7.2199                 7.3976
 IR Inten    --      0.0000                35.6832                 0.0039

 - Thermochemistry -
 -------------------
 Temperature   298.150 Kelvin.  Pressure   1.00000 Atm.
 Atom     1 has atomic number 16 and mass  31.97207

 Molecular mass:   127.88829 amu.
 Principal axes and moments of inertia in atomic units:
                           1         2         3
     Eigenvalues --   147.229071550.634161697.86324
           X            0.67983   0.73337   0.00000
           Y            0.73337  -0.67983   0.00000
           Z            0.00000   0.00000   1.00000
 This molecule is an asymmetric top.
 Rotational symmetry number  1.
 Rotational temperatures (Kelvin)      0.58829     0.05586     0.05101
 Rotational constants (GHZ):          12.25805     1.16387     1.06295
 Zero-point vibrational energy      11382.9 (Joules/Mol)
                                    2.72057 (Kcal/Mol)
 Warning -- explicit consideration of   5 degrees of freedom as
           vibrations may cause significant error
 Vibrational temperatures:     21.57   126.48   245.73   551.94   890.73
          (Kelvin)            901.63

 Zero-point correction=                           0.004336 (Hartree/Particle)
 Thermal correction to Energy=                    0.010066
 Thermal correction to Enthalpy=                  0.011010
 Thermal correction to Gibbs Free Energy=        -0.029507
 Sum of electronic and zero-point Energies=          -1592.873028
 Sum of electronic and thermal Energies=             -1592.867298
 Sum of electronic and thermal Enthalpies=           -1592.866353
 Sum of electronic and thermal Free Energies=        -1592.906870

                     E (Thermal)             CV                S
                      KCal/Mol        Cal/Mol-Kelvin    Cal/Mol-Kelvin
 Total                    6.316             15.257             85.275
 Electronic               0.000              0.000              2.183
 Translational            0.889              2.981             40.451
 Rotational               0.889              2.981             27.452
 Vibrational              4.539              9.295             15.189
 Vibration     1          0.593              1.986              7.207
 Vibration     2          0.601              1.958              3.706
 Vibration     3          0.626              1.878              2.427
 Vibration     4          0.753              1.505              1.025
 Vibration     5          0.979              0.992              0.418

 Optimization completed.
    -- Stationary point found.
 Normal termination of Gaussian 09 at Mon Oct 24 01:06:19 2016.
