 Gaussian 09, Revision E.01,
 Gaussian 09:  EM64L-G09RevE.01 30-Nov-2015

 ---------------------------------------------
 #p b3lyp/6-311++G(3df,2p) freq symmetry=Loose
 ---------------------------------------------

 ---------
 b3lyp opt
 ---------
 Symbolic Z-matrix:
 Charge =  0 Multiplicity = 1

                         Standard orientation:
 ---------------------------------------------------------------------
 Center     Atomic      Atomic             Coordinates (Angstroms)
 Number     Number       Type             X           Y           Z
 ---------------------------------------------------------------------
      1         16           0        0.000000    1.643396    0.910524
      2         16           0       -0.000000    1.057479   -0.910524
      3         16           0       -0.000000   -1.057479   -0.910524
      4         16           0       -0.000000   -1.643396    0.910524
 ---------------------------------------------------------------------

 SCF Done:  E(RB3LYP) =  -1592.88736671     A.U. after   11 cycles

 The electronic state is 1-A1.
 Alpha  occ. eigenvalues --  -88.94429 -88.94429 -88.87939 -88.87938  -8.02498
 Alpha  occ. eigenvalues --   -8.02498  -7.96377  -7.96373  -5.98703  -5.98687
 Alpha  occ. eigenvalues --   -5.98359  -5.98358  -5.98349  -5.98345  -5.92719
 Alpha  occ. eigenvalues --   -5.92718  -5.92301  -5.92301  -5.91931  -5.91931
 Alpha  occ. eigenvalues --   -0.88514  -0.81552  -0.68103  -0.58628  -0.45554
 Alpha  occ. eigenvalues --   -0.42177  -0.40590  -0.37608  -0.34160  -0.28043
 Alpha  occ. eigenvalues --   -0.26956  -0.24575
 Alpha virt. eigenvalues --   -0.16306  -0.06874  -0.05999   0.00237   0.00954
 Alpha virt. eigenvalues --    0.02851   0.03511   0.03857   0.04484   0.05045
 Alpha virt. eigenvalues --    0.06265   0.06743   0.07623   0.08295   0.09011

 Mulliken charges:
               1
     1  S   -0.080842
     2  S    0.080842
     3  S    0.080842
     4  S   -0.080842
 Sum of Mulliken charges =  -0.00000

 Dipole moment (field-independent basis, Debye):
    X=              0.0000    Y=             -0.0000    Z=             -1.2887  Tot=              1.2887
 Quadrupole moment (field-independent basis, Debye-Ang):
   XX=            -51.8052   YY=            -53.5011   ZZ=            -49.1226
   XY=             -0.0000   XZ=              0.0000   YZ=             -0.0000

  Exact polarizability:  54.606   0.000 137.350  -0.000   0.000  87.777
 Approx polarizability:  95.575   0.000 480.941  -0.000  -0.000 222.799

                      1                      2                      3
                     A1                     A2                     B2
 Frequencies --    104.3511               208.4028               331.1378
 Red. masses --     31.9721                31.9721                31.9721
 Frc consts  --      0.2051                 0.8181                 2.0656
 IR Inten    --      0.1707                 0.0000                 0.1422

                      4                      5                      6
                     A1                     B2                     A1
 Frequencies --    368.2491               646.3127               673.3397
 Red. masses --     31.9721                31.9721                31.9721
 Frc consts  --      2.5545                 7.8688                 8.5406
 IR Inten    --      3.8782               121.3488                 6.9154

 - Thermochemistry -
 -------------------
 Temperature   298.150 Kelvin.  Pressure   1.00000 Atm.
 Atom     1 has atomic number 16 and mass  31.97207

 Molecular mass:   127.88829 amu.
 Principal axes and moments of inertia in atomic units:
                           1         2         3
     Eigenvalues --   378.62668 872.066831250.69352
           X            0.00000   0.00000   1.00000
           Y            1.00000   0.00000  -0.00000
           Z           -0.00000   1.00000  -0.00000
 This molecule is an asymmetric top.
 Rotational symmetry number  2.
 Rotational temperatures (Kelvin)      0.22876     0.09932     0.06925
 Rotational constants (GHZ):           4.76655     2.06950     1.44299
 Zero-point vibrational energy      13947.2 (Joules/Mol)
                                    3.33347 (Kcal/Mol)
 Warning -- explicit consideration of   4 degrees of freedom as
           vibrations may cause significant error
 Vibrational temperatures:    150.14   299.84   476.43   529.83   929.90
          (Kelvin)            968.78

 Zero-point correction=                           0.005312 (Hartree/Particle)
 Thermal correction to Energy=                    0.010403
 Thermal correction to Enthalpy=                  0.011347
 Thermal correction to Gibbs Free Energy=        -0.024323
 Sum of electronic and zero-point Energies=          -1592.882054
 Sum of electronic and thermal Energies=             -1592.876964
 Sum of electronic and thermal Enthalpies=           -1592.876019
 Sum of electronic and thermal Free Energies=        -1592.911690

                     E (Thermal)             CV                S
                      KCal/Mol        Cal/Mol-Kelvin    Cal/Mol-Kelvin
 Total                    6.528             14.703             75.075
 Electronic               0.000              0.000              0.000
 Translational            0.889              2.981             40.451
 Rotational               0.889              2.981             26.137
 Vibrational              4.751              8.741              8.486
 Vibration     1          0.605              1.946              3.371
 Vibration     2          0.642              1.828              2.058
 Vibration     3          0.714              1.613              1.255
 Vibration     4          0.741              1.538              1.087

 Optimization completed.
    -- Stationary point found.

 1\1\GINC-BELVIS17\Freq\RB3LYP\6-311++G(3df,2p)\S4\ROOT\24-Oct-2016\0\\
 #p b3lyp/6-311++G(3df,2p) freq symmetry=Loose\\b3lyp opt\\0,1\S,0.0000
 106932,1.196924201,1.622695164\S,0.0000073807,-0.636729571,1.07750914\
 S,-0.0000063807,-0.6838654298,-1.0369241398\S,-0.0000106932,1.12367179
 92,-1.6632811642\\Version=EM64L-G09RevE.01\State=1-A1\HF=-1592.8873667
 \RMSD=4.273e-09\RMSF=1.246e-05\ZeroPoint=0.0053122\Thermal=0.010403\Di
 pole=0.0000001,-0.5068735,0.0112994\DipoleDeriv=-0.0736469,-0.0000005,
 -0.0000013,-0.0000059,-0.2096985,-0.9078656,-0.0000014,-0.0771583,-0.2

 Normal termination of Gaussian 09 at Mon Oct 24 01:02:21 2016.
