 Gaussian 09, Revision E.01,
 Gaussian 09:  EM64L-G09RevE.01 30-Nov-2015

 ---------------------------------------------
 #p b3lyp/6-311++G(3df,2p) freq symmetry=Loose
 ---------------------------------------------

 ---------
 b3lyp opt
 ---------
 Symbolic Z-matrix:
 Charge =  1 Multiplicity = 2

                         Standard orientation:
 ---------------------------------------------------------------------
 Center     Atomic      Atomic             Coordinates (Angstroms)
 Number     Number       Type             X           Y           Z
 ---------------------------------------------------------------------
      1         16           0        0.000000   -1.612803    0.907888
      2         16           0        0.000000   -1.164117   -0.907888
      3         16           0        0.000000    1.164117   -0.907888
      4         16           0        0.000000    1.612803    0.907888
 ---------------------------------------------------------------------

 SCF Done:  E(UB3LYP) =  -1592.57005358     A.U. after   15 cycles

 The electronic state is 2-B1.
 Alpha  occ. eigenvalues --  -89.15447 -89.15447 -89.12210 -89.12210  -8.23467
 Alpha  occ. eigenvalues --   -8.23465  -8.20443  -8.20439  -6.19551  -6.19548
 Alpha  occ. eigenvalues --   -6.19502  -6.19502  -6.19272  -6.19271  -6.16925
 Alpha  occ. eigenvalues --   -6.16925  -6.16550  -6.16550  -6.15900  -6.15900
 Alpha  occ. eigenvalues --   -1.09268  -1.05054  -0.88002  -0.81056  -0.66041
 Alpha  occ. eigenvalues --   -0.62485  -0.61457  -0.59730  -0.57372  -0.50973
 Alpha  occ. eigenvalues --   -0.47680  -0.46223
 Alpha virt. eigenvalues --   -0.38669  -0.30311  -0.23825  -0.18110  -0.15769
 Alpha virt. eigenvalues --   -0.10830  -0.10827  -0.10797  -0.09867  -0.09676
 Alpha virt. eigenvalues --   -0.09398  -0.07362  -0.06269  -0.05852  -0.05311

  Beta  occ. eigenvalues --  -89.15405 -89.15405 -89.11936 -89.11935  -8.23428
  Beta  occ. eigenvalues --   -8.23427  -8.20194  -8.20190  -6.19540  -6.19537
  Beta  occ. eigenvalues --   -6.19339  -6.19338  -6.19265  -6.19264  -6.16399
  Beta  occ. eigenvalues --   -6.16399  -6.16075  -6.16075  -6.15734  -6.15734
  Beta  occ. eigenvalues --   -1.08688  -1.04365  -0.86439  -0.79691  -0.65630
  Beta  occ. eigenvalues --   -0.62061  -0.59560  -0.59186  -0.55220  -0.50484
  Beta  occ. eigenvalues --   -0.47155
  Beta virt. eigenvalues --   -0.38862  -0.35177  -0.29967  -0.23428  -0.17655
  Beta virt. eigenvalues --   -0.15619  -0.10770  -0.10726  -0.10628  -0.09768
  Beta virt. eigenvalues --   -0.09521  -0.08878  -0.07215  -0.05988  -0.05800

 Mulliken charges and spin densities:
               1          2
     1  S    0.248830   0.418499
     2  S    0.251170   0.081501
     3  S    0.251170   0.081501
     4  S    0.248830   0.418499
 Sum of Mulliken charges =   1.00000   1.00000

 Dipole moment (field-independent basis, Debye):
    X=              0.0000    Y=              0.0000    Z=             -0.2213  Tot=              0.2213
 Quadrupole moment (field-independent basis, Debye-Ang):
   XX=            -45.7079   YY=            -36.0109   ZZ=            -38.6173
   XY=              0.0000   XZ=              0.0000   YZ=              0.0000

  Exact polarizability:  44.819  -0.000 128.839   0.000  -0.000  77.909
 Approx polarizability:  80.985   0.000 375.314   0.000   0.000 218.710

                      1                      2                      3
                     A1                     A2                     A1
 Frequencies --     95.6352               151.5130               248.4265
 Red. masses --     31.9721                31.9721                31.9721
 Frc consts  --      0.1723                 0.4324                 1.1626
 IR Inten    --      0.0012                 0.0000                 0.1931

                      4                      5                      6
                     B2                     B2                     A1
 Frequencies --    303.3378               684.3193               725.1317
 Red. masses --     31.9721                31.9721                31.9721
 Frc consts  --      1.7333                 8.8214                 9.9050
 IR Inten    --      0.3485               114.0252                 0.0502

 - Thermochemistry -
 -------------------
 Temperature   298.150 Kelvin.  Pressure   1.00000 Atm.
 Atom     1 has atomic number 16 and mass  31.97207

 Molecular mass:   127.88829 amu.
 Principal axes and moments of inertia in atomic units:
                           1         2         3
     Eigenvalues --   376.43753 903.416061279.85359
           X           -0.00000   0.00000   1.00000
           Y            1.00000   0.00000   0.00000
           Z           -0.00000   1.00000   0.00000
 This molecule is an asymmetric top.
 Rotational symmetry number  2.
 Rotational temperatures (Kelvin)      0.23009     0.09587     0.06767
 Rotational constants (GHZ):           4.79426     1.99769     1.41012
 Zero-point vibrational energy      13208.9 (Joules/Mol)
                                    3.15701 (Kcal/Mol)
 Warning -- explicit consideration of   4 degrees of freedom as
           vibrations may cause significant error
 Vibrational temperatures:    137.60   217.99   357.43   436.43   984.58
          (Kelvin)           1043.30

 Zero-point correction=                           0.005031 (Hartree/Particle)
 Thermal correction to Energy=                    0.010374
 Thermal correction to Enthalpy=                  0.011318
 Thermal correction to Gibbs Free Energy=        -0.025721
 Sum of electronic and zero-point Energies=          -1592.565023
 Sum of electronic and thermal Energies=             -1592.559680
 Sum of electronic and thermal Enthalpies=           -1592.558735
 Sum of electronic and thermal Free Energies=        -1592.595775

                     E (Thermal)             CV                S
                      KCal/Mol        Cal/Mol-Kelvin    Cal/Mol-Kelvin
 Total                    6.510             14.889             77.956
 Electronic               0.000              0.000              1.377
 Translational            0.889              2.981             40.451
 Rotational               0.889              2.981             26.190
 Vibrational              4.732              8.927              9.938
 Vibration     1          0.603              1.952              3.541
 Vibration     2          0.619              1.901              2.653
 Vibration     3          0.662              1.765              1.742
 Vibration     4          0.695              1.667              1.398

 Optimization completed.
    -- Stationary point found.
 Normal termination of Gaussian 09 at Mon Oct 24 01:05:47 2016.
