 Gaussian 09, Revision E.01,
 Gaussian 09:  EM64L-G09RevE.01 30-Nov-2015

 ---------------------------------------------
 #p b3lyp/6-311++G(3df,2p) freq symmetry=Loose
 ---------------------------------------------

 ---------
 b3lyp opt
 ---------
 Symbolic Z-matrix:
 Charge =  1 Multiplicity = 4

                         Standard orientation:
 ---------------------------------------------------------------------
 Center     Atomic      Atomic             Coordinates (Angstroms)
 Number     Number       Type             X           Y           Z
 ---------------------------------------------------------------------
      1         16           0       -1.525754    0.824927   -0.451443
      2         16           0       -0.001748   -0.002601    0.804019
      3         16           0        2.930464    0.428817    0.052012
      4         16           0       -2.929551   -0.429066    0.049857
      5         16           0        1.526588   -0.822076   -0.454444
 ---------------------------------------------------------------------

 SCF Done:  E(UB3LYP) =  -1990.77896525     A.U. after   18 cycles

 The electronic state is 4-A.
 Alpha  occ. eigenvalues --  -89.13095 -89.13073 -89.12066 -89.10119 -89.10086
 Alpha  occ. eigenvalues --   -8.21102  -8.21080  -8.20161  -8.18294  -8.18262
 Alpha  occ. eigenvalues --   -6.17376  -6.17355  -6.17013  -6.16994  -6.16990
 Alpha  occ. eigenvalues --   -6.16971  -6.16677  -6.16023  -6.15807  -6.14614
 Alpha  occ. eigenvalues --   -6.14584  -6.14462  -6.14429  -6.14185  -6.14151
 Alpha  occ. eigenvalues --   -1.07499  -1.04467  -0.94491  -0.85305  -0.80625
 Alpha  occ. eigenvalues --   -0.65172  -0.61832  -0.61363  -0.58657  -0.57270
 Alpha  occ. eigenvalues --   -0.55763  -0.50329  -0.49307  -0.46486  -0.45085
 Alpha  occ. eigenvalues --   -0.43789
 Alpha virt. eigenvalues --   -0.28363  -0.26668  -0.22332  -0.21505  -0.13284
 Alpha virt. eigenvalues --   -0.11453  -0.10524  -0.09769  -0.08306  -0.08180
 Alpha virt. eigenvalues --   -0.08011  -0.07892  -0.06723  -0.06387  -0.05751

  Beta  occ. eigenvalues --  -89.12849 -89.12828 -89.11858 -89.09414 -89.09383
  Beta  occ. eigenvalues --   -8.20882  -8.20860  -8.19976  -8.17659  -8.17629
  Beta  occ. eigenvalues --   -6.17221  -6.17200  -6.16889  -6.16867  -6.16324
  Beta  occ. eigenvalues --   -6.16234  -6.16212  -6.15992  -6.15296  -6.13992
  Beta  occ. eigenvalues --   -6.13961  -6.13184  -6.13155  -6.13110  -6.13081
  Beta  occ. eigenvalues --   -1.05911  -1.02519  -0.92052  -0.81512  -0.77480
  Beta  occ. eigenvalues --   -0.63745  -0.60178  -0.59274  -0.56466  -0.53411
  Beta  occ. eigenvalues --   -0.52418  -0.47422  -0.44930
  Beta virt. eigenvalues --   -0.38102  -0.34818  -0.33602  -0.27008  -0.25660
  Beta virt. eigenvalues --   -0.21155  -0.20196  -0.13023  -0.10962  -0.10248
  Beta virt. eigenvalues --   -0.09548  -0.07934  -0.07823  -0.07539  -0.07303

 Mulliken charges and spin densities:
               1          2
     1  S    0.197929   0.321727
     2  S    0.289386   0.283169
     3  S    0.156631   1.035799
     4  S    0.157736   1.038047
     5  S    0.198317   0.321259
 Sum of Mulliken charges =   1.00000   3.00000

 Dipole moment (field-independent basis, Debye):
    X=             -0.0118    Y=              0.0022    Z=             -0.3554  Tot=              0.3556
 Quadrupole moment (field-independent basis, Debye-Ang):
   XX=            -30.7200   YY=            -56.6855   ZZ=            -58.1459
   XY=              1.0110   XZ=              0.0081   YZ=             -0.0045

  Exact polarizability: 278.890  11.324  75.390   0.024   0.007  68.447
 Approx polarizability: 737.910  80.268 161.940   0.254   0.028 135.952

                      1                      2                      3
                      A                      A                      A
 Frequencies --     28.5898                38.0284               113.8618
 Red. masses --     31.9721                31.9721                31.9721
 Frc consts  --      0.0154                 0.0272                 0.2442
 IR Inten    --      0.0016                 0.1669                46.4677

                      4                      5                      6
                      A                      A                      A
 Frequencies --    134.2885               140.9806               300.4920
 Red. masses --     31.9721                31.9721                31.9721
 Frc consts  --      0.3397                 0.3744                 1.7009
 IR Inten    --      0.2143                 0.1375                 1.1602

                      7                      8                      9
                      A                      A                      A
 Frequencies --    403.8435               606.5369               609.9104
 Red. masses --     31.9721                31.9721                31.9721
 Frc consts  --      3.0722                 6.9300                 7.0073
 IR Inten    --      0.1470                 0.6970                12.7342

 - Thermochemistry -
 -------------------
 Temperature   298.150 Kelvin.  Pressure   1.00000 Atm.
 Atom     1 has atomic number 16 and mass  31.97207

 Molecular mass:   159.86036 amu.
 Principal axes and moments of inertia in atomic units:
                           1         2         3
     Eigenvalues --   318.119202613.478162689.10082
           X            1.00000  -0.00000  -0.00000
           Y            0.00000   1.00000  -0.00000
           Z            0.00000   0.00000   1.00000
 This molecule is an asymmetric top.
 Rotational symmetry number  1.
 Rotational temperatures (Kelvin)      0.27227     0.03314     0.03221
 Rotational constants (GHZ):           5.67316     0.69055     0.67113
 Zero-point vibrational energy      14214.8 (Joules/Mol)
                                    3.39742 (Kcal/Mol)
 Warning -- explicit consideration of   9 degrees of freedom as
           vibrations may cause significant error
 Vibrational temperatures:     41.13    54.71   163.82   193.21   202.84
          (Kelvin)            432.34   581.04   872.67   877.52

 Zero-point correction=                           0.005414 (Hartree/Particle)
 Thermal correction to Energy=                    0.013062
 Thermal correction to Enthalpy=                  0.014006
 Thermal correction to Gibbs Free Energy=        -0.031824
 Sum of electronic and zero-point Energies=          -1990.773551
 Sum of electronic and thermal Energies=             -1990.765903
 Sum of electronic and thermal Enthalpies=           -1990.764959
 Sum of electronic and thermal Free Energies=        -1990.810790

                     E (Thermal)             CV                S
                      KCal/Mol        Cal/Mol-Kelvin    Cal/Mol-Kelvin
 Total                    8.197             20.860             96.459
 Electronic               0.000              0.000              2.755
 Translational            0.889              2.981             41.116
 Rotational               0.889              2.981             29.193
 Vibrational              6.419             14.898             23.395
 Vibration     1          0.593              1.984              5.925
 Vibration     2          0.594              1.982              5.359
 Vibration     3          0.607              1.938              3.202
 Vibration     4          0.613              1.919              2.884
 Vibration     5          0.615              1.912              2.791
 Vibration     6          0.693              1.673              1.414
 Vibration     7          0.769              1.462              0.949
 Vibration     8          0.965              1.018              0.439
 Vibration     9          0.969              1.011              0.433

 Normal termination of Gaussian 09 at Sun Oct 23 22:41:03 2016.
