 Gaussian 09, Revision E.01,
 Gaussian 09:  EM64L-G09RevE.01 30-Nov-2015

 ---------------------------------------------
 #p b3lyp/6-311++G(3df,2p) freq symmetry=Loose
 ---------------------------------------------

 ---------
 b3lyp opt
 ---------
 Symbolic Z-matrix:
 Charge =  0 Multiplicity = 1

                         Standard orientation:
 ---------------------------------------------------------------------
 Center     Atomic      Atomic             Coordinates (Angstroms)
 Number     Number       Type             X           Y           Z
 ---------------------------------------------------------------------
      1         16           0       -0.002593   -0.002363    0.642694
      2         16           0       -1.276824    1.103259   -0.507421
      3         16           0       -2.265679   -0.620871    0.186463
      4         16           0        1.276233   -1.099177   -0.509977
      5         16           0        2.268863    0.619152    0.188241
 ---------------------------------------------------------------------

 SCF Done:  E(RB3LYP) =  -1991.05816470     A.U. after   13 cycles

 The electronic state is 1-A.
 Alpha  occ. eigenvalues --  -89.00692 -88.92578 -88.92553 -88.87810 -88.87681
 Alpha  occ. eigenvalues --   -8.08095  -8.00831  -8.00806  -7.96134  -7.96007
 Alpha  occ. eigenvalues --   -6.04400  -6.04003  -6.03875  -5.97196  -5.97173
 Alpha  occ. eigenvalues --   -5.96994  -5.96965  -5.96152  -5.96129  -5.92626
 Alpha  occ. eigenvalues --   -5.92501  -5.92149  -5.92018  -5.91463  -5.91337
 Alpha  occ. eigenvalues --   -0.92729  -0.83315  -0.69279  -0.66122  -0.63704
 Alpha  occ. eigenvalues --   -0.48185  -0.44098  -0.42829  -0.39528  -0.36356
 Alpha  occ. eigenvalues --   -0.33426  -0.32970  -0.26735  -0.24243  -0.23863
 Alpha virt. eigenvalues --   -0.11787  -0.11310  -0.09058  -0.07338  -0.06399
 Alpha virt. eigenvalues --    0.00222   0.02600   0.02994   0.03733   0.04789
 Alpha virt. eigenvalues --    0.05015   0.05624   0.06288   0.06393   0.07130

 Mulliken charges:
               1
     1  S    0.678848
     2  S   -0.136089
     3  S   -0.201474
     4  S   -0.136075
     5  S   -0.205210
 Sum of Mulliken charges =  -0.00000

 Dipole moment (field-independent basis, Debye):
    X=             -0.0491    Y=             -0.0114    Z=             -0.0900  Tot=              0.1032
 Quadrupole moment (field-independent basis, Debye-Ang):
   XX=            -68.0543   YY=            -62.7053   ZZ=            -65.3120
   XY=             -2.1839   XZ=             -0.0100   YZ=             -0.0091

  Exact polarizability: 180.258   9.889  97.568   0.019  -0.004  75.764
 Approx polarizability: 465.033  62.959 227.856  -0.005  -0.024 146.945

                      1                      2                      3
                      A                      A                      A
 Frequencies --     94.7938               101.1220               120.4235
 Red. masses --     31.9721                31.9721                31.9721
 Frc consts  --      0.1693                 0.1926                 0.2732
 IR Inten    --      0.6934                92.8960                96.3205

                      4                      5                      6
                      A                      A                      A
 Frequencies --    181.5099               225.9452               468.4226
 Red. masses --     31.9721                31.9721                31.9721
 Frc consts  --      0.6206                 0.9617                 4.1333
 IR Inten    --      0.1692                 0.1655                 5.6547

                      7                      8                      9
                      A                      A                      A
 Frequencies --    469.6757               542.8111               563.2516
 Red. masses --     31.9721                31.9721                31.9721
 Frc consts  --      4.1554                 5.5503                 5.9762
 IR Inten    --      1.1846                 0.3778               108.9537

 - Thermochemistry -
 -------------------
 Temperature   298.150 Kelvin.  Pressure   1.00000 Atm.
 Atom     1 has atomic number 16 and mass  31.97207

 Molecular mass:   159.86036 amu.
 Principal axes and moments of inertia in atomic units:
                           1         2         3
     Eigenvalues --   478.963191660.198131910.62749
           X            1.00000   0.00000  -0.00000
           Y           -0.00000   1.00000  -0.00000
           Z            0.00000   0.00000   1.00000
 This molecule is an asymmetric top.
 Rotational symmetry number  1.
 Warning -- assumption of classical behavior for rotation
           may cause significant error
 Rotational temperatures (Kelvin)      0.18084     0.05217     0.04533
 Rotational constants (GHZ):           3.76802     1.08706     0.94458
 Zero-point vibrational energy      16556.1 (Joules/Mol)
                                    3.95699 (Kcal/Mol)
 Warning -- explicit consideration of   9 degrees of freedom as
           vibrations may cause significant error
 Vibrational temperatures:    136.39   145.49   173.26   261.15   325.08
          (Kelvin)            673.95   675.76   780.98   810.39

 Zero-point correction=                           0.006306 (Hartree/Particle)
 Thermal correction to Energy=                    0.013295
 Thermal correction to Enthalpy=                  0.014239
 Thermal correction to Gibbs Free Energy=        -0.026998
 Sum of electronic and zero-point Energies=          -1991.051859
 Sum of electronic and thermal Energies=             -1991.044870
 Sum of electronic and thermal Enthalpies=           -1991.043926
 Sum of electronic and thermal Free Energies=        -1991.085163

                     E (Thermal)             CV                S
                      KCal/Mol        Cal/Mol-Kelvin    Cal/Mol-Kelvin
 Total                    8.343             20.365             86.791
 Electronic               0.000              0.000              0.000
 Translational            0.889              2.981             41.116
 Rotational               0.889              2.981             28.809
 Vibrational              6.565             14.403             16.866
 Vibration     1          0.603              1.953              3.559
 Vibration     2          0.604              1.948              3.433
 Vibration     3          0.609              1.932              3.094
 Vibration     4          0.630              1.865              2.313
 Vibration     5          0.650              1.802              1.911
 Vibration     6          0.826              1.320              0.742
 Vibration     7          0.827              1.317              0.738
 Vibration     8          0.898              1.155              0.559
 Vibration     9          0.919              1.111              0.517

 1\1\GINC-BELVIS17\Freq\RB3LYP\6-311++G(3df,2p)\S5\ROOT\23-Oct-2016\0\\
 #p b3lyp/6-311++G(3df,2p) freq symmetry=Loose\\b3lyp opt\\0,1\S,0.0661
 8,-0.192029,-0.609765\S,-1.532377,-0.65421,0.57338\S,-2.043913,0.92477
 4,-0.721638\S,1.422982,0.958704,0.391208\S,2.087128,-1.03724,0.366814\
 \Version=EM64L-G09RevE.01\State=1-A\HF=-1991.0581647\RMSD=9.812e-09\RM
 SF=9.956e-05\ZeroPoint=0.0063059\Thermal=0.013295\Dipole=-0.0215455,0.
 0183297,0.0291255\DipoleDeriv=2.3287923,-0.4444599,0.3836623,-0.557740
 7,0.6848153,-0.2263539,0.4180741,-0.2128674,0.2876182,-0.1719683,-0.14

 Normal termination of Gaussian 09 at Sun Oct 23 21:59:57 2016.
