 Gaussian 09, Revision E.01,
 Gaussian 09:  EM64L-G09RevE.01 30-Nov-2015

 ---------------------------------------------
 #p b3lyp/6-311++G(3df,2p) freq symmetry=Loose
 ---------------------------------------------

 ---------
 b3lyp opt
 ---------
 Symbolic Z-matrix:
 Charge =  0 Multiplicity = 1

                         Standard orientation:
 ---------------------------------------------------------------------
 Center     Atomic      Atomic             Coordinates (Angstroms)
 Number     Number       Type             X           Y           Z
 ---------------------------------------------------------------------
      1         16           0       -0.262919    1.332665    1.104137
      2         16           0       -0.262919   -0.668372    1.492000
      3         16           0        1.051677   -1.328586    0.000000
      4         16           0       -0.262919   -0.668372   -1.492000
      5         16           0       -0.262919    1.332665   -1.104137
 ---------------------------------------------------------------------

 SCF Done:  E(RB3LYP) =  -1991.12843965     A.U. after   12 cycles

 The electronic state is 1-A'.
 Alpha  occ. eigenvalues --  -88.91884 -88.91884 -88.91373 -88.90614 -88.90614
 Alpha  occ. eigenvalues --   -8.00067  -8.00064  -7.99578  -7.98865  -7.98865
 Alpha  occ. eigenvalues --   -5.96436  -5.96435  -5.96139  -5.96138  -5.95884
 Alpha  occ. eigenvalues --   -5.95736  -5.95486  -5.95486  -5.95276  -5.95268
 Alpha  occ. eigenvalues --   -5.94975  -5.94967  -5.94964  -5.94211  -5.94210
 Alpha  occ. eigenvalues --   -0.88660  -0.80145  -0.77803  -0.63103  -0.62668
 Alpha  occ. eigenvalues --   -0.44968  -0.43400  -0.42983  -0.38347  -0.36753
 Alpha  occ. eigenvalues --   -0.35354  -0.30474  -0.29537  -0.26045  -0.23547
 Alpha virt. eigenvalues --   -0.09911  -0.08084  -0.07425  -0.06770  -0.02978
 Alpha virt. eigenvalues --    0.00657   0.02936   0.03149   0.03442   0.04778
 Alpha virt. eigenvalues --    0.05016   0.05526   0.06170   0.06720   0.08248

 Mulliken charges:
               1
     1  S   -0.062233
     2  S    0.046054
     3  S    0.032359
     4  S    0.046054
     5  S   -0.062233
 Sum of Mulliken charges =  -0.00000

 Dipole moment (field-independent basis, Debye):
    X=              0.0905    Y=             -0.3438    Z=             -0.0000  Tot=              0.3555
 Quadrupole moment (field-independent basis, Debye-Ang):
   XX=            -66.3804   YY=            -62.7701   ZZ=            -62.8207
   XY=             -1.0087   XZ=              0.0000   YZ=             -0.0000

  Exact polarizability:  78.130 -12.977 111.340   0.000  -0.000 115.521
 Approx polarizability: 152.557 -37.672 250.747  -0.000  -0.000 254.635

                      1                      2                      3
                     A"                     A'                     A'
 Frequencies --     88.6731               230.9042               284.8745
 Red. masses --     31.9721                31.9721                31.9721
 Frc consts  --      0.1481                 1.0043                 1.5287
 IR Inten    --      1.6946                 0.0392                 1.5697

                      4                      5                      6
                     A"                     A'                     A"
 Frequencies --    295.7323               328.0006               329.8553
 Red. masses --     31.9721                31.9721                31.9721
 Frc consts  --      1.6475                 2.0266                 2.0496
 IR Inten    --      0.0236                 0.2195                 2.8437

                      7                      8                      9
                     A'                     A'                     A"
 Frequencies --    421.7786               499.6164               505.7213
 Red. masses --     31.9721                31.9721                31.9721
 Frc consts  --      3.3511                 4.7021                 4.8177
 IR Inten    --     12.3759                 0.0866                 2.9442

 - Thermochemistry -
 -------------------
 Temperature   298.150 Kelvin.  Pressure   1.00000 Atm.
 Atom     1 has atomic number 16 and mass  31.97207

 Molecular mass:   159.86036 amu.
 Principal axes and moments of inertia in atomic units:
                           1         2         3
     Eigenvalues --   866.93761 879.979021560.36425
           X            0.00000  -0.30807   0.95136
           Y            0.00000   0.95136   0.30807
           Z            1.00000   0.00000   0.00000
 This molecule is an asymmetric top.
 Rotational symmetry number  1.
 Warning -- assumption of classical behavior for rotation
           may cause significant error
 Rotational temperatures (Kelvin)      0.09991     0.09843     0.05551
 Rotational constants (GHZ):           2.08174     2.05089     1.15662
 Zero-point vibrational energy      17855.2 (Joules/Mol)
                                    4.26750 (Kcal/Mol)
 Warning -- explicit consideration of   9 degrees of freedom as
           vibrations may cause significant error
 Vibrational temperatures:    127.58   332.22   409.87   425.49   471.92
          (Kelvin)            474.59   606.84   718.84   727.62

 Zero-point correction=                           0.006801 (Hartree/Particle)
 Thermal correction to Energy=                    0.013272
 Thermal correction to Enthalpy=                  0.014216
 Thermal correction to Gibbs Free Energy=        -0.025177
 Sum of electronic and zero-point Energies=          -1991.121639
 Sum of electronic and thermal Energies=             -1991.115168
 Sum of electronic and thermal Enthalpies=           -1991.114223
 Sum of electronic and thermal Free Energies=        -1991.153616

                     E (Thermal)             CV                S
                      KCal/Mol        Cal/Mol-Kelvin    Cal/Mol-Kelvin
 Total                    8.328             20.242             82.909
 Electronic               0.000              0.000              0.000
 Translational            0.889              2.981             41.116
 Rotational               0.889              2.981             28.567
 Vibrational              6.551             14.281             13.226
 Vibration     1          0.601              1.957              3.689
 Vibration     2          0.653              1.794              1.872
 Vibration     3          0.683              1.702              1.504
 Vibration     4          0.690              1.682              1.441
 Vibration     5          0.711              1.620              1.270
 Vibration     6          0.713              1.616              1.261
 Vibration     7          0.784              1.423              0.886
 Vibration     8          0.855              1.251              0.659
 Vibration     9          0.861              1.237              0.644

 1\1\GINC-BELVIS17\Freq\RB3LYP\6-311++G(3df,2p)\S5\ROOT\24-Oct-2016\0\\
 #p b3lyp/6-311++G(3df,2p) freq symmetry=Loose\\b3lyp opt\\0,1\S,-0.105
 077002,1.726922785,0.266343384\S,-1.553449824,0.440295559,-0.367212878
 \S,-0.899819154,-1.3253143859,0.5522951185\S,0.8699860076,-1.289046121
 1,-0.5686780252\S,1.6883590137,0.4471432207,0.1172514022\\Version=EM64
 L-G09RevE.01\State=1-A'\HF=-1991.1284397\RMSD=5.770e-09\RMSF=1.238e-04
 \ZeroPoint=0.0068007\Thermal=0.0132721\Dipole=-0.0816012,-0.1130652,-0
 .0110531\DipoleDeriv=0.0840397,-0.0913966,-0.0094321,0.0161778,-0.2439

 Normal termination of Gaussian 09 at Mon Oct 24 01:11:54 2016.
