 Gaussian 09, Revision E.01,
 Gaussian 09:  EM64L-G09RevE.01 30-Nov-2015

 ---------------------------------------------
 #p b3lyp/6-311++G(3df,2p) freq symmetry=Loose
 ---------------------------------------------

 ---------
 b3lyp opt
 ---------
 Symbolic Z-matrix:
 Charge =  0 Multiplicity = 1

                         Standard orientation:
 ---------------------------------------------------------------------
 Center     Atomic      Atomic             Coordinates (Angstroms)
 Number     Number       Type             X           Y           Z
 ---------------------------------------------------------------------
      1         16           0       -0.000000    1.344443   -0.262153
      2         16           0        0.000000   -0.000000    1.378152
      3         16           0       -1.596673   -2.398833   -0.426923
      4         16           0        1.596673    2.398833   -0.426923
      5         16           0       -0.000000   -1.344443   -0.262153
 ---------------------------------------------------------------------

 SCF Done:  E(RB3LYP) =  -1991.09666541     A.U. after   12 cycles

 The electronic state is 1-A.
 Alpha  occ. eigenvalues --  -88.96195 -88.96195 -88.91603 -88.87468 -88.87468
 Alpha  occ. eigenvalues --   -8.03994  -8.03992  -7.99964  -7.95979  -7.95978
 Alpha  occ. eigenvalues --   -6.00280  -6.00280  -5.99829  -5.99829  -5.99815
 Alpha  occ. eigenvalues --   -5.99815  -5.96211  -5.96083  -5.95423  -5.92331
 Alpha  occ. eigenvalues --   -5.92331  -5.91859  -5.91859  -5.91558  -5.91558
 Alpha  occ. eigenvalues --   -0.89469  -0.84275  -0.75856  -0.63336  -0.60881
 Alpha  occ. eigenvalues --   -0.45370  -0.44842  -0.42239  -0.38826  -0.38244
 Alpha  occ. eigenvalues --   -0.34953  -0.29614  -0.27986  -0.27035  -0.23896
 Alpha virt. eigenvalues --   -0.16553  -0.10486  -0.08238  -0.03212  -0.02379
 Alpha virt. eigenvalues --    0.00028   0.02435   0.02811   0.03115   0.04919
 Alpha virt. eigenvalues --    0.05218   0.05358   0.05614   0.06491   0.06711

 Mulliken charges:
               1
     1  S    0.192168
     2  S   -0.000367
     3  S   -0.191985
     4  S   -0.191985
     5  S    0.192168
 Sum of Mulliken charges =  -0.00000

 Dipole moment (field-independent basis, Debye):
    X=              0.0000    Y=             -0.0000    Z=              0.4549  Tot=              0.4549
 Quadrupole moment (field-independent basis, Debye-Ang):
   XX=            -66.2802   YY=            -66.5569   ZZ=            -64.4520
   XY=             -2.3664   XZ=              0.0000   YZ=              0.0000

  Exact polarizability: 121.554  78.254 211.151   0.000  -0.000  90.630
 Approx polarizability: 353.832 374.112 838.916  -0.000  -0.000 194.452

                      1                      2                      3
                      A                      B                      A
 Frequencies --     52.4576                76.2365               175.9524
 Red. masses --     31.9721                31.9721                31.9721
 Frc consts  --      0.0518                 0.1095                 0.5832
 IR Inten    --      0.0130                 0.8424                 0.0111

                      4                      5                      6
                      B                      A                      B
 Frequencies --    231.7096               242.0554               357.5337
 Red. masses --     31.9721                31.9721                31.9721
 Frc consts  --      1.0114                 1.1037                 2.4080
 IR Inten    --      1.9420                 0.0199                 6.8440

                      7                      8                      9
                      A                      B                      A
 Frequencies --    463.8209               637.7175               662.9813
 Red. masses --     31.9721                31.9721                31.9721
 Frc consts  --      4.0525                 7.6609                 8.2799
 IR Inten    --     12.7946               294.9269                14.4030

 - Thermochemistry -
 -------------------
 Temperature   298.150 Kelvin.  Pressure   1.00000 Atm.
 Atom     1 has atomic number 16 and mass  31.97207

 Molecular mass:   159.86036 amu.
 Principal axes and moments of inertia in atomic units:
                           1         2         3
     Eigenvalues --   383.398152308.900462473.83111
           X            0.47563   0.00000   0.87964
           Y            0.87964   0.00000  -0.47563
           Z           -0.00000   1.00000  -0.00000
 This molecule is an asymmetric top.
 Rotational symmetry number  2.
 Rotational temperatures (Kelvin)      0.22591     0.03751     0.03501
 Rotational constants (GHZ):           4.70722     0.78165     0.72953
 Zero-point vibrational energy      17348.6 (Joules/Mol)
                                    4.14642 (Kcal/Mol)
 Warning -- explicit consideration of   7 degrees of freedom as
           vibrations may cause significant error
 Vibrational temperatures:     75.47   109.69   253.16   333.38   348.26
          (Kelvin)            514.41   667.33   917.53   953.88

 Zero-point correction=                           0.006608 (Hartree/Particle)
 Thermal correction to Energy=                    0.013535
 Thermal correction to Enthalpy=                  0.014479
 Thermal correction to Gibbs Free Energy=        -0.026512
 Sum of electronic and zero-point Energies=          -1991.090058
 Sum of electronic and thermal Energies=             -1991.083130
 Sum of electronic and thermal Enthalpies=           -1991.082186
 Sum of electronic and thermal Free Energies=        -1991.123178

                     E (Thermal)             CV                S
                      KCal/Mol        Cal/Mol-Kelvin    Cal/Mol-Kelvin
 Total                    8.493             20.088             86.274
 Electronic               0.000              0.000              0.000
 Translational            0.889              2.981             41.116
 Rotational               0.889              2.981             27.795
 Vibrational              6.716             14.127             17.363
 Vibration     1          0.596              1.977              4.723
 Vibration     2          0.599              1.965              3.986
 Vibration     3          0.628              1.872              2.371
 Vibration     4          0.653              1.792              1.866
 Vibration     5          0.658              1.776              1.788
 Vibration     6          0.733              1.560              1.133
 Vibration     7          0.821              1.330              0.755

 1\1\GINC-BELVIS17\Freq\RB3LYP\6-311++G(3df,2p)\S5\ROOT\24-Oct-2016\0\\
 #p b3lyp/6-311++G(3df,2p) freq symmetry=Loose\\b3lyp opt\\0,1\S,-0.244
 313416,0.629023438,-0.463508847\S,1.404316452,0.027018458,0.727179398\
 S,-0.414983523,0.267641908,3.589749986\S,-0.385821517,-0.2843924258,-2
 .1469277205\S,-0.2270169951,-0.6393123782,1.9073841835\\Version=EM64L-
 G09RevE.01\State=1-A\HF=-1991.0966654\RMSD=7.651e-09\RMSF=3.352e-05\Ze
 roPoint=0.0066077\Thermal=0.0135351\Dipole=0.17892,0.0035089,0.0005719
 \DipoleDeriv=0.2897037,-0.01578,0.275659,-0.0214035,0.1088019,0.702540

 Normal termination of Gaussian 09 at Mon Oct 24 01:11:39 2016.
