 Gaussian 09, Revision E.01,
 Gaussian 09:  EM64L-G09RevE.01 30-Nov-2015

 ---------------------------------------------
 #p b3lyp/6-311++G(3df,2p) freq symmetry=Loose
 ---------------------------------------------

 ---------
 b3lyp opt
 ---------
 Symbolic Z-matrix:
 Charge =  1 Multiplicity = 2

                         Standard orientation:
 ---------------------------------------------------------------------
 Center     Atomic      Atomic             Coordinates (Angstroms)
 Number     Number       Type             X           Y           Z
 ---------------------------------------------------------------------
      1         16           0        1.386008    1.002701    0.139071
      2         16           0       -0.563108    1.518791   -0.422485
      3         16           0       -1.573290    0.019923    0.565458
      4         16           0       -0.604303   -1.500602   -0.429329
      5         16           0        1.354693   -1.040813    0.147286
 ---------------------------------------------------------------------

 SCF Done:  E(UB3LYP) =  -1990.82313868     A.U. after   16 cycles

 The electronic state is 2-A.
 Alpha  occ. eigenvalues --  -89.14515 -89.14480 -89.12677 -89.12640 -89.11991
 Alpha  occ. eigenvalues --   -8.22582  -8.22548  -8.20777  -8.20742  -8.20117
 Alpha  occ. eigenvalues --   -6.18868  -6.18827  -6.18497  -6.18464  -6.18460
 Alpha  occ. eigenvalues --   -6.18427  -6.17157  -6.17125  -6.16815  -6.16783
 Alpha  occ. eigenvalues --   -6.16541  -6.16273  -6.16229  -6.16204  -6.15485
 Alpha  occ. eigenvalues --   -1.10722  -1.01503  -1.00376  -0.84455  -0.84052
 Alpha  occ. eigenvalues --   -0.66199  -0.64409  -0.63522  -0.60752  -0.57087
 Alpha  occ. eigenvalues --   -0.56666  -0.51479  -0.51100  -0.46058  -0.45152
 Alpha virt. eigenvalues --   -0.30091  -0.28135  -0.25954  -0.25858  -0.22800
 Alpha virt. eigenvalues --   -0.14358  -0.11419  -0.11158  -0.10777  -0.09999
 Alpha virt. eigenvalues --   -0.09422  -0.08229  -0.08175  -0.07423  -0.06233

  Beta  occ. eigenvalues --  -89.14238 -89.14207 -89.12596 -89.12563 -89.11963
  Beta  occ. eigenvalues --   -8.22332  -8.22301  -8.20700  -8.20668  -8.20092
  Beta  occ. eigenvalues --   -6.18687  -6.18649  -6.18327  -6.18296  -6.17656
  Beta  occ. eigenvalues --   -6.17626  -6.17106  -6.17073  -6.16776  -6.16746
  Beta  occ. eigenvalues --   -6.16444  -6.16192  -6.16031  -6.15999  -6.15473
  Beta  occ. eigenvalues --   -1.10035  -1.00751  -0.99581  -0.83664  -0.82914
  Beta  occ. eigenvalues --   -0.65594  -0.63860  -0.62872  -0.58578  -0.56569
  Beta  occ. eigenvalues --   -0.56062  -0.50173  -0.49351  -0.45348
  Beta virt. eigenvalues --   -0.37624  -0.29594  -0.27565  -0.25614  -0.25265
  Beta virt. eigenvalues --   -0.22101  -0.14214  -0.11239  -0.10997  -0.10601
  Beta virt. eigenvalues --   -0.09874  -0.09299  -0.07983  -0.07863  -0.07171

 Mulliken charges and spin densities:
               1          2
     1  S    0.198602   0.375439
     2  S    0.192017   0.106929
     3  S    0.217855   0.044791
     4  S    0.192574   0.102759
     5  S    0.198951   0.370082
 Sum of Mulliken charges =   1.00000   1.00000

 Dipole moment (field-independent basis, Debye):
    X=              0.6113    Y=              0.0007    Z=              0.0077  Tot=              0.6114
 Quadrupole moment (field-independent basis, Debye-Ang):
   XX=            -48.1638   YY=            -48.6462   ZZ=            -59.9303
   XY=              0.0006   XZ=              0.1180   YZ=             -0.0046

  Exact polarizability: 104.036  -0.018 108.660   0.906  -0.038  61.677
 Approx polarizability: 249.059  -0.126 274.292   5.959  -0.282 120.403

                      1                      2                      3
                      A                      A                      A
 Frequencies --     22.9780               222.7609               280.6450
 Red. masses --     31.9721                31.9721                31.9721
 Frc consts  --      0.0099                 0.9348                 1.4837
 IR Inten    --      2.1571                 0.5660                 0.6699

                      4                      5                      6
                      A                      A                      A
 Frequencies --    313.2990               347.1569               357.5632
 Red. masses --     31.9721                31.9721                31.9721
 Frc consts  --      1.8490                 2.2702                 2.4084
 IR Inten    --      0.3834                 0.4730                 4.6859

                      7                      8                      9
                      A                      A                      A
 Frequencies --    450.8517               478.5578               511.9065
 Red. masses --     31.9721                31.9721                31.9721
 Frc consts  --      3.8290                 4.3141                 4.9363
 IR Inten    --      0.9933                 0.0161                 0.0504

 - Thermochemistry -
 -------------------
 Temperature   298.150 Kelvin.  Pressure   1.00000 Atm.
 Atom     1 has atomic number 16 and mass  31.97207

 Molecular mass:   159.86036 amu.
 Principal axes and moments of inertia in atomic units:
                           1         2         3
     Eigenvalues --   841.60471 871.985701548.35897
           X            1.00000   0.00000   0.00000
           Y           -0.00000   1.00000   0.00000
           Z           -0.00000  -0.00000   1.00000
 This molecule is an asymmetric top.
 Rotational symmetry number  1.
 Warning -- assumption of classical behavior for rotation
           may cause significant error
 Rotational temperatures (Kelvin)      0.10292     0.09933     0.05594
 Rotational constants (GHZ):           2.14440     2.06969     1.16558
 Zero-point vibrational energy      17858.6 (Joules/Mol)
                                    4.26830 (Kcal/Mol)
 Warning -- explicit consideration of   9 degrees of freedom as
           vibrations may cause significant error
 Vibrational temperatures:     33.06   320.50   403.79   450.77   499.48
          (Kelvin)            514.45   648.67   688.54   736.52

 Zero-point correction=                           0.006802 (Hartree/Particle)
 Thermal correction to Energy=                    0.013338
 Thermal correction to Enthalpy=                  0.014283
 Thermal correction to Gibbs Free Energy=        -0.026879
 Sum of electronic and zero-point Energies=          -1990.816337
 Sum of electronic and thermal Energies=             -1990.809800
 Sum of electronic and thermal Enthalpies=           -1990.808856
 Sum of electronic and thermal Free Energies=        -1990.850018

                     E (Thermal)             CV                S
                      KCal/Mol        Cal/Mol-Kelvin    Cal/Mol-Kelvin
 Total                    8.370             20.132             86.632
 Electronic               0.000              0.000              1.377
 Translational            0.889              2.981             41.116
 Rotational               0.889              2.981             28.521
 Vibrational              6.593             14.170             15.618
 Vibration     1          0.593              1.985              6.359
 Vibration     2          0.648              1.806              1.937
 Vibration     3          0.680              1.709              1.530
 Vibration     4          0.701              1.648              1.345
 Vibration     5          0.725              1.581              1.179
 Vibration     6          0.733              1.560              1.133
 Vibration     7          0.810              1.359              0.793
 Vibration     8          0.835              1.298              0.714
 Vibration     9          0.867              1.224              0.629

 Normal termination of Gaussian 09 at Sun Oct 23 22:11:18 2016.
