 Gaussian 09, Revision E.01,
 Gaussian 09:  EM64L-G09RevE.01 30-Nov-2015

 ---------------------------------------------
 #p b3lyp/6-311++G(3df,2p) freq symmetry=Loose
 ---------------------------------------------

 ---------
 b3lyp opt
 ---------
 Symbolic Z-matrix:
 Charge =  1 Multiplicity = 2

                         Standard orientation:
 ---------------------------------------------------------------------
 Center     Atomic      Atomic             Coordinates (Angstroms)
 Number     Number       Type             X           Y           Z
 ---------------------------------------------------------------------
      1         16           0        0.000000    3.254983    0.338254
      2         16           0       -0.212852    1.653265   -0.660634
      3         16           0       -0.000000   -0.000000    0.644760
      4         16           0        0.212852   -1.653265   -0.660634
      5         16           0       -0.000000   -3.254983    0.338254
 ---------------------------------------------------------------------

 SCF Done:  E(UB3LYP) =  -1990.80075587     A.U. after   19 cycles

 The electronic state is 2-A.
 Alpha  occ. eigenvalues --  -89.14725 -89.14725 -89.11835 -89.08462 -89.08462
 Alpha  occ. eigenvalues --   -8.22602  -8.22599  -8.20084  -8.16764  -8.16762
 Alpha  occ. eigenvalues --   -6.18865  -6.18865  -6.18517  -6.18517  -6.18406
 Alpha  occ. eigenvalues --   -6.18405  -6.16341  -6.16004  -6.15597  -6.13208
 Alpha  occ. eigenvalues --   -6.13208  -6.12998  -6.12998  -6.12173  -6.12173
 Alpha  occ. eigenvalues --   -1.07776  -1.04888  -0.95037  -0.84151  -0.78905
 Alpha  occ. eigenvalues --   -0.65097  -0.62750  -0.59761  -0.58505  -0.57216
 Alpha  occ. eigenvalues --   -0.55554  -0.48947  -0.47362  -0.45538  -0.42634
 Alpha virt. eigenvalues --   -0.36505  -0.28099  -0.26693  -0.21387  -0.17750
 Alpha virt. eigenvalues --   -0.14192  -0.11451  -0.10516  -0.09601  -0.09227
 Alpha virt. eigenvalues --   -0.07860  -0.07247  -0.07196  -0.06852  -0.06299

  Beta  occ. eigenvalues --  -89.14647 -89.14647 -89.12032 -89.08117 -89.08117
  Beta  occ. eigenvalues --   -8.22531  -8.22528  -8.20261  -8.16452  -8.16450
  Beta  occ. eigenvalues --   -6.18817  -6.18817  -6.18380  -6.18380  -6.18255
  Beta  occ. eigenvalues --   -6.18255  -6.16480  -6.16148  -6.16137  -6.12810
  Beta  occ. eigenvalues --   -6.12810  -6.12148  -6.12148  -6.11959  -6.11959
  Beta  occ. eigenvalues --   -1.07487  -1.04166  -0.94801  -0.82295  -0.77977
  Beta  occ. eigenvalues --   -0.64887  -0.62208  -0.59197  -0.57598  -0.55675
  Beta  occ. eigenvalues --   -0.54775  -0.48006  -0.46918  -0.44857
  Beta virt. eigenvalues --   -0.34717  -0.33559  -0.27842  -0.26716  -0.21092
  Beta virt. eigenvalues --   -0.17192  -0.14148  -0.11245  -0.10530  -0.09540
  Beta virt. eigenvalues --   -0.09219  -0.07645  -0.07128  -0.06970  -0.06798

 Mulliken charges and spin densities:
               1          2
     1  S    0.199497   0.517446
     2  S    0.227360   0.111472
     3  S    0.146287  -0.257836
     4  S    0.227360   0.111472
     5  S    0.199497   0.517446
 Sum of Mulliken charges =   1.00000   1.00000

 Dipole moment (field-independent basis, Debye):
    X=              0.0000    Y=              0.0000    Z=             -0.2540  Tot=              0.2540
 Quadrupole moment (field-independent basis, Debye-Ang):
   XX=            -59.1117   YY=            -27.7407   ZZ=            -57.3125
   XY=             -0.5709   XZ=             -0.0000   YZ=              0.0000

  Exact polarizability:  58.141  -5.204 294.203   0.000   0.000  73.428
 Approx polarizability: 105.024 -16.027 793.996   0.000   0.000 154.176

                      1                      2                      3
                      A                      B                      A
 Frequencies --     14.9076                48.3355                82.5661
 Red. masses --     31.9721                31.9721                31.9721
 Frc consts  --      0.0042                 0.0440                 0.1284
 IR Inten    --      0.0743                 1.5946                 0.4289

                      4                      5                      6
                      A                      B                      B
 Frequencies --    168.3504               194.2881               250.7595
 Red. masses --     31.9721                31.9721                31.9721
 Frc consts  --      0.5339                 0.7111                 1.1845
 IR Inten    --      0.0483                13.6438                 9.3421

                      7                      8                      9
                      A                      B                      A
 Frequencies --    476.7294               636.0861               653.3863
 Red. masses --     31.9721                31.9721                31.9721
 Frc consts  --      4.2812                 7.6217                 8.0419
 IR Inten    --      1.1031               185.4657                 1.5352

 - Thermochemistry -
 -------------------
 Temperature   298.150 Kelvin.  Pressure   1.00000 Atm.
 Atom     1 has atomic number 16 and mass  31.97207

 Molecular mass:   159.86036 amu.
 Principal axes and moments of inertia in atomic units:
                           1         2         3
     Eigenvalues --   181.468973053.821623218.85421
           X           -0.02646   0.00000   0.99965
           Y            0.99965   0.00000   0.02646
           Z            0.00000   1.00000  -0.00000
 This molecule is an asymmetric top.
 Rotational symmetry number  2.
 Rotational temperatures (Kelvin)      0.47729     0.02836     0.02691
 Rotational constants (GHZ):           9.94518     0.59098     0.56068
 Zero-point vibrational energy      15105.3 (Joules/Mol)
                                    3.61025 (Kcal/Mol)
 Warning -- explicit consideration of   7 degrees of freedom as
           vibrations may cause significant error
 Vibrational temperatures:     21.45    69.54   118.79   242.22   279.54
          (Kelvin)            360.79   685.91   915.18   940.08

 Zero-point correction=                           0.005753 (Hartree/Particle)
 Thermal correction to Energy=                    0.013286
 Thermal correction to Enthalpy=                  0.014231
 Thermal correction to Gibbs Free Energy=        -0.030365
 Sum of electronic and zero-point Energies=          -1990.795003
 Sum of electronic and thermal Energies=             -1990.787469
 Sum of electronic and thermal Enthalpies=           -1990.786525
 Sum of electronic and thermal Free Energies=        -1990.831121

                     E (Thermal)             CV                S
                      KCal/Mol        Cal/Mol-Kelvin    Cal/Mol-Kelvin
 Total                    8.337             20.557             93.859
 Electronic               0.000              0.000              1.377
 Translational            0.889              2.981             41.116
 Rotational               0.889              2.981             27.591
 Vibrational              6.560             14.595             23.774
 Vibration     1          0.593              1.986              7.218
 Vibration     2          0.595              1.978              4.884
 Vibration     3          0.600              1.961              3.829
 Vibration     4          0.625              1.881              2.454
 Vibration     5          0.635              1.848              2.187
 Vibration     6          0.663              1.761              1.725
 Vibration     7          0.833              1.302              0.719

 Normal termination of Gaussian 09 at Mon Oct 24 01:14:05 2016.
