 Gaussian 09, Revision E.01,
 Gaussian 09:  EM64L-G09RevE.01 30-Nov-2015

 ---------------------------------------------
 #p b3lyp/6-311++G(3df,2p) freq symmetry=Loose
 ---------------------------------------------

 ---------
 b3lyp opt
 ---------
 Symbolic Z-matrix:
 Charge =  1 Multiplicity = 2

                         Standard orientation:
 ---------------------------------------------------------------------
 Center     Atomic      Atomic             Coordinates (Angstroms)
 Number     Number       Type             X           Y           Z
 ---------------------------------------------------------------------
      1         16           0        1.943485    0.710095    0.000703
      2         16           0       -1.119614   -0.580625   -0.002468
      3         16           0       -2.990085   -0.227825    0.001839
      4         16           0        2.245146   -1.163294    0.000586
      5         16           0       -0.078932    1.261649   -0.000659
 ---------------------------------------------------------------------

 SCF Done:  E(UB3LYP) =  -1990.80321334     A.U. after   20 cycles

 The electronic state is 2-A.
 Alpha  occ. eigenvalues --  -89.15439 -89.14881 -89.12163 -89.08868 -89.08686
 Alpha  occ. eigenvalues --   -8.23280  -8.22760  -8.20420  -8.17198  -8.16979
 Alpha  occ. eigenvalues --   -6.19532  -6.19236  -6.19070  -6.19032  -6.18652
 Alpha  occ. eigenvalues --   -6.18575  -6.16662  -6.16354  -6.15952  -6.13592
 Alpha  occ. eigenvalues --   -6.13447  -6.13440  -6.13218  -6.12598  -6.12380
 Alpha  occ. eigenvalues --   -1.08430  -1.05023  -0.95482  -0.85363  -0.78484
 Alpha  occ. eigenvalues --   -0.65768  -0.62881  -0.60288  -0.58324  -0.57285
 Alpha  occ. eigenvalues --   -0.56624  -0.49348  -0.47837  -0.45739  -0.43384
 Alpha virt. eigenvalues --   -0.36234  -0.28388  -0.27519  -0.19806  -0.18282
 Alpha virt. eigenvalues --   -0.14593  -0.11898  -0.10288  -0.09791  -0.09231
 Alpha virt. eigenvalues --   -0.08887  -0.08365  -0.07223  -0.06498  -0.05769

  Beta  occ. eigenvalues --  -89.15350 -89.14806 -89.12338 -89.08588 -89.08317
  Beta  occ. eigenvalues --   -8.23199  -8.22692  -8.20577  -8.16944  -8.16644
  Beta  occ. eigenvalues --   -6.19477  -6.19030  -6.18985  -6.18949  -6.18545
  Beta  occ. eigenvalues --   -6.18405  -6.16787  -6.16475  -6.16433  -6.13286
  Beta  occ. eigenvalues --   -6.13014  -6.12731  -6.12426  -6.12315  -6.12150
  Beta  occ. eigenvalues --   -1.08120  -1.04308  -0.95248  -0.83650  -0.77434
  Beta  occ. eigenvalues --   -0.65432  -0.62507  -0.59396  -0.57805  -0.56366
  Beta  occ. eigenvalues --   -0.55085  -0.48370  -0.47385  -0.45100
  Beta virt. eigenvalues --   -0.35645  -0.33260  -0.28264  -0.27377  -0.19377
  Beta virt. eigenvalues --   -0.17918  -0.14529  -0.11777  -0.10209  -0.09670
  Beta virt. eigenvalues --   -0.09155  -0.08631  -0.08328  -0.06996  -0.06329

 Mulliken charges and spin densities:
               1          2
     1  S    0.197386   0.129106
     2  S    0.211555   0.119653
     3  S    0.202616   0.556516
     4  S    0.179318   0.422748
     5  S    0.209125  -0.228024
 Sum of Mulliken charges =   1.00000   1.00000

 Dipole moment (field-independent basis, Debye):
    X=              0.1314    Y=              0.2517    Z=              0.0000  Tot=              0.2840
 Quadrupole moment (field-independent basis, Debye-Ang):
   XX=            -36.4093   YY=            -53.3531   ZZ=            -59.2938
   XY=              0.2279   XZ=             -0.0018   YZ=             -0.0005

  Exact polarizability: 219.417  -4.644  93.083  -0.009  -0.000  56.754
 Approx polarizability: 560.029 -15.328 245.118  -0.031  -0.010 102.113

                      1                      2                      3
                      A                      A                      A
 Frequencies --     52.0535                74.8067                99.0917
 Red. masses --     31.9721                31.9721                31.9721
 Frc consts  --      0.0510                 0.1054                 0.1850
 IR Inten    --      0.0001                 0.4268                 0.0008

                      4                      5                      6
                      A                      A                      A
 Frequencies --    163.9440               237.6915               327.8696
 Red. masses --     31.9721                31.9721                31.9721
 Frc consts  --      0.5063                 1.0643                 2.0250
 IR Inten    --      1.6861                 0.1047                 3.2738

                      7                      8                      9
                      A                      A                      A
 Frequencies --    438.3245               631.0817               655.0687
 Red. masses --     31.9721                31.9721                31.9721
 Frc consts  --      3.6192                 7.5023                 8.0834
 IR Inten    --      3.8013               100.8199                35.1258

 - Thermochemistry -
 -------------------
 Temperature   298.150 Kelvin.  Pressure   1.00000 Atm.
 Atom     1 has atomic number 16 and mass  31.97207

 Molecular mass:   159.86036 amu.
 Principal axes and moments of inertia in atomic units:
                           1         2         3
     Eigenvalues --   438.233492171.390142609.62118
           X            1.00000  -0.00000  -0.00000
           Y            0.00000   1.00000  -0.00000
           Z            0.00000   0.00000   1.00000
 This molecule is an asymmetric top.
 Rotational symmetry number  1.
 Warning -- assumption of classical behavior for rotation
           may cause significant error
 Rotational temperatures (Kelvin)      0.19764     0.03989     0.03319
 Rotational constants (GHZ):           4.11822     0.83115     0.69157
 Zero-point vibrational energy      16029.6 (Joules/Mol)
                                    3.83115 (Kcal/Mol)
 Warning -- explicit consideration of   7 degrees of freedom as
           vibrations may cause significant error
 Vibrational temperatures:     74.89   107.63   142.57   235.88   341.98
          (Kelvin)            471.73   630.65   907.98   942.50

 Zero-point correction=                           0.006105 (Hartree/Particle)
 Thermal correction to Energy=                    0.013348
 Thermal correction to Enthalpy=                  0.014293
 Thermal correction to Gibbs Free Energy=        -0.029046
 Sum of electronic and zero-point Energies=          -1990.797108
 Sum of electronic and thermal Energies=             -1990.789865
 Sum of electronic and thermal Enthalpies=           -1990.788921
 Sum of electronic and thermal Free Energies=        -1990.832259

                     E (Thermal)             CV                S
                      KCal/Mol        Cal/Mol-Kelvin    Cal/Mol-Kelvin
 Total                    8.376             20.414             91.213
 Electronic               0.000              0.000              1.377
 Translational            0.889              2.981             41.116
 Rotational               0.889              2.981             29.297
 Vibrational              6.599             14.453             19.422
 Vibration     1          0.596              1.977              4.738
 Vibration     2          0.599              1.966              4.023
 Vibration     3          0.604              1.950              3.472
 Vibration     4          0.623              1.887              2.504
 Vibration     5          0.656              1.783              1.820
 Vibration     6          0.711              1.620              1.271
 Vibration     7          0.798              1.387              0.832

 Normal termination of Gaussian 09 at Sun Oct 23 22:11:57 2016.
