 Gaussian 09, Revision E.01,
 Gaussian 09:  EM64L-G09RevE.01 30-Nov-2015

 ---------------------------------------------
 #p b3lyp/6-311++G(3df,2p) freq symmetry=Loose
 ---------------------------------------------

 ---------
 b3lyp opt
 ---------
 Symbolic Z-matrix:
 Charge =  1 Multiplicity = 2

                         Standard orientation:
 ---------------------------------------------------------------------
 Center     Atomic      Atomic             Coordinates (Angstroms)
 Number     Number       Type             X           Y           Z
 ---------------------------------------------------------------------
      1         16           0       -0.485973    0.000658    0.815447
      2         16           0       -1.951845    1.062711   -0.171437
      3         16           0       -1.955614   -1.060378   -0.166399
      4         16           0        1.389797   -0.006110   -0.725490
      5         16           0        3.003635    0.003119    0.247879
 ---------------------------------------------------------------------

 SCF Done:  E(UB3LYP) =  -1990.78878722     A.U. after   20 cycles

 The electronic state is 2-A.
 Alpha  occ. eigenvalues --  -89.16137 -89.12216 -89.11435 -89.11432 -89.08713
 Alpha  occ. eigenvalues --   -8.24033  -8.20238  -8.19555  -8.19550  -8.16987
 Alpha  occ. eigenvalues --   -6.20205  -6.20106  -6.19668  -6.16529  -6.16138
 Alpha  occ. eigenvalues --   -6.16129  -6.15954  -6.15946  -6.15828  -6.15815
 Alpha  occ. eigenvalues --   -6.14746  -6.14743  -6.13338  -6.13115  -6.12684
 Alpha  occ. eigenvalues --   -1.11217  -1.03820  -0.88642  -0.86727  -0.81373
 Alpha  occ. eigenvalues --   -0.64835  -0.62381  -0.59846  -0.58210  -0.57008
 Alpha  occ. eigenvalues --   -0.56472  -0.53518  -0.45579  -0.44544  -0.42666
 Alpha virt. eigenvalues --   -0.31934  -0.30160  -0.26816  -0.26445  -0.19312
 Alpha virt. eigenvalues --   -0.13230  -0.11709  -0.10108  -0.09645  -0.09017
 Alpha virt. eigenvalues --   -0.07945  -0.07488  -0.07016  -0.06539  -0.06238

  Beta  occ. eigenvalues --  -89.16176 -89.11961 -89.11425 -89.11422 -89.08265
  Beta  occ. eigenvalues --   -8.24069  -8.20010  -8.19546  -8.19541  -8.16583
  Beta  occ. eigenvalues --   -6.20236  -6.20137  -6.19766  -6.16379  -6.16002
  Beta  occ. eigenvalues --   -6.15933  -6.15923  -6.15818  -6.15806  -6.15336
  Beta  occ. eigenvalues --   -6.14735  -6.14731  -6.12873  -6.12367  -6.12006
  Beta  occ. eigenvalues --   -1.11224  -1.02498  -0.88430  -0.86656  -0.78887
  Beta  occ. eigenvalues --   -0.64612  -0.62167  -0.59501  -0.57889  -0.56336
  Beta  occ. eigenvalues --   -0.53142  -0.52670  -0.45067  -0.43949
  Beta virt. eigenvalues --   -0.33085  -0.31335  -0.29943  -0.26701  -0.26439
  Beta virt. eigenvalues --   -0.18574  -0.13113  -0.11612  -0.10046  -0.09496
  Beta virt. eigenvalues --   -0.08903  -0.07901  -0.07279  -0.06963  -0.06525

 Mulliken charges and spin densities:
               1          2
     1  S    0.701565  -0.049192
     2  S    0.015855   0.012889
     3  S    0.015400   0.012571
     4  S    0.024215   0.366420
     5  S    0.242965   0.657313
 Sum of Mulliken charges =   1.00000   1.00000

 Dipole moment (field-independent basis, Debye):
    X=             -0.1926    Y=              0.0000    Z=              0.1757  Tot=              0.2607
 Quadrupole moment (field-independent basis, Debye-Ang):
   XX=            -35.8801   YY=            -54.5720   ZZ=            -58.1039
   XY=              0.0142   XZ=              2.6554   YZ=             -0.0065

  Exact polarizability: 177.479   0.052  78.251   3.646   0.009  70.489
 Approx polarizability: 392.234   0.292 170.180  19.283   0.028 146.384

                      1                      2                      3
                      A                      A                      A
 Frequencies --     28.2119                65.0310                99.1119
 Red. masses --     31.9721                31.9721                31.9721
 Frc consts  --      0.0150                 0.0797                 0.1850
 IR Inten    --      0.0035                 1.3986                 0.4157

                      4                      5                      6
                      A                      A                      A
 Frequencies --    117.3193               284.6745               430.8526
 Red. masses --     31.9721                31.9721                31.9721
 Frc consts  --      0.2593                 1.5266                 3.4969
 IR Inten    --     11.2115                14.8783                 0.7793

                      7                      8                      9
                      A                      A                      A
 Frequencies --    433.3560               603.1022               698.7853
 Red. masses --     31.9721                31.9721                31.9721
 Frc consts  --      3.5376                 6.8518                 9.1983
 IR Inten    --      5.6325                 2.0860                45.7080

 - Thermochemistry -
 -------------------
 Temperature   298.150 Kelvin.  Pressure   1.00000 Atm.
 Atom     1 has atomic number 16 and mass  31.97207

 Molecular mass:   159.86036 amu.
 Principal axes and moments of inertia in atomic units:
                           1         2         3
     Eigenvalues --   406.873572298.725202406.50503
           X            1.00000  -0.00000   0.00000
           Y            0.00000   1.00000  -0.00000
           Z           -0.00000   0.00000   1.00000
 This molecule is an asymmetric top.
 Rotational symmetry number  1.
 Rotational temperatures (Kelvin)      0.21288     0.03768     0.03599
 Rotational constants (GHZ):           4.43563     0.78511     0.74994
 Zero-point vibrational energy      16511.1 (Joules/Mol)
                                    3.94625 (Kcal/Mol)
 Warning -- explicit consideration of   8 degrees of freedom as
           vibrations may cause significant error
 Vibrational temperatures:     40.59    93.56   142.60   168.80   409.58
          (Kelvin)            619.90   623.50   867.73  1005.39

 Zero-point correction=                           0.006289 (Hartree/Particle)
 Thermal correction to Energy=                    0.013515
 Thermal correction to Enthalpy=                  0.014459
 Thermal correction to Gibbs Free Energy=        -0.029500
 Sum of electronic and zero-point Energies=          -1990.782498
 Sum of electronic and thermal Energies=             -1990.775273
 Sum of electronic and thermal Enthalpies=           -1990.774328
 Sum of electronic and thermal Free Energies=        -1990.818288

                     E (Thermal)             CV                S
                      KCal/Mol        Cal/Mol-Kelvin    Cal/Mol-Kelvin
 Total                    8.481             20.161             92.520
 Electronic               0.000              0.000              1.377
 Translational            0.889              2.981             41.116
 Rotational               0.889              2.981             29.200
 Vibrational              6.703             14.199             20.826
 Vibration     1          0.593              1.984              5.951
 Vibration     2          0.597              1.971              4.298
 Vibration     3          0.604              1.950              3.472
 Vibration     4          0.608              1.935              3.144
 Vibration     5          0.683              1.702              1.505
 Vibration     6          0.792              1.403              0.856
 Vibration     7          0.794              1.398              0.848
 Vibration     8          0.961              1.025              0.444

 Normal termination of Gaussian 09 at Sun Oct 23 22:12:22 2016.
