 Gaussian 09, Revision E.01,
 Gaussian 09:  EM64L-G09RevE.01 30-Nov-2015

 ---------------------------------------------
 #p b3lyp/6-311++G(3df,2p) freq symmetry=Loose
 ---------------------------------------------

 ---------
 b3lyp opt
 ---------
 Symbolic Z-matrix:
 Charge =  1 Multiplicity = 2

                         Standard orientation:
 ---------------------------------------------------------------------
 Center     Atomic      Atomic             Coordinates (Angstroms)
 Number     Number       Type             X           Y           Z
 ---------------------------------------------------------------------
      1         16           0       -0.924407   -0.031585    0.624992
      2         16           0        2.021717    0.072951   -0.064442
      3         16           0        0.805344   -1.543892   -0.111522
      4         16           0       -2.513351   -0.047724   -0.343165
      5         16           0        0.610698    1.550249   -0.105863
 ---------------------------------------------------------------------

 SCF Done:  E(UB3LYP) =  -1990.78756198     A.U. after   21 cycles

 The electronic state is 2-A.
 Alpha  occ. eigenvalues --  -89.18336 -89.14553 -89.10869 -89.10590 -89.09091
 Alpha  occ. eigenvalues --   -8.25880  -8.22526  -8.19098  -8.18813  -8.17500
 Alpha  occ. eigenvalues --   -6.22049  -6.21988  -6.21599  -6.18739  -6.18572
 Alpha  occ. eigenvalues --   -6.18410  -6.15378  -6.15177  -6.15075  -6.14907
 Alpha  occ. eigenvalues --   -6.14697  -6.14461  -6.13791  -6.13361  -6.13152
 Alpha  occ. eigenvalues --   -1.09717  -1.04802  -0.94368  -0.87143  -0.79009
 Alpha  occ. eigenvalues --   -0.66371  -0.64639  -0.61583  -0.58227  -0.57728
 Alpha  occ. eigenvalues --   -0.57393  -0.50224  -0.47596  -0.46531  -0.43243
 Alpha virt. eigenvalues --   -0.34465  -0.32781  -0.24372  -0.23392  -0.20315
 Alpha virt. eigenvalues --   -0.14260  -0.11956  -0.10326  -0.10201  -0.09537
 Alpha virt. eigenvalues --   -0.09356  -0.08313  -0.07468  -0.07113  -0.06796

  Beta  occ. eigenvalues --  -89.18314 -89.14214 -89.10706 -89.10370 -89.09098
  Beta  occ. eigenvalues --   -8.25857  -8.22221  -8.18952  -8.18616  -8.17506
  Beta  occ. eigenvalues --   -6.22017  -6.21988  -6.21541  -6.18547  -6.18236
  Beta  occ. eigenvalues --   -6.17520  -6.15295  -6.15023  -6.14958  -6.14624
  Beta  occ. eigenvalues --   -6.14249  -6.13934  -6.13787  -6.13408  -6.13141
  Beta  occ. eigenvalues --   -1.09215  -1.04144  -0.93391  -0.86361  -0.77739
  Beta  occ. eigenvalues --   -0.66053  -0.64242  -0.60709  -0.57566  -0.57199
  Beta  occ. eigenvalues --   -0.54794  -0.48533  -0.46514  -0.46077
  Beta virt. eigenvalues --   -0.35423  -0.33955  -0.32515  -0.23810  -0.22738
  Beta virt. eigenvalues --   -0.20045  -0.14127  -0.11803  -0.10206  -0.10115
  Beta virt. eigenvalues --   -0.09353  -0.09275  -0.08174  -0.07242  -0.06876

 Mulliken charges and spin densities:
               1          2
     1  S    0.885487   0.030786
     2  S    0.382937   0.439566
     3  S   -0.087195   0.314475
     4  S   -0.079336  -0.015329
     5  S   -0.101893   0.230501
 Sum of Mulliken charges =   1.00000   1.00000

 Dipole moment (field-independent basis, Debye):
    X=             -0.0806    Y=              0.0337    Z=              0.0324  Tot=              0.0932
 Quadrupole moment (field-independent basis, Debye-Ang):
   XX=            -41.3143   YY=            -52.5840   ZZ=            -59.7944
   XY=              0.2062   XZ=             -0.1564   YZ=              0.0445

  Exact polarizability: 152.065  -0.528 101.656   2.835   0.044  61.065
 Approx polarizability: 441.861  -6.697 266.728  14.016   0.070 119.132

                      1                      2                      3
                      A                      A                      A
 Frequencies --     27.0788                69.2744               196.3990
 Red. masses --     31.9721                31.9721                31.9721
 Frc consts  --      0.0138                 0.0904                 0.7266
 IR Inten    --      0.7782                 0.1342                 6.8696

                      4                      5                      6
                      A                      A                      A
 Frequencies --    255.2149               258.2759               303.4317
 Red. masses --     31.9721                31.9721                31.9721
 Frc consts  --      1.2270                 1.2566                 1.7344
 IR Inten    --      0.9169                 8.4634                42.0089

                      7                      8                      9
                      A                      A                      A
 Frequencies --    487.2309               534.4875               743.0934
 Red. masses --     31.9721                31.9721                31.9721
 Frc consts  --      4.4719                 5.3814                10.4018
 IR Inten    --      8.5233                 4.7334                99.3046

 - Thermochemistry -
 -------------------
 Temperature   298.150 Kelvin.  Pressure   1.00000 Atm.
 Atom     1 has atomic number 16 and mass  31.97207

 Molecular mass:   159.86036 amu.
 Principal axes and moments of inertia in atomic units:
                           1         2         3
     Eigenvalues --   608.737281463.315731949.61840
           X            1.00000   0.00000   0.00000
           Y           -0.00000   1.00000   0.00000
           Z           -0.00000  -0.00000   1.00000
 This molecule is an asymmetric top.
 Rotational symmetry number  1.
 Warning -- assumption of classical behavior for rotation
           may cause significant error
 Rotational temperatures (Kelvin)      0.14228     0.05919     0.04443
 Rotational constants (GHZ):           2.96473     1.23332     0.92569
 Zero-point vibrational energy      17193.2 (Joules/Mol)
                                    4.10928 (Kcal/Mol)
 Warning -- explicit consideration of   8 degrees of freedom as
           vibrations may cause significant error
 Vibrational temperatures:     38.96    99.67   282.57   367.20   371.60
          (Kelvin)            436.57   701.02   769.01  1069.14

 Zero-point correction=                           0.006549 (Hartree/Particle)
 Thermal correction to Energy=                    0.013527
 Thermal correction to Enthalpy=                  0.014471
 Thermal correction to Gibbs Free Energy=        -0.028339
 Sum of electronic and zero-point Energies=          -1990.781013
 Sum of electronic and thermal Energies=             -1990.774035
 Sum of electronic and thermal Enthalpies=           -1990.773091
 Sum of electronic and thermal Free Energies=        -1990.815901

                     E (Thermal)             CV                S
                      KCal/Mol        Cal/Mol-Kelvin    Cal/Mol-Kelvin
 Total                    8.488             20.131             90.102
 Electronic               0.000              0.000              1.377
 Translational            0.889              2.981             41.116
 Rotational               0.889              2.981             28.942
 Vibrational              6.711             14.169             18.666
 Vibration     1          0.593              1.984              6.033
 Vibration     2          0.598              1.969              4.174
 Vibration     3          0.636              1.845              2.167
 Vibration     4          0.666              1.754              1.694
 Vibration     5          0.667              1.749              1.673
 Vibration     6          0.695              1.667              1.398
 Vibration     7          0.843              1.278              0.691
 Vibration     8          0.889              1.174              0.577

 Normal termination of Gaussian 09 at Sun Oct 23 21:57:42 2016.
