 Gaussian 09, Revision E.01,
 Gaussian 09:  EM64L-G09RevE.01 30-Nov-2015

 ---------------------------------------------
 #p b3lyp/6-311++G(3df,2p) freq symmetry=Loose
 ---------------------------------------------

 ---------
 b3lyp opt
 ---------
 Symbolic Z-matrix:
 Charge =  1 Multiplicity = 4

                         Standard orientation:
 ---------------------------------------------------------------------
 Center     Atomic      Atomic             Coordinates (Angstroms)
 Number     Number       Type             X           Y           Z
 ---------------------------------------------------------------------
      1         16           0       -0.144851    1.370284    1.406996
      2         16           0       -0.144851   -0.578474    1.690376
      3         16           0        0.579403   -1.583618    0.000000
      4         16           0       -0.144851   -0.578474   -1.690376
      5         16           0       -0.144851    1.370284   -1.406996
 ---------------------------------------------------------------------

 SCF Done:  E(UB3LYP) =  -1990.78170061     A.U. after   15 cycles

 The electronic state is 4-A'.
 Alpha  occ. eigenvalues --  -89.14236 -89.14236 -89.12271 -89.11214 -89.11214
 Alpha  occ. eigenvalues --   -8.22247  -8.22244  -8.20439  -8.19375  -8.19371
 Alpha  occ. eigenvalues --   -6.18504  -6.18504  -6.18230  -6.18230  -6.18100
 Alpha  occ. eigenvalues --   -6.18100  -6.16938  -6.16427  -6.15943  -6.15666
 Alpha  occ. eigenvalues --   -6.15665  -6.15457  -6.15457  -6.15358  -6.15357
 Alpha  occ. eigenvalues --   -1.08742  -1.04364  -0.97184  -0.86851  -0.81512
 Alpha  occ. eigenvalues --   -0.66119  -0.63138  -0.62115  -0.59480  -0.58209
 Alpha  occ. eigenvalues --   -0.56178  -0.53406  -0.50847  -0.47207  -0.43928
 Alpha  occ. eigenvalues --   -0.43373
 Alpha virt. eigenvalues --   -0.28466  -0.28342  -0.23906  -0.19950  -0.15274
 Alpha virt. eigenvalues --   -0.10995  -0.10769  -0.10147  -0.09633  -0.09401
 Alpha virt. eigenvalues --   -0.08458  -0.07142  -0.07013  -0.06551  -0.06401

  Beta  occ. eigenvalues --  -89.13939 -89.13939 -89.12081 -89.10519 -89.10519
  Beta  occ. eigenvalues --   -8.21969  -8.21966  -8.20266  -8.18743  -8.18741
  Beta  occ. eigenvalues --   -6.18340  -6.18340  -6.17969  -6.17969  -6.17287
  Beta  occ. eigenvalues --   -6.17287  -6.16604  -6.16340  -6.15559  -6.15093
  Beta  occ. eigenvalues --   -6.15093  -6.14309  -6.14309  -6.14154  -6.14154
  Beta  occ. eigenvalues --   -1.07102  -1.02194  -0.94706  -0.83195  -0.78392
  Beta  occ. eigenvalues --   -0.64001  -0.61329  -0.60171  -0.56279  -0.56161
  Beta  occ. eigenvalues --   -0.52381  -0.49586  -0.47231
  Beta virt. eigenvalues --   -0.37715  -0.35097  -0.33713  -0.27545  -0.26699
  Beta virt. eigenvalues --   -0.22425  -0.18125  -0.14857  -0.10662  -0.10277
  Beta virt. eigenvalues --   -0.09766  -0.09168  -0.08904  -0.07992  -0.06500

 Mulliken charges and spin densities:
               1          2
     1  S    0.183252   0.966264
     2  S    0.223894   0.402051
     3  S    0.185707   0.263370
     4  S    0.223894   0.402051
     5  S    0.183252   0.966264
 Sum of Mulliken charges =   1.00000   3.00000

 Dipole moment (field-independent basis, Debye):
    X=             -0.0517    Y=              0.0618    Z=             -0.0000  Tot=              0.0806
 Quadrupole moment (field-independent basis, Debye-Ang):
   XX=            -60.0720   YY=            -48.1726   ZZ=            -46.2571
   XY=             -1.7973   XZ=              0.0000   YZ=              0.0000

  Exact polarizability:  59.992  -8.602 114.537  -0.000   0.000 128.167
 Approx polarizability: 111.733 -28.089 296.961   0.000   0.000 287.206

                      1                      2                      3
                     A"                     A'                     A"
 Frequencies --     87.4418                95.4264               188.7588
 Red. masses --     31.9721                31.9721                31.9721
 Frc consts  --      0.1440                 0.1715                 0.6712
 IR Inten    --      0.0430                 0.6690                 0.8621

                      4                      5                      6
                     A'                     A'                     A"
 Frequencies --    190.3729               293.2964               363.3418
 Red. masses --     31.9721                31.9721                31.9721
 Frc consts  --      0.6827                 1.6204                 2.4869
 IR Inten    --      0.8715                 0.5243                 1.8376

                      7                      8                      9
                     A'                     A"                     A'
 Frequencies --    412.7762               554.7769               558.1601
 Red. masses --     31.9721                31.9721                31.9721
 Frc consts  --      3.2096                 5.7977                 5.8687
 IR Inten    --      1.4371                 3.6219                 1.4260

 - Thermochemistry -
 -------------------
 Temperature   298.150 Kelvin.  Pressure   1.00000 Atm.
 Atom     1 has atomic number 16 and mass  31.97207

 Molecular mass:   159.86036 amu.
 Principal axes and moments of inertia in atomic units:
                           1         2         3
     Eigenvalues --   839.421281130.048661918.42126
           X            0.00000  -0.16851   0.98570
           Y            0.00000   0.98570   0.16851
           Z            1.00000  -0.00000   0.00000
 This molecule is an asymmetric top.
 Rotational symmetry number  1.
 Warning -- assumption of classical behavior for rotation
           may cause significant error
 Rotational temperatures (Kelvin)      0.10318     0.07665     0.04515
 Rotational constants (GHZ):           2.14998     1.59705     0.94074
 Zero-point vibrational energy      16414.9 (Joules/Mol)
                                    3.92325 (Kcal/Mol)
 Warning -- explicit consideration of   9 degrees of freedom as
           vibrations may cause significant error
 Vibrational temperatures:    125.81   137.30   271.58   273.90   421.99
          (Kelvin)            522.77   593.89   798.20   803.07

 Zero-point correction=                           0.006252 (Hartree/Particle)
 Thermal correction to Energy=                    0.013185
 Thermal correction to Enthalpy=                  0.014129
 Thermal correction to Gibbs Free Energy=        -0.028218
 Sum of electronic and zero-point Energies=          -1990.775449
 Sum of electronic and thermal Energies=             -1990.768515
 Sum of electronic and thermal Enthalpies=           -1990.767571
 Sum of electronic and thermal Free Energies=        -1990.809919

                     E (Thermal)             CV                S
                      KCal/Mol        Cal/Mol-Kelvin    Cal/Mol-Kelvin
 Total                    8.274             20.508             89.128
 Electronic               0.000              0.000              2.755
 Translational            0.889              2.981             41.116
 Rotational               0.889              2.981             28.989
 Vibrational              6.496             14.546             16.268
 Vibration     1          0.601              1.958              3.717
 Vibration     2          0.603              1.952              3.546
 Vibration     3          0.633              1.855              2.240
 Vibration     4          0.634              1.853              2.224
 Vibration     5          0.688              1.686              1.455
 Vibration     6          0.737              1.548              1.108
 Vibration     7          0.777              1.442              0.917
 Vibration     8          0.910              1.129              0.534
 Vibration     9          0.914              1.122              0.528

 Normal termination of Gaussian 09 at Mon Oct 24 01:26:17 2016.
