 Gaussian 09, Revision E.01,
 Gaussian 09:  EM64L-G09RevE.01 30-Nov-2015

 ---------------------------------------------
 #p b3lyp/6-311++G(3df,2p) freq symmetry=Loose
 ---------------------------------------------

 ---------
 b3lyp opt
 ---------
 Symbolic Z-matrix:
 Charge =  1 Multiplicity = 4

                         Standard orientation:
 ---------------------------------------------------------------------
 Center     Atomic      Atomic             Coordinates (Angstroms)
 Number     Number       Type             X           Y           Z
 ---------------------------------------------------------------------
      1         16           0        1.713731   -0.732799    0.087703
      2         16           0       -1.595853   -0.345693    0.774826
      3         16           0       -1.590127    1.248506   -0.423623
      4         16           0        1.857240    1.170252    0.108650
      5         16           0       -0.384992   -1.340266   -0.547555
 ---------------------------------------------------------------------

 SCF Done:  E(UB3LYP) =  -1990.77736858     A.U. after   20 cycles

 The electronic state is 4-A.
 Alpha  occ. eigenvalues --  -89.14504 -89.12647 -89.12438 -89.12300 -89.08563
 Alpha  occ. eigenvalues --   -8.22523  -8.20730  -8.20539  -8.20307  -8.16834
 Alpha  occ. eigenvalues --   -6.18763  -6.18468  -6.18409  -6.17167  -6.16945
 Alpha  occ. eigenvalues --   -6.16781  -6.16718  -6.16585  -6.16457  -6.16264
 Alpha  occ. eigenvalues --   -6.16217  -6.16196  -6.13191  -6.12984  -6.12575
 Alpha  occ. eigenvalues --   -1.08856  -1.03729  -0.95176  -0.85748  -0.80787
 Alpha  occ. eigenvalues --   -0.65058  -0.62940  -0.62425  -0.58385  -0.57261
 Alpha  occ. eigenvalues --   -0.55698  -0.52350  -0.49294  -0.48039  -0.44512
 Alpha  occ. eigenvalues --   -0.43313
 Alpha virt. eigenvalues --   -0.29684  -0.26520  -0.24771  -0.19548  -0.13861
 Alpha virt. eigenvalues --   -0.11295  -0.10753  -0.10024  -0.09914  -0.08863
 Alpha virt. eigenvalues --   -0.08045  -0.07646  -0.06745  -0.06213  -0.05320

  Beta  occ. eigenvalues --  -89.14258 -89.12181 -89.12049 -89.11826 -89.08020
  Beta  occ. eigenvalues --   -8.22302  -8.20305  -8.20079  -8.19990  -8.16346
  Beta  occ. eigenvalues --   -6.18611  -6.18345  -6.17647  -6.16626  -6.16465
  Beta  occ. eigenvalues --   -6.16316  -6.16301  -6.16067  -6.15650  -6.15499
  Beta  occ. eigenvalues --   -6.15409  -6.15386  -6.12666  -6.11981  -6.11815
  Beta  occ. eigenvalues --   -1.07084  -1.02030  -0.92334  -0.82141  -0.77772
  Beta  occ. eigenvalues --   -0.63491  -0.60848  -0.60306  -0.56804  -0.53591
  Beta  occ. eigenvalues --   -0.52068  -0.48561  -0.45986
  Beta virt. eigenvalues --   -0.37891  -0.35885  -0.33208  -0.28489  -0.25413
  Beta virt. eigenvalues --   -0.23292  -0.18458  -0.13546  -0.10869  -0.10265
  Beta virt. eigenvalues --   -0.09698  -0.09477  -0.08371  -0.07642  -0.07216

 Mulliken charges and spin densities:
               1          2
     1  S    0.126226   0.355869
     2  S    0.288524   0.314225
     3  S    0.176325   1.179224
     4  S    0.147201   0.796589
     5  S    0.261725   0.354092
 Sum of Mulliken charges =   1.00000   3.00000

 Dipole moment (field-independent basis, Debye):
    X=             -1.0863    Y=              0.1465    Z=              0.1823  Tot=              1.1112
 Quadrupole moment (field-independent basis, Debye-Ang):
   XX=            -45.0701   YY=            -49.9928   ZZ=            -57.6952
   XY=             -1.4144   XZ=             -0.8921   YZ=             -0.3672

  Exact polarizability: 138.460  -3.188 111.130   2.316  -0.635  67.664
 Approx polarizability: 289.492 -12.208 304.369   2.175  -1.130 136.389

                      1                      2                      3
                      A                      A                      A
 Frequencies --     56.2526                71.0638               136.3899
 Red. masses --     31.9721                31.9721                31.9721
 Frc consts  --      0.0596                 0.0951                 0.3504
 IR Inten    --      0.7234                 0.1346                 1.3035

                      4                      5                      6
                      A                      A                      A
 Frequencies --    173.0823               217.3765               256.1957
 Red. masses --     31.9721                31.9721                31.9721
 Frc consts  --      0.5643                 0.8901                 1.2364
 IR Inten    --      2.2444                 5.3360                11.3615

                      7                      8                      9
                      A                      A                      A
 Frequencies --    437.5600               577.2788               642.9060
 Red. masses --     31.9721                31.9721                31.9721
 Frc consts  --      3.6066                 6.2776                 7.7860
 IR Inten    --      2.2439                 0.7918                 8.8156

 - Thermochemistry -
 -------------------
 Temperature   298.150 Kelvin.  Pressure   1.00000 Atm.
 Atom     1 has atomic number 16 and mass  31.97207

 Molecular mass:   159.86036 amu.
 Principal axes and moments of inertia in atomic units:
                           1         2         3
     Eigenvalues --   739.871671451.020081939.90808
           X            1.00000  -0.00000  -0.00000
           Y            0.00000   1.00000   0.00000
           Z            0.00000  -0.00000   1.00000
 This molecule is an asymmetric top.
 Rotational symmetry number  1.
 Warning -- assumption of classical behavior for rotation
           may cause significant error
 Rotational temperatures (Kelvin)      0.11707     0.05969     0.04465
 Rotational constants (GHZ):           2.43926     1.24377     0.93032
 Zero-point vibrational energy      15360.7 (Joules/Mol)
                                    3.67129 (Kcal/Mol)
 Warning -- explicit consideration of   8 degrees of freedom as
           vibrations may cause significant error
 Vibrational temperatures:     80.93   102.24   196.23   249.03   312.76
          (Kelvin)            368.61   629.55   830.57   925.00

 Zero-point correction=                           0.005851 (Hartree/Particle)
 Thermal correction to Energy=                    0.013165
 Thermal correction to Enthalpy=                  0.014109
 Thermal correction to Gibbs Free Energy=        -0.029761
 Sum of electronic and zero-point Energies=          -1990.771518
 Sum of electronic and thermal Energies=             -1990.764203
 Sum of electronic and thermal Enthalpies=           -1990.763259
 Sum of electronic and thermal Free Energies=        -1990.807129

                     E (Thermal)             CV                S
                      KCal/Mol        Cal/Mol-Kelvin    Cal/Mol-Kelvin
 Total                    8.261             20.675             92.332
 Electronic               0.000              0.000              2.755
 Translational            0.889              2.981             41.116
 Rotational               0.889              2.981             29.123
 Vibrational              6.484             14.713             19.338
 Vibration     1          0.596              1.975              4.585
 Vibration     2          0.598              1.968              4.124
 Vibration     3          0.614              1.917              2.854
 Vibration     4          0.627              1.876              2.402
 Vibration     5          0.646              1.815              1.981
 Vibration     6          0.666              1.752              1.688
 Vibration     7          0.798              1.388              0.834
 Vibration     8          0.934              1.080              0.490

 Normal termination of Gaussian 09 at Sun Oct 23 22:39:57 2016.
