 Gaussian 09, Revision E.01,
 Gaussian 09:  EM64L-G09RevE.01 30-Nov-2015

 ---------------------------------------------
 #p b3lyp/6-311++G(3df,2p) freq symmetry=Loose
 ---------------------------------------------

 ---------
 b3lyp opt
 ---------
 Symbolic Z-matrix:
 Charge =  0 Multiplicity = 3

                         Standard orientation:
 ---------------------------------------------------------------------
 Center     Atomic      Atomic             Coordinates (Angstroms)
 Number     Number       Type             X           Y           Z
 ---------------------------------------------------------------------
      1         16           0       -1.450021    0.042270    0.867624
      2         16           0        0.000184    1.330960   -0.003619
      3         16           0        2.646213   -0.702638    0.477166
      4         16           0       -2.645204   -0.706382   -0.473498
      5         16           0        1.448827    0.035789   -0.867672
 ---------------------------------------------------------------------

 SCF Done:  E(UB3LYP) =  -1991.10627014     A.U. after   17 cycles

 The electronic state is 3-A.
 Alpha  occ. eigenvalues --  -88.94094 -88.94094 -88.90435 -88.88836 -88.88835
 Alpha  occ. eigenvalues --   -8.02093  -8.02091  -7.98783  -7.97244  -7.97243
 Alpha  occ. eigenvalues --   -5.98379  -5.98379  -5.98017  -5.98017  -5.97972
 Alpha  occ. eigenvalues --   -5.97971  -5.95125  -5.94837  -5.94189  -5.93729
 Alpha  occ. eigenvalues --   -5.93728  -5.93462  -5.93460  -5.92693  -5.92692
 Alpha  occ. eigenvalues --   -0.87515  -0.84484  -0.75239  -0.66285  -0.60071
 Alpha  occ. eigenvalues --   -0.45930  -0.42591  -0.41399  -0.40025  -0.37596
 Alpha  occ. eigenvalues --   -0.37362  -0.28950  -0.28872  -0.28125  -0.25769
 Alpha  occ. eigenvalues --   -0.25371
 Alpha virt. eigenvalues --   -0.09127  -0.07681  -0.04189  -0.01950  -0.00191
 Alpha virt. eigenvalues --    0.02203   0.03164   0.03640   0.04478   0.05082
 Alpha virt. eigenvalues --    0.05339   0.06216   0.06334   0.06527   0.07305

  Beta  occ. eigenvalues --  -88.93847 -88.93846 -88.90467 -88.88406 -88.88404
  Beta  occ. eigenvalues --   -8.01869  -8.01868  -7.98808  -7.96855  -7.96854
  Beta  occ. eigenvalues --   -5.98199  -5.98199  -5.97822  -5.97821  -5.97303
  Beta  occ. eigenvalues --   -5.97303  -5.95190  -5.94895  -5.94201  -5.93226
  Beta  occ. eigenvalues --   -5.93225  -5.92428  -5.92427  -5.92407  -5.92406
  Beta  occ. eigenvalues --   -0.86485  -0.83090  -0.74224  -0.63653  -0.57935
  Beta  occ. eigenvalues --   -0.44982  -0.41259  -0.40550  -0.38834  -0.34650
  Beta  occ. eigenvalues --   -0.33795  -0.28576  -0.27356  -0.26613
  Beta virt. eigenvalues --   -0.16465  -0.16251  -0.08293  -0.06965  -0.03473
  Beta virt. eigenvalues --   -0.01320  -0.00079   0.02269   0.03315   0.03848
  Beta virt. eigenvalues --    0.04583   0.05227   0.05440   0.06474   0.06490

 Mulliken charges and spin densities:
               1          2
     1  S    0.156726   0.335454
     2  S    0.056848  -0.031388
     3  S   -0.185608   0.680486
     4  S   -0.185435   0.680193
     5  S    0.157468   0.335256
 Sum of Mulliken charges =  -0.00000   2.00000

 Dipole moment (field-independent basis, Debye):
    X=              0.0002    Y=              0.2683    Z=             -0.0006  Tot=              0.2683
 Quadrupole moment (field-independent basis, Debye-Ang):
   XX=            -65.5228   YY=            -64.4132   ZZ=            -64.3225
   XY=             -0.0024   XZ=             -0.4534   YZ=              0.0011

  Exact polarizability: 181.463   0.044  92.743  11.596   0.011  88.333
 Approx polarizability: 324.325   0.139 186.471  34.685   0.064 180.846

                      1                      2                      3
                      A                      A                      A
 Frequencies --     25.0337                47.9560               117.6214
 Red. masses --     31.9721                31.9721                31.9721
 Frc consts  --      0.0118                 0.0433                 0.2606
 IR Inten    --      0.1475                 0.0676                 0.1816

                      4                      5                      6
                      A                      A                      A
 Frequencies --    216.9262               223.8317               337.0167
 Red. masses --     31.9721                31.9721                31.9721
 Frc consts  --      0.8864                 0.9438                 2.1396
 IR Inten    --      1.2313                 0.0160                47.1476

                      7                      8                      9
                      A                      A                      A
 Frequencies --    399.0127               592.3929               595.7799
 Red. masses --     31.9721                31.9721                31.9721
 Frc consts  --      2.9991                 6.6106                 6.6864
 IR Inten    --      5.7220                35.3342                 6.5633

 - Thermochemistry -
 -------------------
 Temperature   298.150 Kelvin.  Pressure   1.00000 Atm.
 Atom     1 has atomic number 16 and mass  31.97207

 Molecular mass:   159.86036 amu.
 Principal axes and moments of inertia in atomic units:
                           1         2         3
     Eigenvalues --   539.442352301.609872394.05347
           X            1.00000   0.00000   0.00000
           Y           -0.00000   1.00000   0.00000
           Z            0.00000  -0.00000   1.00000
 This molecule is an asymmetric top.
 Rotational symmetry number  1.
 Warning -- assumption of classical behavior for rotation
           may cause significant error
 Rotational temperatures (Kelvin)      0.16056     0.03763     0.03618
 Rotational constants (GHZ):           3.34557     0.78412     0.75384
 Zero-point vibrational energy      15285.7 (Joules/Mol)
                                    3.65337 (Kcal/Mol)
 Warning -- explicit consideration of   9 degrees of freedom as
           vibrations may cause significant error
 Vibrational temperatures:     36.02    69.00   169.23   312.11   322.04
          (Kelvin)            484.89   574.09   852.32   857.19

 Zero-point correction=                           0.005822 (Hartree/Particle)
 Thermal correction to Energy=                    0.013155
 Thermal correction to Enthalpy=                  0.014099
 Thermal correction to Gibbs Free Energy=        -0.030576
 Sum of electronic and zero-point Energies=          -1991.100448
 Sum of electronic and thermal Energies=             -1991.093115
 Sum of electronic and thermal Enthalpies=           -1991.092171
 Sum of electronic and thermal Free Energies=        -1991.136847

                     E (Thermal)             CV                S
                      KCal/Mol        Cal/Mol-Kelvin    Cal/Mol-Kelvin
 Total                    8.255             20.642             94.028
 Electronic               0.000              0.000              2.183
 Translational            0.889              2.981             41.116
 Rotational               0.889              2.981             29.476
 Vibrational              6.478             14.680             21.252
 Vibration     1          0.593              1.985              6.189
 Vibration     2          0.595              1.978              4.900
 Vibration     3          0.608              1.935              3.139
 Vibration     4          0.646              1.815              1.985
 Vibration     5          0.649              1.805              1.928
 Vibration     6          0.718              1.602              1.226
 Vibration     7          0.765              1.472              0.966
 Vibration     8          0.950              1.048              0.463
 Vibration     9          0.954              1.041              0.457

 Normal termination of Gaussian 09 at Sun Oct 23 21:42:21 2016.
