 Gaussian 09, Revision E.01,
 Gaussian 09:  EM64L-G09RevE.01 30-Nov-2015

 ---------------------------------------------
 #p b3lyp/6-311++G(3df,2p) freq symmetry=Loose
 ---------------------------------------------

 ---------
 b3lyp opt
 ---------
 Symbolic Z-matrix:
 Charge =  0 Multiplicity = 3

                         Standard orientation:
 ---------------------------------------------------------------------
 Center     Atomic      Atomic             Coordinates (Angstroms)
 Number     Number       Type             X           Y           Z
 ---------------------------------------------------------------------
      1         16           0        1.682061   -0.572920   -0.454312
      2         16           0       -0.001004   -1.273119    0.641096
      3         16           0       -2.208429    1.217750    0.120900
      4         16           0        2.222979    1.203765    0.130177
      5         16           0       -1.695608   -0.575475   -0.437862
 ---------------------------------------------------------------------

 SCF Done:  E(UB3LYP) =  -1991.10601267     A.U. after   17 cycles

 The electronic state is 3-A.
 Alpha  occ. eigenvalues --  -88.93990 -88.93984 -88.90401 -88.88776 -88.88769
 Alpha  occ. eigenvalues --   -8.01992  -8.01986  -7.98745  -7.97181  -7.97174
 Alpha  occ. eigenvalues --   -5.98279  -5.98274  -5.97911  -5.97905  -5.97874
 Alpha  occ. eigenvalues --   -5.97868  -5.95081  -5.94809  -5.94147  -5.93664
 Alpha  occ. eigenvalues --   -5.93658  -5.93396  -5.93389  -5.92641  -5.92633
 Alpha  occ. eigenvalues --   -0.87413  -0.84396  -0.75225  -0.66063  -0.60130
 Alpha  occ. eigenvalues --   -0.45780  -0.42820  -0.41430  -0.39363  -0.37484
 Alpha  occ. eigenvalues --   -0.37458  -0.29651  -0.28211  -0.28095  -0.25900
 Alpha  occ. eigenvalues --   -0.24954
 Alpha virt. eigenvalues --   -0.09226  -0.07533  -0.03374  -0.02961   0.00089
 Alpha virt. eigenvalues --    0.02275   0.03120   0.03675   0.04569   0.05022
 Alpha virt. eigenvalues --    0.05508   0.05863   0.06366   0.07202   0.07511

  Beta  occ. eigenvalues --  -88.93747 -88.93742 -88.90437 -88.88336 -88.88329
  Beta  occ. eigenvalues --   -8.01773  -8.01767  -7.98774  -7.96783  -7.96776
  Beta  occ. eigenvalues --   -5.98103  -5.98098  -5.97731  -5.97726  -5.97205
  Beta  occ. eigenvalues --   -5.97199  -5.95151  -5.94862  -5.94172  -5.93154
  Beta  occ. eigenvalues --   -5.93147  -5.92352  -5.92345  -5.92331  -5.92324
  Beta  occ. eigenvalues --   -0.86400  -0.83003  -0.74194  -0.63386  -0.58019
  Beta  occ. eigenvalues --   -0.44865  -0.41544  -0.40423  -0.38340  -0.34734
  Beta  occ. eigenvalues --   -0.33668  -0.28592  -0.27256  -0.26502
  Beta virt. eigenvalues --   -0.16838  -0.15566  -0.08472  -0.06792  -0.02695
  Beta virt. eigenvalues --   -0.02351   0.00203   0.02357   0.03222   0.03837
  Beta virt. eigenvalues --    0.04711   0.05149   0.05610   0.05964   0.06662

 Mulliken charges and spin densities:
               1          2
     1  S    0.111016   0.329161
     2  S    0.087745  -0.039089
     3  S   -0.150035   0.690229
     4  S   -0.153410   0.690356
     5  S    0.104683   0.329342
 Sum of Mulliken charges =  -0.00000   2.00000

 Dipole moment (field-independent basis, Debye):
    X=             -0.0079    Y=             -0.6177    Z=             -0.2411  Tot=              0.6632
 Quadrupole moment (field-independent basis, Debye-Ang):
   XX=            -65.1707   YY=            -63.6195   ZZ=            -64.7193
   XY=              0.0107   XZ=             -0.0048   YZ=              0.1278

  Exact polarizability: 161.204   0.090 117.030   0.111   2.140  75.983
 Approx polarizability: 284.965   0.410 262.954   0.328   9.441 142.602

                      1                      2                      3
                      A                      A                      A
 Frequencies --     24.4124                30.0466               145.8775
 Red. masses --     31.9721                31.9721                31.9721
 Frc consts  --      0.0112                 0.0170                 0.4009
 IR Inten    --      0.1749                 0.0672                 0.4676

                      4                      5                      6
                      A                      A                      A
 Frequencies --    183.4228               234.1108               333.9396
 Red. masses --     31.9721                31.9721                31.9721
 Frc consts  --      0.6338                 1.0324                 2.1007
 IR Inten    --      0.0946                 0.6543                46.6792

                      7                      8                      9
                      A                      A                      A
 Frequencies --    403.0705               592.9486               594.2519
 Red. masses --     31.9721                31.9721                31.9721
 Frc consts  --      3.0604                 6.6230                 6.6522
 IR Inten    --      6.0460                30.3212                 8.1475

 - Thermochemistry -
 -------------------
 Temperature   298.150 Kelvin.  Pressure   1.00000 Atm.
 Atom     1 has atomic number 16 and mass  31.97207

 Molecular mass:   159.86036 amu.
 Principal axes and moments of inertia in atomic units:
                           1         2         3
     Eigenvalues --   691.085281868.337842367.45297
           X            1.00000  -0.00000  -0.00000
           Y            0.00000   1.00000  -0.00000
           Z            0.00000   0.00000   1.00000
 This molecule is an asymmetric top.
 Rotational symmetry number  1.
 Warning -- assumption of classical behavior for rotation
           may cause significant error
 Rotational temperatures (Kelvin)      0.12533     0.04636     0.03659
 Rotational constants (GHZ):           2.61146     0.96596     0.76231
 Zero-point vibrational energy      15205.0 (Joules/Mol)
                                    3.63409 (Kcal/Mol)
 Warning -- explicit consideration of   9 degrees of freedom as
           vibrations may cause significant error
 Vibrational temperatures:     35.12    43.23   209.88   263.90   336.83
          (Kelvin)            480.46   579.93   853.12   854.99

 Zero-point correction=                           0.005791 (Hartree/Particle)
 Thermal correction to Energy=                    0.013151
 Thermal correction to Enthalpy=                  0.014095
 Thermal correction to Gibbs Free Energy=        -0.030971
 Sum of electronic and zero-point Energies=          -1991.100221
 Sum of electronic and thermal Energies=             -1991.092862
 Sum of electronic and thermal Enthalpies=           -1991.091918
 Sum of electronic and thermal Free Energies=        -1991.136983

                     E (Thermal)             CV                S
                      KCal/Mol        Cal/Mol-Kelvin    Cal/Mol-Kelvin
 Total                    8.252             20.651             94.848
 Electronic               0.000              0.000              2.183
 Translational            0.889              2.981             41.116
 Rotational               0.889              2.981             29.504
 Vibrational              6.475             14.689             22.045
 Vibration     1          0.593              1.985              6.238
 Vibration     2          0.594              1.984              5.826
 Vibration     3          0.617              1.907              2.725
 Vibration     4          0.631              1.862              2.293
 Vibration     5          0.654              1.789              1.847
 Vibration     6          0.715              1.608              1.241
 Vibration     7          0.768              1.464              0.951
 Vibration     8          0.950              1.047              0.462
 Vibration     9          0.952              1.044              0.460

 Normal termination of Gaussian 09 at Sun Oct 23 21:42:32 2016.
