 Gaussian 09, Revision E.01,
 Gaussian 09:  EM64L-G09RevE.01 30-Nov-2015

 ---------------------------------------------
 #p b3lyp/6-311++G(3df,2p) freq symmetry=Loose
 ---------------------------------------------

 ---------
 b3lyp opt
 ---------
 Symbolic Z-matrix:
 Charge =  1 Multiplicity = 2

                         Standard orientation:
 ---------------------------------------------------------------------
 Center     Atomic      Atomic             Coordinates (Angstroms)
 Number     Number       Type             X           Y           Z
 ---------------------------------------------------------------------
      1         16           0       -0.145679   -1.668942   -0.674120
      2         16           0       -0.000000   -0.000000    0.621208
      3         16           0        0.000000    3.253481    0.363515
      4         16           0       -0.000000   -3.253481    0.363515
      5         16           0        0.145679    1.668942   -0.674120
 ---------------------------------------------------------------------

 SCF Done:  E(UB3LYP) =  -1990.80075959     A.U. after   19 cycles

 The electronic state is 2-A.
 Alpha  occ. eigenvalues --  -89.14717 -89.14717 -89.11854 -89.08445 -89.08445
 Alpha  occ. eigenvalues --   -8.22595  -8.22592  -8.20103  -8.16747  -8.16745
 Alpha  occ. eigenvalues --   -6.18859  -6.18859  -6.18510  -6.18510  -6.18399
 Alpha  occ. eigenvalues --   -6.18399  -6.16361  -6.16018  -6.15618  -6.13186
 Alpha  occ. eigenvalues --   -6.13186  -6.12984  -6.12984  -6.12158  -6.12158
 Alpha  occ. eigenvalues --   -1.07760  -1.04896  -0.95004  -0.84158  -0.78902
 Alpha  occ. eigenvalues --   -0.65121  -0.62707  -0.59703  -0.58606  -0.57203
 Alpha  occ. eigenvalues --   -0.55491  -0.48957  -0.47398  -0.45518  -0.42588
 Alpha virt. eigenvalues --   -0.36465  -0.28201  -0.26677  -0.21435  -0.17632
 Alpha virt. eigenvalues --   -0.14209  -0.11355  -0.10509  -0.09633  -0.09242
 Alpha virt. eigenvalues --   -0.07719  -0.07209  -0.07170  -0.06835  -0.06394

  Beta  occ. eigenvalues --  -89.14638 -89.14637 -89.12054 -89.08099 -89.08099
  Beta  occ. eigenvalues --   -8.22523  -8.22520  -8.20282  -8.16434  -8.16432
  Beta  occ. eigenvalues --   -6.18809  -6.18809  -6.18369  -6.18369  -6.18249
  Beta  occ. eigenvalues --   -6.18249  -6.16501  -6.16175  -6.16154  -6.12795
  Beta  occ. eigenvalues --   -6.12795  -6.12124  -6.12124  -6.11944  -6.11944
  Beta  occ. eigenvalues --   -1.07474  -1.04172  -0.94781  -0.82297  -0.77970
  Beta  occ. eigenvalues --   -0.64920  -0.62172  -0.59063  -0.57786  -0.55532
  Beta  occ. eigenvalues --   -0.54834  -0.47976  -0.46962  -0.44832
  Beta virt. eigenvalues --   -0.34657  -0.33532  -0.27936  -0.26710  -0.21157
  Beta virt. eigenvalues --   -0.17059  -0.14167  -0.11166  -0.10526  -0.09563
  Beta virt. eigenvalues --   -0.09242  -0.07479  -0.07071  -0.06956  -0.06781

 Mulliken charges and spin densities:
               1          2
     1  S    0.211645   0.113151
     2  S    0.152260  -0.261538
     3  S    0.212225   0.517618
     4  S    0.212225   0.517618
     5  S    0.211645   0.113151
 Sum of Mulliken charges =   1.00000   1.00000

 Dipole moment (field-independent basis, Debye):
    X=             -0.0000    Y=             -0.0000    Z=             -0.2749  Tot=              0.2749
 Quadrupole moment (field-independent basis, Debye-Ang):
   XX=            -59.1996   YY=            -27.7351   ZZ=            -57.1882
   XY=              0.3958   XZ=             -0.0000   YZ=             -0.0000

  Exact polarizability:  57.660   3.597 294.620   0.000   0.000  73.864
 Approx polarizability: 103.327  11.170 796.043  -0.000  -0.000 155.653

                      1                      2                      3
                      A                      B                      A
 Frequencies --      6.0001                51.4228                75.3344
 Red. masses --     31.9721                31.9721                31.9721
 Frc consts  --      0.0007                 0.0498                 0.1069
 IR Inten    --      0.0432                 0.8666                 0.4622

                      4                      5                      6
                      A                      B                      B
 Frequencies --    168.3131               187.1402               251.4867
 Red. masses --     31.9721                31.9721                31.9721
 Frc consts  --      0.5337                 0.6597                 1.1914
 IR Inten    --      0.0347                17.1289                 9.1199

                      7                      8                      9
                      A                      B                      A
 Frequencies --    477.2401               635.7902               653.2809
 Red. masses --     31.9721                31.9721                31.9721
 Frc consts  --      4.2904                 7.6146                 8.0393
 IR Inten    --      1.0685               185.2397                 1.3848

 - Thermochemistry -
 -------------------
 Temperature   298.150 Kelvin.  Pressure   1.00000 Atm.
 Atom     1 has atomic number 16 and mass  31.97207

 Molecular mass:   159.86036 amu.
 Principal axes and moments of inertia in atomic units:
                           1         2         3
     Eigenvalues --   181.839993057.984303232.15376
           X            0.01820  -0.00000   0.99983
           Y            0.99983   0.00000  -0.01820
           Z           -0.00000   1.00000   0.00000
 This molecule is an asymmetric top.
 Rotational symmetry number  2.
 Rotational temperatures (Kelvin)      0.47632     0.02832     0.02680
 Rotational constants (GHZ):           9.92489     0.59017     0.55837
 Zero-point vibrational energy      14989.3 (Joules/Mol)
                                    3.58252 (Kcal/Mol)
 Warning -- explicit consideration of   7 degrees of freedom as
           vibrations may cause significant error
 Vibrational temperatures:      8.63    73.99   108.39   242.16   269.25
          (Kelvin)            361.83   686.64   914.76   939.92

 Zero-point correction=                           0.005709 (Hartree/Particle)
 Thermal correction to Energy=                    0.013280
 Thermal correction to Enthalpy=                  0.014225
 Thermal correction to Gibbs Free Energy=        -0.031291
 Sum of electronic and zero-point Energies=          -1990.795050
 Sum of electronic and thermal Energies=             -1990.787479
 Sum of electronic and thermal Enthalpies=           -1990.786535
 Sum of electronic and thermal Free Energies=        -1990.832051

                     E (Thermal)             CV                S
                      KCal/Mol        Cal/Mol-Kelvin    Cal/Mol-Kelvin
 Total                    8.334             20.569             95.796
 Electronic               0.000              0.000              1.377
 Translational            0.889              2.981             41.116
 Rotational               0.889              2.981             27.599
 Vibrational              6.556             14.608             25.703
 Vibration     1          0.593              1.987              9.026
 Vibration     2          0.596              1.977              4.762
 Vibration     3          0.599              1.965              4.009
 Vibration     4          0.625              1.881              2.454
 Vibration     5          0.632              1.857              2.256
 Vibration     6          0.663              1.760              1.720
 Vibration     7          0.834              1.301              0.718

 Normal termination of Gaussian 09 at Mon Oct 24 01:14:02 2016.
