 Gaussian 09, Revision E.01,
 Gaussian 09:  EM64L-G09RevE.01 30-Nov-2015

 ---------------------------------------------
 #p b3lyp/6-311++G(3df,2p) freq symmetry=Loose
 ---------------------------------------------

 ---------
 b3lyp opt
 ---------
 Symbolic Z-matrix:
 Charge =  0 Multiplicity = 1

                         Standard orientation:
 ---------------------------------------------------------------------
 Center     Atomic      Atomic             Coordinates (Angstroms)
 Number     Number       Type             X           Y           Z
 ---------------------------------------------------------------------
      1         16           0        1.955585    0.705329    0.000986
      2         16           0       -1.033045   -0.536142   -0.001786
      3         16           0       -2.944546   -0.225985    0.001434
      4         16           0        2.063291   -1.233628    0.000202
      5         16           0       -0.041286    1.290425   -0.000836
 ---------------------------------------------------------------------

 SCF Done:  E(RB3LYP) =  -1991.09520369     A.U. after   14 cycles

 The electronic state is 1-A.
 Alpha  occ. eigenvalues --  -88.95646 -88.94983 -88.93764 -88.87558 -88.87013
 Alpha  occ. eigenvalues --   -8.03531  -8.02979  -8.02076  -7.96005  -7.95487
 Alpha  occ. eigenvalues --   -5.99842  -5.99399  -5.99320  -5.99276  -5.98880
 Alpha  occ. eigenvalues --   -5.98651  -5.98303  -5.98023  -5.97742  -5.92408
 Alpha  occ. eigenvalues --   -5.91911  -5.91871  -5.91559  -5.91296  -5.91073
 Alpha  occ. eigenvalues --   -0.89382  -0.84313  -0.75786  -0.65640  -0.58969
 Alpha  occ. eigenvalues --   -0.46874  -0.44360  -0.41382  -0.38936  -0.37387
 Alpha  occ. eigenvalues --   -0.36627  -0.30045  -0.28776  -0.26161  -0.22803
 Alpha virt. eigenvalues --   -0.16887  -0.10093  -0.09022  -0.01878  -0.01436
 Alpha virt. eigenvalues --    0.00399   0.02366   0.02791   0.03284   0.03849
 Alpha virt. eigenvalues --    0.04520   0.05635   0.06032   0.06107   0.07205

 Mulliken charges:
               1
     1  S    0.031366
     2  S    0.096094
     3  S   -0.106374
     4  S   -0.136658
     5  S    0.115572
 Sum of Mulliken charges =  -0.00000

 Dipole moment (field-independent basis, Debye):
    X=              0.7314    Y=              1.2478    Z=             -0.0013  Tot=              1.4464
 Quadrupole moment (field-independent basis, Debye-Ang):
   XX=            -68.4647   YY=            -62.7820   ZZ=            -65.7015
   XY=              1.7709   XZ=              0.0016   YZ=              0.0009

  Exact polarizability: 241.714  -6.008 104.831  -0.011  -0.002  67.409
 Approx polarizability:1065.891 -11.348 264.717  -0.009  -0.016 118.171

                      1                      2                      3
                      A                      A                      A
 Frequencies --     64.0269                89.9764               159.8376
 Red. masses --     31.9721                31.9721                31.9721
 Frc consts  --      0.0772                 0.1525                 0.4813
 IR Inten    --      0.2755                 0.1165                 0.1946

                      4                      5                      6
                      A                      A                      A
 Frequencies --    170.1847               269.3283               413.2804
 Red. masses --     31.9721                31.9721                31.9721
 Frc consts  --      0.5456                 1.3664                 3.2174
 IR Inten    --      0.8757                 0.4079                 1.7678

                      7                      8                      9
                      A                      A                      A
 Frequencies --    458.5351               607.4419               626.6302
 Red. masses --     31.9721                31.9721                31.9721
 Frc consts  --      3.9606                 6.9507                 7.3968
 IR Inten    --      7.9129               165.2784                75.6301

 - Thermochemistry -
 -------------------
 Temperature   298.150 Kelvin.  Pressure   1.00000 Atm.
 Atom     1 has atomic number 16 and mass  31.97207

 Molecular mass:   159.86036 amu.
 Principal axes and moments of inertia in atomic units:
                           1         2         3
     Eigenvalues --   459.328932034.670042493.99738
           X            1.00000  -0.00000  -0.00000
           Y            0.00000   1.00000   0.00000
           Z            0.00000  -0.00000   1.00000
 This molecule is an asymmetric top.
 Rotational symmetry number  1.
 Warning -- assumption of classical behavior for rotation
           may cause significant error
 Rotational temperatures (Kelvin)      0.18857     0.04257     0.03473
 Rotational constants (GHZ):           3.92908     0.88699     0.72363
 Zero-point vibrational energy      17102.1 (Joules/Mol)
                                    4.08749 (Kcal/Mol)
 Warning -- explicit consideration of   8 degrees of freedom as
           vibrations may cause significant error
 Vibrational temperatures:     92.12   129.46   229.97   244.86   387.50
          (Kelvin)            594.62   659.73   873.97   901.58

 Zero-point correction=                           0.006514 (Hartree/Particle)
 Thermal correction to Energy=                    0.013457
 Thermal correction to Enthalpy=                  0.014401
 Thermal correction to Gibbs Free Energy=        -0.027152
 Sum of electronic and zero-point Energies=          -1991.088690
 Sum of electronic and thermal Energies=             -1991.081747
 Sum of electronic and thermal Enthalpies=           -1991.080803
 Sum of electronic and thermal Free Energies=        -1991.122356

                     E (Thermal)             CV                S
                      KCal/Mol        Cal/Mol-Kelvin    Cal/Mol-Kelvin
 Total                    8.444             20.165             87.455
 Electronic               0.000              0.000              0.000
 Translational            0.889              2.981             41.116
 Rotational               0.889              2.981             29.234
 Vibrational              6.667             14.203             17.104
 Vibration     1          0.597              1.971              4.329
 Vibration     2          0.602              1.956              3.661
 Vibration     3          0.622              1.892              2.552
 Vibration     4          0.625              1.879              2.433
 Vibration     5          0.674              1.730              1.601
 Vibration     6          0.777              1.441              0.915
 Vibration     7          0.817              1.342              0.770
 Vibration     8          0.966              1.016              0.437

 1\1\GINC-BELVIS17\Freq\RB3LYP\6-311++G(3df,2p)\S5\ROOT\23-Oct-2016\0\\
 #p b3lyp/6-311++G(3df,2p) freq symmetry=Loose\\b3lyp opt\\0,1\S,0.4084
 85,-0.907822,1.825049\S,-0.291165,0.622572,-0.939287\S,-0.23288,0.6342
 47,-2.874877\S,-0.467739,0.778211,2.225897\S,0.583299,-1.127209,-0.236
 782\\Version=EM64L-G09RevE.01\State=1-A\HF=-1991.0952037\RMSD=6.400e-0
 9\RMSF=4.625e-05\ZeroPoint=0.0065138\Thermal=0.0134566\Dipole=0.235304
 9,-0.4737606,0.2097409\DipoleDeriv=0.118715,-0.0665427,-0.5715123,-0.0
 917347,0.1783655,1.1134259,-0.162753,0.3166174,0.1036017,0.1092427,-0.

 Normal termination of Gaussian 09 at Sun Oct 23 21:59:34 2016.
