 Gaussian 09, Revision E.01,
 Gaussian 09:  EM64L-G09RevE.01 30-Nov-2015

 ---------------------------------------------
 #p b3lyp/6-311++G(3df,2p) freq symmetry=Loose
 ---------------------------------------------

 ---------
 b3lyp opt
 ---------
 Symbolic Z-matrix:
 Charge =  0 Multiplicity = 1

                         Standard orientation:
 ---------------------------------------------------------------------
 Center     Atomic      Atomic             Coordinates (Angstroms)
 Number     Number       Type             X           Y           Z
 ---------------------------------------------------------------------
      1         16           0       -1.282046   -1.586152    0.000000
      2         16           0       -0.081762   -0.728712    1.481631
      3         16           0        1.527333    2.028326   -0.000000
      4         16           0       -0.081762   -0.728712   -1.481631
      5         16           0       -0.081762    1.015251   -0.000000
 ---------------------------------------------------------------------

 SCF Done:  E(RB3LYP) =  -1991.08305876     A.U. after   14 cycles

 The electronic state is 1-A'.
 Alpha  occ. eigenvalues --  -88.98554 -88.91925 -88.90361 -88.90361 -88.87717
 Alpha  occ. eigenvalues --   -8.06108  -8.00103  -7.98657  -7.98655  -7.96275
 Alpha  occ. eigenvalues --   -6.02274  -6.02262  -6.01785  -5.96494  -5.96242
 Alpha  occ. eigenvalues --   -5.95438  -5.95040  -5.95040  -5.94813  -5.94813
 Alpha  occ. eigenvalues --   -5.93953  -5.93953  -5.92645  -5.92118  -5.91863
 Alpha  occ. eigenvalues --   -0.89719  -0.82845  -0.73324  -0.67233  -0.59516
 Alpha  occ. eigenvalues --   -0.45668  -0.45422  -0.41509  -0.39018  -0.38576
 Alpha  occ. eigenvalues --   -0.34333  -0.29557  -0.27592  -0.26939  -0.23557
 Alpha virt. eigenvalues --   -0.13670  -0.12879  -0.07670  -0.05424  -0.02849
 Alpha virt. eigenvalues --    0.00261   0.02789   0.03190   0.03522   0.04641
 Alpha virt. eigenvalues --    0.05273   0.05411   0.05898   0.06044   0.07633

 Mulliken charges:
               1
     1  S    0.118570
     2  S   -0.236477
     3  S   -0.344046
     4  S   -0.236477
     5  S    0.698429
 Sum of Mulliken charges =  -0.00000

 Dipole moment (field-independent basis, Debye):
    X=             -0.5128    Y=             -0.1144    Z=             -0.0000  Tot=              0.5254
 Quadrupole moment (field-independent basis, Debye-Ang):
   XX=            -65.9580   YY=            -64.4549   ZZ=            -63.9973
   XY=              1.5241   XZ=              0.0000   YZ=              0.0000

  Exact polarizability: 101.699  40.681 135.736  -0.000  -0.000 104.263
 Approx polarizability: 219.889 119.700 322.282  -0.000   0.000 225.785

                      1                      2                      3
                     A'                     A"                     A'
 Frequencies --     96.8303               106.2669               222.1805
 Red. masses --     31.9721                31.9721                31.9721
 Frc consts  --      0.1766                 0.2127                 0.9299
 IR Inten    --      0.2527                 1.2033                 8.7167

                      4                      5                      6
                     A'                     A"                     A'
 Frequencies --    275.5201               314.9624               318.4071
 Red. masses --     31.9721                31.9721                31.9721
 Frc consts  --      1.4300                 1.8687                 1.9098
 IR Inten    --      0.7688                 3.7777                25.6005

                      7                      8                      9
                     A"                     A'                     A'
 Frequencies --    431.4591               502.2092               684.0827
 Red. masses --     31.9721                31.9721                31.9721
 Frc consts  --      3.5067                 4.7511                 8.8153
 IR Inten    --      4.3923                 3.1257               137.3072

 - Thermochemistry -
 -------------------
 Temperature   298.150 Kelvin.  Pressure   1.00000 Atm.
 Atom     1 has atomic number 16 and mass  31.97207

 Molecular mass:   159.86036 amu.
 Principal axes and moments of inertia in atomic units:
                           1         2         3
     Eigenvalues --   578.607531452.206971876.15547
           X            0.54043  -0.00000   0.84139
           Y            0.84139   0.00000  -0.54043
           Z           -0.00000   1.00000   0.00000
 This molecule is an asymmetric top.
 Rotational symmetry number  1.
 Warning -- assumption of classical behavior for rotation
           may cause significant error
 Rotational temperatures (Kelvin)      0.14969     0.05964     0.04617
 Rotational constants (GHZ):           3.11911     1.24276     0.96194
 Zero-point vibrational energy      17656.4 (Joules/Mol)
                                    4.21998 (Kcal/Mol)
 Warning -- explicit consideration of   8 degrees of freedom as
           vibrations may cause significant error
 Vibrational temperatures:    139.32   152.89   319.67   396.41   453.16
          (Kelvin)            458.12   620.77   722.57   984.24

 Zero-point correction=                           0.006725 (Hartree/Particle)
 Thermal correction to Energy=                    0.013420
 Thermal correction to Enthalpy=                  0.014365
 Thermal correction to Gibbs Free Energy=        -0.025929
 Sum of electronic and zero-point Energies=          -1991.076334
 Sum of electronic and thermal Energies=             -1991.069638
 Sum of electronic and thermal Enthalpies=           -1991.068694
 Sum of electronic and thermal Free Energies=        -1991.108987

                     E (Thermal)             CV                S
                      KCal/Mol        Cal/Mol-Kelvin    Cal/Mol-Kelvin
 Total                    8.421             20.174             84.804
 Electronic               0.000              0.000              0.000
 Translational            0.889              2.981             41.116
 Rotational               0.889              2.981             28.846
 Vibrational              6.644             14.212             14.842
 Vibration     1          0.603              1.951              3.517
 Vibration     2          0.605              1.944              3.336
 Vibration     3          0.648              1.807              1.941
 Vibration     4          0.677              1.719              1.561
 Vibration     5          0.702              1.645              1.336
 Vibration     6          0.705              1.638              1.318
 Vibration     7          0.792              1.402              0.854
 Vibration     8          0.858              1.245              0.653

 Optimization completed.
    -- Stationary point found.

 1\1\GINC-BELVIS17\Freq\RB3LYP\6-311++G(3df,2p)\S5\ROOT\24-Oct-2016\0\\
 #p b3lyp/6-311++G(3df,2p) freq symmetry=Loose\\b3lyp opt\\0,1\S,-0.970
 9605129,-0.301000245,-1.7680934531\S,0.977517229,0.295252383,-1.300086
 055\S,1.2140875678,0.288273636,2.2112763251\S,-1.6203857712,0.30262638
 3,0.1253149444\S,0.399742487,-0.585153156,0.731588237\\Version=EM64L-G
 09RevE.01\State=1-A'\HF=-1991.0830588\RMSD=2.763e-09\RMSF=3.889e-05\Ze
 roPoint=0.006725\Thermal=0.0134205\Dipole=-0.0681957,-0.1510966,-0.123
 5102\DipoleDeriv=0.1330279,0.022098,-0.0670121,0.0301236,0.00457,0.055

 Normal termination of Gaussian 09 at Mon Oct 24 01:12:25 2016.
