 Gaussian 09, Revision E.01,
 Gaussian 09:  EM64L-G09RevE.01 30-Nov-2015

 ---------------------------------------------
 #p b3lyp/6-311++G(3df,2p) freq symmetry=Loose
 ---------------------------------------------

 ---------
 b3lyp opt
 ---------
 Symbolic Z-matrix:
 Charge =  0 Multiplicity = 1

                         Standard orientation:
 ---------------------------------------------------------------------
 Center     Atomic      Atomic             Coordinates (Angstroms)
 Number     Number       Type             X           Y           Z
 ---------------------------------------------------------------------
      1         16           0        0.099627    2.400604    0.000000
      2         16           0        0.099627   -0.858123    1.469757
      3         16           0       -1.263514   -1.384053   -0.000000
      4         16           0        0.099627   -0.858123   -1.469757
      5         16           0        0.964632    0.699696    0.000000
 ---------------------------------------------------------------------

 SCF Done:  E(RB3LYP) =  -1991.08370003     A.U. after   14 cycles

 The electronic state is 1-A'.
 Alpha  occ. eigenvalues --  -88.97722 -88.91836 -88.90409 -88.90408 -88.87471
 Alpha  occ. eigenvalues --   -8.05328  -8.00024  -7.98694  -7.98693  -7.96015
 Alpha  occ. eigenvalues --   -6.01489  -6.01482  -6.01001  -5.96418  -5.96144
 Alpha  occ. eigenvalues --   -5.95375  -5.95043  -5.95043  -5.94847  -5.94847
 Alpha  occ. eigenvalues --   -5.94034  -5.94034  -5.92358  -5.91880  -5.91612
 Alpha  occ. eigenvalues --   -0.89044  -0.82790  -0.73183  -0.67658  -0.58668
 Alpha  occ. eigenvalues --   -0.45844  -0.44583  -0.41621  -0.39570  -0.37834
 Alpha  occ. eigenvalues --   -0.34276  -0.28424  -0.27615  -0.26927  -0.23830
 Alpha virt. eigenvalues --   -0.13845  -0.13657  -0.06524  -0.05534  -0.01670
 Alpha virt. eigenvalues --    0.00098   0.02705   0.03385   0.03583   0.04094
 Alpha virt. eigenvalues --    0.05318   0.06028   0.06307   0.06429   0.06531

 Mulliken charges:
               1
     1  S   -0.359349
     2  S   -0.150333
     3  S   -0.034667
     4  S   -0.150333
     5  S    0.694682
 Sum of Mulliken charges =  -0.00000

 Dipole moment (field-independent basis, Debye):
    X=              0.3216    Y=             -0.4076    Z=             -0.0000  Tot=              0.5192
 Quadrupole moment (field-independent basis, Debye-Ang):
   XX=            -64.0534   YY=            -66.2831   ZZ=            -63.4959
   XY=              1.8816   XZ=             -0.0000   YZ=              0.0000

  Exact polarizability:  86.609  14.690 151.185   0.000  -0.000 103.272
 Approx polarizability: 177.176  35.591 392.304  -0.000   0.000 229.305

                      1                      2                      3
                     A'                     A"                     A'
 Frequencies --     87.6282                99.2220               192.0434
 Red. masses --     31.9721                31.9721                31.9721
 Frc consts  --      0.1446                 0.1855                 0.6947
 IR Inten    --      0.2370                 0.8520                 2.9504

                      4                      5                      6
                     A'                     A"                     A'
 Frequencies --    277.9066               311.7883               338.3451
 Red. masses --     31.9721                31.9721                31.9721
 Frc consts  --      1.4549                 1.8312                 2.1565
 IR Inten    --     17.1722                 6.3571                16.2585

                      7                      8                      9
                     A"                     A'                     A'
 Frequencies --    464.4795               497.7745               664.7066
 Red. masses --     31.9721                31.9721                31.9721
 Frc consts  --      4.0640                 4.6675                 8.3230
 IR Inten    --      0.4573                 2.7031               128.2104

 - Thermochemistry -
 -------------------
 Temperature   298.150 Kelvin.  Pressure   1.00000 Atm.
 Atom     1 has atomic number 16 and mass  31.97207

 Molecular mass:   159.86036 amu.
 Principal axes and moments of inertia in atomic units:
                           1         2         3
     Eigenvalues --   695.138531392.651631684.06422
           X            0.30176  -0.00000   0.95338
           Y            0.95338  -0.00000  -0.30176
           Z            0.00000   1.00000   0.00000
 This molecule is an asymmetric top.
 Rotational symmetry number  1.
 Warning -- assumption of classical behavior for rotation
           may cause significant error
 Rotational temperatures (Kelvin)      0.12460     0.06219     0.05143
 Rotational constants (GHZ):           2.59623     1.29590     1.07166
 Zero-point vibrational energy      17548.6 (Joules/Mol)
                                    4.19421 (Kcal/Mol)
 Warning -- explicit consideration of   8 degrees of freedom as
           vibrations may cause significant error
 Vibrational temperatures:    126.08   142.76   276.31   399.85   448.59
          (Kelvin)            486.80   668.28   716.19   956.36

 Zero-point correction=                           0.006684 (Hartree/Particle)
 Thermal correction to Energy=                    0.013418
 Thermal correction to Enthalpy=                  0.014362
 Thermal correction to Gibbs Free Energy=        -0.026153
 Sum of electronic and zero-point Energies=          -1991.077016
 Sum of electronic and thermal Energies=             -1991.070282
 Sum of electronic and thermal Enthalpies=           -1991.069338
 Sum of electronic and thermal Free Energies=        -1991.109853

                     E (Thermal)             CV                S
                      KCal/Mol        Cal/Mol-Kelvin    Cal/Mol-Kelvin
 Total                    8.420             20.167             85.273
 Electronic               0.000              0.000              0.000
 Translational            0.889              2.981             41.116
 Rotational               0.889              2.981             28.879
 Vibrational              6.643             14.205             15.277
 Vibration     1          0.601              1.958              3.712
 Vibration     2          0.604              1.950              3.470
 Vibration     3          0.634              1.851              2.208
 Vibration     4          0.679              1.714              1.547
 Vibration     5          0.700              1.651              1.353
 Vibration     6          0.719              1.599              1.220
 Vibration     7          0.822              1.329              0.753
 Vibration     8          0.853              1.255              0.664

 1\1\GINC-BELVIS17\Freq\RB3LYP\6-311++G(3df,2p)\S5\ROOT\24-Oct-2016\0\\
 #p b3lyp/6-311++G(3df,2p) freq symmetry=Loose\\b3lyp opt\\0,1\S,2.1035
 95013,0.2750131579,0.639176161\S,-0.791222379,-1.609370926,-0.28202942
 5\S,-1.887392658,-0.2083398891,0.781204119\S,-1.1493183792,1.304617073
 9,-0.4275764248\S,0.766346403,0.0436765843,-0.70230543\\Version=EM64L-
 G09RevE.01\State=1-A'\HF=-1991.0837\RMSD=7.930e-09\RMSF=3.745e-05\Zero
 Point=0.0066839\Thermal=0.0134181\Dipole=-0.1121963,-0.022242,-0.16926
 32\DipoleDeriv=-0.963038,-0.1232984,-0.1467686,-0.1574424,-0.0402247,-

 Normal termination of Gaussian 09 at Mon Oct 24 01:12:30 2016.
