 Gaussian 09, Revision E.01,
 Gaussian 09:  EM64L-G09RevE.01 30-Nov-2015

 ---------------------------------------------
 #p b3lyp/6-311++G(3df,2p) freq symmetry=Loose
 ---------------------------------------------

 ---------
 b3lyp opt
 ---------
 Symbolic Z-matrix:
 Charge =  1 Multiplicity = 2

                         Standard orientation:
 ---------------------------------------------------------------------
 Center     Atomic      Atomic             Coordinates (Angstroms)
 Number     Number       Type             X           Y           Z
 ---------------------------------------------------------------------
      1         16           0       -0.775218   -1.869464   -0.000000
      2         16           0       -0.190133   -0.690201    1.549082
      3         16           0        1.345617    2.149721    0.000000
      4         16           0       -0.190133   -0.690201   -1.549082
      5         16           0       -0.190133    1.100144    0.000000
 ---------------------------------------------------------------------

 SCF Done:  E(UB3LYP) =  -1990.78757039     A.U. after   19 cycles

 The electronic state is 2-A'.
 Alpha  occ. eigenvalues --  -89.18337 -89.14576 -89.10736 -89.10736 -89.09065
 Alpha  occ. eigenvalues --   -8.25878  -8.22549  -8.18962  -8.18961  -8.17476
 Alpha  occ. eigenvalues --   -6.22046  -6.21987  -6.21597  -6.18762  -6.18598
 Alpha  occ. eigenvalues --   -6.18434  -6.15231  -6.15231  -6.15045  -6.15045
 Alpha  occ. eigenvalues --   -6.14586  -6.14586  -6.13767  -6.13317  -6.13153
 Alpha  occ. eigenvalues --   -1.09710  -1.04813  -0.94343  -0.87150  -0.79013
 Alpha  occ. eigenvalues --   -0.66356  -0.64639  -0.61583  -0.58207  -0.57781
 Alpha  occ. eigenvalues --   -0.57406  -0.50216  -0.47582  -0.46553  -0.43236
 Alpha virt. eigenvalues --   -0.34196  -0.33089  -0.24219  -0.23540  -0.20302
 Alpha virt. eigenvalues --   -0.14252  -0.11953  -0.10302  -0.10199  -0.09544
 Alpha virt. eigenvalues --   -0.09356  -0.08323  -0.07332  -0.07239  -0.06799

  Beta  occ. eigenvalues --  -89.18313 -89.14237 -89.10548 -89.10548 -89.09067
  Beta  occ. eigenvalues --   -8.25854  -8.22244  -8.18794  -8.18792  -8.17478
  Beta  occ. eigenvalues --   -6.22013  -6.21987  -6.21536  -6.18569  -6.18259
  Beta  occ. eigenvalues --   -6.17544  -6.15135  -6.15135  -6.14839  -6.14838
  Beta  occ. eigenvalues --   -6.14098  -6.14098  -6.13760  -6.13352  -6.13134
  Beta  occ. eigenvalues --   -1.09200  -1.04162  -0.93376  -0.86368  -0.77742
  Beta  occ. eigenvalues --   -0.66049  -0.64237  -0.60690  -0.57553  -0.57245
  Beta  occ. eigenvalues --   -0.54808  -0.48526  -0.46506  -0.46071
  Beta virt. eigenvalues --   -0.35443  -0.33641  -0.32866  -0.23668  -0.22888
  Beta virt. eigenvalues --   -0.20032  -0.14121  -0.11802  -0.10152  -0.10150
  Beta virt. eigenvalues --   -0.09339  -0.09300  -0.08184  -0.07111  -0.07002

 Mulliken charges and spin densities:
               1          2
     1  S    0.384256   0.440495
     2  S   -0.095276   0.267072
     3  S   -0.081448  -0.007227
     4  S   -0.095276   0.267072
     5  S    0.887744   0.032587
 Sum of Mulliken charges =   1.00000   1.00000

 Dipole moment (field-independent basis, Debye):
    X=             -0.0036    Y=              0.0749    Z=              0.0000  Tot=              0.0750
 Quadrupole moment (field-independent basis, Debye-Ang):
   XX=            -56.7923   YY=            -44.3244   ZZ=            -52.5880
   XY=              6.8245   XZ=             -0.0000   YZ=              0.0000

  Exact polarizability:  78.587  35.968 134.541  -0.000  -0.000 101.776
 Approx polarizability: 184.233 130.305 377.241   0.000   0.000 267.314

                      1                      2                      3
                     A"                     A'                     A'
 Frequencies --     33.4612                70.8107               197.2973
 Red. masses --     31.9721                31.9721                31.9721
 Frc consts  --      0.0211                 0.0945                 0.7333
 IR Inten    --      0.2616                 0.1919                 7.5772

                      4                      5                      6
                     A'                     A"                     A'
 Frequencies --    255.7166               262.9076               297.1303
 Red. masses --     31.9721                31.9721                31.9721
 Frc consts  --      1.2318                 1.3020                 1.6631
 IR Inten    --      2.2922                 0.1470                48.4319

                      7                      8                      9
                     A"                     A'                     A'
 Frequencies --    490.6640               531.6807               745.0750
 Red. masses --     31.9721                31.9721                31.9721
 Frc consts  --      4.5351                 5.3250                10.4573
 IR Inten    --      9.0253                 4.2721               100.9362

 - Thermochemistry -
 -------------------
 Temperature   298.150 Kelvin.  Pressure   1.00000 Atm.
 Atom     1 has atomic number 16 and mass  31.97207

 Molecular mass:   159.86036 amu.
 Principal axes and moments of inertia in atomic units:
                           1         2         3
     Eigenvalues --   609.287751461.359521947.98803
           X            0.41124   0.00000   0.91153
           Y            0.91153   0.00000  -0.41124
           Z           -0.00000   1.00000  -0.00000
 This molecule is an asymmetric top.
 Rotational symmetry number  1.
 Warning -- assumption of classical behavior for rotation
           may cause significant error
 Rotational temperatures (Kelvin)      0.14216     0.05927     0.04446
 Rotational constants (GHZ):           2.96205     1.23497     0.92646
 Zero-point vibrational energy      17254.6 (Joules/Mol)
                                    4.12395 (Kcal/Mol)
 Warning -- explicit consideration of   8 degrees of freedom as
           vibrations may cause significant error
 Vibrational temperatures:     48.14   101.88   283.87   367.92   378.26
          (Kelvin)            427.50   705.96   764.97  1072.00

 Zero-point correction=                           0.006572 (Hartree/Particle)
 Thermal correction to Energy=                    0.013531
 Thermal correction to Enthalpy=                  0.014475
 Thermal correction to Gibbs Free Energy=        -0.028109
 Sum of electronic and zero-point Energies=          -1990.780998
 Sum of electronic and thermal Energies=             -1990.774039
 Sum of electronic and thermal Enthalpies=           -1990.773095
 Sum of electronic and thermal Free Energies=        -1990.815679

                     E (Thermal)             CV                S
                      KCal/Mol        Cal/Mol-Kelvin    Cal/Mol-Kelvin
 Total                    8.491             20.125             89.625
 Electronic               0.000              0.000              1.377
 Translational            0.889              2.981             41.116
 Rotational               0.889              2.981             28.941
 Vibrational              6.713             14.164             18.190
 Vibration     1          0.594              1.983              5.613
 Vibration     2          0.598              1.968              4.131
 Vibration     3          0.637              1.844              2.158
 Vibration     4          0.666              1.753              1.691
 Vibration     5          0.670              1.741              1.642
 Vibration     6          0.691              1.679              1.433
 Vibration     7          0.846              1.271              0.682
 Vibration     8          0.887              1.180              0.583

 Normal termination of Gaussian 09 at Mon Oct 24 01:26:43 2016.
