 Gaussian 09, Revision E.01,
 Gaussian 09:  EM64L-G09RevE.01 30-Nov-2015

 ---------------------------------------------
 #p b3lyp/6-311++G(3df,2p) freq symmetry=Loose
 ---------------------------------------------

 ---------
 b3lyp opt
 ---------
 Symbolic Z-matrix:
 Charge =  0 Multiplicity = 1

                         Standard orientation:
 ---------------------------------------------------------------------
 Center     Atomic      Atomic             Coordinates (Angstroms)
 Number     Number       Type             X           Y           Z
 ---------------------------------------------------------------------
      1         16           0        0.000000    1.531007    0.760794
      2         16           0        1.644696   -1.111852   -0.380397
      3         16           0        1.644696    1.111852   -0.380397
      4         16           0       -0.000000   -1.531007    0.760794
      5         16           0       -1.644696   -1.111852   -0.380397
      6         16           0       -1.644696    1.111852   -0.380397
 ---------------------------------------------------------------------

 SCF Done:  E(RB3LYP) =  -2389.35394754     A.U. after   11 cycles

 The electronic state is 1-A1.
 Alpha  occ. eigenvalues --  -88.92584 -88.92583 -88.90538 -88.90538 -88.90538
 Alpha  occ. eigenvalues --  -88.90537  -8.00693  -8.00690  -7.98804  -7.98803
 Alpha  occ. eigenvalues --   -7.98802  -7.98801  -5.97074  -5.97073  -5.96722
 Alpha  occ. eigenvalues --   -5.96722  -5.96153  -5.96153  -5.95193  -5.95193
 Alpha  occ. eigenvalues --   -5.95186  -5.95186  -5.94916  -5.94916  -5.94913
 Alpha  occ. eigenvalues --   -5.94913  -5.94152  -5.94151  -5.94151  -5.94151
 Alpha  occ. eigenvalues --   -0.88111  -0.82902  -0.79696  -0.69756  -0.67406
 Alpha  occ. eigenvalues --   -0.57420  -0.47905  -0.44069  -0.42364  -0.39486
 Alpha  occ. eigenvalues --   -0.37684  -0.37274  -0.33476  -0.31928  -0.31163
 Alpha  occ. eigenvalues --   -0.27764  -0.24670  -0.24247
 Alpha virt. eigenvalues --   -0.11397  -0.10394  -0.07436  -0.06379  -0.03680
 Alpha virt. eigenvalues --   -0.01249   0.00318   0.02697   0.02722   0.03176
 Alpha virt. eigenvalues --    0.03704   0.04559   0.05449   0.05705   0.06110

 Mulliken charges:
               1
     1  S    0.219221
     2  S   -0.109610
     3  S   -0.109610
     4  S    0.219221
     5  S   -0.109610
     6  S   -0.109610
 Sum of Mulliken charges =  -0.00000

 Dipole moment (field-independent basis, Debye):
    X=              0.0000    Y=             -0.0000    Z=              0.1935  Tot=              0.1935
 Quadrupole moment (field-independent basis, Debye-Ang):
   XX=            -76.3936   YY=            -76.2446   ZZ=            -78.4112
   XY=             -0.0000   XZ=             -0.0000   YZ=             -0.0000

  Exact polarizability: 144.502   0.000 134.666   0.000  -0.000  90.482
 Approx polarizability: 312.107   0.000 282.038   0.000   0.000 185.196

                      1                      2                      3
                     A2                     B2                     A2
 Frequencies --     47.9975               184.3615               207.3486
 Red. masses --     31.9721                31.9721                31.9721
 Frc consts  --      0.0434                 0.6403                 0.8099
 IR Inten    --      0.0000                 0.4114                 0.0000

                      4                      5                      6
                     A1                     A1                     B1
 Frequencies --    207.5112               231.4845               309.9675
 Red. masses --     31.9721                31.9721                31.9721
 Frc consts  --      0.8112                 1.0094                 1.8099
 IR Inten    --      0.2145                 0.1031                 0.5649

                      7                      8                      9
                     B2                     A1                     A2
 Frequencies --    314.6552               372.7430               418.0580
 Red. masses --     31.9721                31.9721                31.9721
 Frc consts  --      1.8651                 2.6172                 3.2923
 IR Inten    --      0.9900                 0.0584                 0.0000

                     10                     11                     12
                     B1                     B2                     A1
 Frequencies --    429.4144               493.2985               502.8260
 Red. masses --     31.9721                31.9721                31.9721
 Frc consts  --      3.4736                 4.5840                 4.7627
 IR Inten    --     14.0173                 0.7148                 0.6185

 - Thermochemistry -
 -------------------
 Temperature   298.150 Kelvin.  Pressure   1.00000 Atm.
 Atom     1 has atomic number 16 and mass  31.97207

 Molecular mass:   191.83243 amu.
 Principal axes and moments of inertia in atomic units:
                           1         2         3
     Eigenvalues --  1298.076181433.633132335.19915
           X            1.00000  -0.00000   0.00000
           Y            0.00000   1.00000   0.00000
           Z           -0.00000  -0.00000   1.00000
 This molecule is an asymmetric top.
 Rotational symmetry number  2.
 Warning -- assumption of classical behavior for rotation
           may cause significant error
 Rotational temperatures (Kelvin)      0.06672     0.06042     0.03709
 Rotational constants (GHZ):           1.39032     1.25886     0.77284
 Zero-point vibrational energy      22248.5 (Joules/Mol)
                                    5.31753 (Kcal/Mol)
 Warning -- explicit consideration of  12 degrees of freedom as
           vibrations may cause significant error
 Vibrational temperatures:     69.06   265.25   298.33   298.56   333.05
          (Kelvin)            445.97   452.72   536.29   601.49   617.83
                              709.75   723.45

 Zero-point correction=                           0.008474 (Hartree/Particle)
 Thermal correction to Energy=                    0.016515
 Thermal correction to Enthalpy=                  0.017459
 Thermal correction to Gibbs Free Energy=        -0.025385
 Sum of electronic and zero-point Energies=          -2389.345474
 Sum of electronic and thermal Energies=             -2389.337433
 Sum of electronic and thermal Enthalpies=           -2389.336489
 Sum of electronic and thermal Free Energies=        -2389.379332

                     E (Thermal)             CV                S
                      KCal/Mol        Cal/Mol-Kelvin    Cal/Mol-Kelvin
 Total                   10.363             25.427             90.172
 Electronic               0.000              0.000              0.000
 Translational            0.889              2.981             41.660
 Rotational               0.889              2.981             28.476
 Vibrational              8.586             19.465             20.036
 Vibration     1          0.595              1.978              4.898
 Vibration     2          0.631              1.861              2.284
 Vibration     3          0.641              1.829              2.067
 Vibration     4          0.641              1.829              2.065
 Vibration     5          0.653              1.793              1.867
 Vibration     6          0.699              1.655              1.363
 Vibration     7          0.702              1.646              1.338
 Vibration     8          0.744              1.528              1.068
 Vibration     9          0.781              1.431              0.899
 Vibration    10          0.791              1.406              0.861
 Vibration    11          0.849              1.265              0.675
 Vibration    12          0.858              1.244              0.651

 1\1\GINC-BELVIS17\Freq\RB3LYP\6-311++G(3df,2p)\S6\ROOT\24-Oct-2016\0\\
 #p b3lyp/6-311++G(3df,2p) freq symmetry=Loose\\b3lyp opt\\0,1\S,-0.519
 3653588,0.02832322,-0.5201050172\S,0.447521697,-1.025181753,2.47109924
 5\S,-1.3211068214,-0.872285879,1.1319085918\S,1.9160164432,-0.18221269
 83,1.32394562\S,1.5783067785,1.8348641179,1.3042381066\S,-0.1903217399
 ,1.9877599919,-0.0349525466\\Version=EM64L-G09RevE.01\State=1-A1\HF=-2
 389.3539475\RMSD=5.923e-09\RMSF=6.965e-05\ZeroPoint=0.008474\Thermal=0
 .0165147\Dipole=0.0380083,-0.0372417,-0.0544484\DipoleDeriv=0.016827,0

 Normal termination of Gaussian 09 at Mon Oct 24 01:36:57 2016.
