 Gaussian 09, Revision E.01,
 Gaussian 09:  EM64L-G09RevE.01 30-Nov-2015

 ---------------------------------------------
 #p b3lyp/6-311++G(3df,2p) freq symmetry=Loose
 ---------------------------------------------

 ---------
 b3lyp opt
 ---------
 Symbolic Z-matrix:
 Charge =  0 Multiplicity = 1

                         Standard orientation:
 ---------------------------------------------------------------------
 Center     Atomic      Atomic             Coordinates (Angstroms)
 Number     Number       Type             X           Y           Z
 ---------------------------------------------------------------------
      1         16           0        2.478283    0.724857    0.382081
      2         16           0       -1.939935   -0.010274    0.721017
      3         16           0        2.926658   -1.131318    0.065389
      4         16           0       -0.389098   -0.612146   -0.592802
      5         16           0        0.613791    1.174100   -0.486655
      6         16           0       -3.689700   -0.145219   -0.089031
 ---------------------------------------------------------------------

 SCF Done:  E(RB3LYP) =  -2389.31561227     A.U. after   17 cycles

 The electronic state is 1-A.
 Alpha  occ. eigenvalues --  -88.94653 -88.94482 -88.93708 -88.93023 -88.87469
 Alpha  occ. eigenvalues --  -88.87145  -8.02588  -8.02499  -8.01919  -8.01245
 Alpha  occ. eigenvalues --   -7.95913  -7.95611  -5.98901  -5.98801  -5.98482
 Alpha  occ. eigenvalues --   -5.98395  -5.98302  -5.98239  -5.98215  -5.97882
 Alpha  occ. eigenvalues --   -5.97598  -5.97494  -5.97269  -5.96716  -5.92298
 Alpha  occ. eigenvalues --   -5.91975  -5.91790  -5.91503  -5.91473  -5.91177
 Alpha  occ. eigenvalues --   -0.89035  -0.85417  -0.80088  -0.71421  -0.63112
 Alpha  occ. eigenvalues --   -0.59307  -0.46563  -0.45118  -0.42764  -0.39707
 Alpha  occ. eigenvalues --   -0.38865  -0.37790  -0.35603  -0.32088  -0.28847
 Alpha  occ. eigenvalues --   -0.27403  -0.26826  -0.22016
 Alpha virt. eigenvalues --   -0.17861  -0.09685  -0.09297  -0.07085  -0.02845
 Alpha virt. eigenvalues --   -0.01448  -0.00050   0.01848   0.02598   0.02858
 Alpha virt. eigenvalues --    0.04307   0.04558   0.04775   0.05091   0.05256

 Mulliken charges:
               1
     1  S    0.052531
     2  S    0.090570
     3  S   -0.179549
     4  S    0.210152
     5  S    0.032300
     6  S   -0.206004
 Sum of Mulliken charges =  -0.00000

 Dipole moment (field-independent basis, Debye):
    X=              0.6265    Y=              0.8907    Z=              0.0570  Tot=              1.0905
 Quadrupole moment (field-independent basis, Debye-Ang):
   XX=            -84.4778   YY=            -75.9843   ZZ=            -77.9012
   XY=              2.6457   XZ=             -0.3000   YZ=              0.1686

  Exact polarizability: 378.934  -8.861 112.330   2.489   0.244  90.727
 Approx polarizability:2443.436 -71.508 270.396  -9.613   0.622 179.142

                      1                      2                      3
                      A                      A                      A
 Frequencies --     40.4694                44.1103                85.1423
 Red. masses --     31.9721                31.9721                31.9721
 Frc consts  --      0.0309                 0.0367                 0.1366
 IR Inten    --      0.3218                 0.5275                 1.8502

                      4                      5                      6
                      A                      A                      A
 Frequencies --    103.3765               141.0358               196.4354
 Red. masses --     31.9721                31.9721                31.9721
 Frc consts  --      0.2013                 0.3747                 0.7269
 IR Inten    --      2.5064                 1.7135                 0.1022

                      7                      8                      9
                      A                      A                      A
 Frequencies --    293.8866               349.6679               397.5192
 Red. masses --     31.9721                31.9721                31.9721
 Frc consts  --      1.6270                 2.3032                 2.9767
 IR Inten    --      0.3507                 3.1120                 5.3982

                     10                     11                     12
                      A                      A                      A
 Frequencies --    500.1183               615.7650               632.4077
 Red. masses --     31.9721                31.9721                31.9721
 Frc consts  --      4.7116                 7.1425                 7.5338
 IR Inten    --      1.3320               280.2155                56.6014

 - Thermochemistry -
 -------------------
 Temperature   298.150 Kelvin.  Pressure   1.00000 Atm.
 Atom     1 has atomic number 16 and mass  31.97207

 Molecular mass:   191.83243 amu.
 Principal axes and moments of inertia in atomic units:
                           1         2         3
     Eigenvalues --   553.291853868.099214132.23284
           X            1.00000  -0.00000  -0.00000
           Y            0.00000   1.00000  -0.00000
           Z            0.00000   0.00000   1.00000
 This molecule is an asymmetric top.
 Rotational symmetry number  1.
 Warning -- assumption of classical behavior for rotation
           may cause significant error
 Rotational temperatures (Kelvin)      0.15654     0.02239     0.02096
 Rotational constants (GHZ):           3.26183     0.46657     0.43675
 Zero-point vibrational energy      20336.1 (Joules/Mol)
                                    4.86045 (Kcal/Mol)
 Warning -- explicit consideration of  11 degrees of freedom as
           vibrations may cause significant error
 Vibrational temperatures:     58.23    63.46   122.50   148.74   202.92
          (Kelvin)            282.63   422.84   503.09   571.94   719.56
                              885.95   909.89

 Zero-point correction=                           0.007746 (Hartree/Particle)
 Thermal correction to Energy=                    0.016617
 Thermal correction to Enthalpy=                  0.017561
 Thermal correction to Gibbs Free Energy=        -0.029811
 Sum of electronic and zero-point Energies=          -2389.307867
 Sum of electronic and thermal Energies=             -2389.298995
 Sum of electronic and thermal Enthalpies=           -2389.298051
 Sum of electronic and thermal Free Energies=        -2389.345424

                     E (Thermal)             CV                S
                      KCal/Mol        Cal/Mol-Kelvin    Cal/Mol-Kelvin
 Total                   10.427             25.534             99.704
 Electronic               0.000              0.000              0.000
 Translational            0.889              2.981             41.660
 Rotational               0.889              2.981             30.559
 Vibrational              8.650             19.572             27.485
 Vibration     1          0.594              1.981              5.236
 Vibration     2          0.595              1.980              5.065
 Vibration     3          0.601              1.959              3.769
 Vibration     4          0.605              1.947              3.390
 Vibration     5          0.615              1.912              2.790
 Vibration     6          0.636              1.845              2.166
 Vibration     7          0.689              1.685              1.451
 Vibration     8          0.727              1.576              1.168
 Vibration     9          0.764              1.475              0.972
 Vibration    10          0.856              1.250              0.658
 Vibration    11          0.975              0.999              0.423

 1\1\GINC-BELVIS20\Freq\RB3LYP\6-311++G(3df,2p)\S6\ROOT\23-Oct-2016\0\\
 #p b3lyp/6-311++G(3df,2p) freq symmetry=Loose\\b3lyp opt\\0,1\S,-1.485
 172,0.560174,1.05454\S,2.995494,0.722437,0.783894\S,-1.696926,-0.60593
 8,-0.475839\S,1.514518,-0.79102,0.685781\S,0.292856,0.088951,2.078951\
 S,4.735478,0.025333,1.255663\\Version=EM64L-G09RevE.01\State=1-A\HF=-2
 389.3156123\RMSD=4.085e-09\RMSF=4.571e-05\ZeroPoint=0.0077456\Thermal=
 0.0166172\Dipole=-0.2889681,0.1717263,0.2666019\DipoleDeriv=0.015881,0
 .0120047,0.2487138,1.1492697,0.1846881,0.254715,0.9905151,0.1202107,0.

 Normal termination of Gaussian 09 at Sun Oct 23 22:57:33 2016.
