 Gaussian 09, Revision E.01,
 Gaussian 09:  EM64L-G09RevE.01 30-Nov-2015

 ---------------------------------------------
 #p b3lyp/6-311++G(3df,2p) freq symmetry=Loose
 ---------------------------------------------

 ---------
 b3lyp opt
 ---------
 Symbolic Z-matrix:
 Charge =  1 Multiplicity = 2

                         Standard orientation:
 ---------------------------------------------------------------------
 Center     Atomic      Atomic             Coordinates (Angstroms)
 Number     Number       Type             X           Y           Z
 ---------------------------------------------------------------------
      1         16           0        1.432386   -1.421488    0.413165
      2         16           0       -3.029618    0.441976   -0.188622
      3         16           0       -1.374180    0.016979    0.590442
      4         16           0        0.946534    1.853925   -0.022014
      5         16           0        2.326098    0.523410   -0.216919
      6         16           0       -0.301220   -1.414802   -0.576052
 ---------------------------------------------------------------------

 SCF Done:  E(UB3LYP) =  -2389.04225871     A.U. after   21 cycles

 The electronic state is 2-A.
 Alpha  occ. eigenvalues --  -89.15750 -89.11437 -89.11306 -89.09479 -89.07990
 Alpha  occ. eigenvalues --  -89.07974  -8.23498  -8.19473  -8.19460  -8.17680
 Alpha  occ. eigenvalues --   -8.16355  -8.16273  -6.19639  -6.19564  -6.19236
 Alpha  occ. eigenvalues --   -6.15766  -6.15689  -6.15454  -6.15446  -6.15349
 Alpha  occ. eigenvalues --   -6.15078  -6.14042  -6.13766  -6.13082  -6.12641
 Alpha  occ. eigenvalues --   -6.12565  -6.12417  -6.12395  -6.11993  -6.11802
 Alpha  occ. eigenvalues --   -1.07659  -1.03851  -0.99761  -0.88516  -0.81489
 Alpha  occ. eigenvalues --   -0.78370  -0.64646  -0.62079  -0.61310  -0.58308
 Alpha  occ. eigenvalues --   -0.56868  -0.56190  -0.54384  -0.50056  -0.48344
 Alpha  occ. eigenvalues --   -0.45334  -0.44305  -0.42463
 Alpha virt. eigenvalues --   -0.34791  -0.27491  -0.25998  -0.23975  -0.19051
 Alpha virt. eigenvalues --   -0.18599  -0.13376  -0.11001  -0.10668  -0.09568
 Alpha virt. eigenvalues --   -0.09015  -0.08686  -0.07390  -0.07173  -0.06285

  Beta  occ. eigenvalues --  -89.15749 -89.11276 -89.11150 -89.09470 -89.08029
  Beta  occ. eigenvalues --  -89.07567  -8.23496  -8.19447  -8.19202  -8.17670
  Beta  occ. eigenvalues --   -8.16404  -8.15892  -6.19636  -6.19565  -6.19238
  Beta  occ. eigenvalues --   -6.15722  -6.15524  -6.15428  -6.15206  -6.15021
  Beta  occ. eigenvalues --   -6.14546  -6.14045  -6.13762  -6.13042  -6.12673
  Beta  occ. eigenvalues --   -6.12560  -6.12198  -6.11838  -6.11653  -6.11340
  Beta  occ. eigenvalues --   -1.07563  -1.03099  -0.99130  -0.88031  -0.80389
  Beta  occ. eigenvalues --   -0.77285  -0.64428  -0.61782  -0.61083  -0.57753
  Beta  occ. eigenvalues --   -0.56267  -0.54900  -0.52562  -0.49035  -0.47864
  Beta  occ. eigenvalues --   -0.44950  -0.43829
  Beta virt. eigenvalues --   -0.35026  -0.33004  -0.27032  -0.25792  -0.23716
  Beta virt. eigenvalues --   -0.18742  -0.18126  -0.13286  -0.10890  -0.10519
  Beta virt. eigenvalues --   -0.09516  -0.08917  -0.08577  -0.07281  -0.06988

 Mulliken charges and spin densities:
               1          2
     1  S    0.233634   0.017638
     2  S   -0.034213  -0.081920
     3  S    0.607207  -0.003822
     4  S    0.072168   0.626590
     5  S    0.154836   0.398431
     6  S   -0.033632   0.043082
 Sum of Mulliken charges =   1.00000   1.00000

 Dipole moment (field-independent basis, Debye):
    X=             -0.7165    Y=             -0.0907    Z=              0.0657  Tot=              0.7252
 Quadrupole moment (field-independent basis, Debye-Ang):
   XX=            -49.0640   YY=            -63.6360   ZZ=            -71.6802
   XY=             -0.7689   XZ=              0.3774   YZ=             -0.3569

  Exact polarizability: 202.134  -5.630 126.054   1.697  -0.019  76.273
 Approx polarizability: 567.493 -48.897 311.823   6.431   3.087 154.109

                      1                      2                      3
                      A                      A                      A
 Frequencies --     59.4169                69.1418               122.9341
 Red. masses --     31.9721                31.9721                31.9721
 Frc consts  --      0.0665                 0.0901                 0.2847
 IR Inten    --      0.0089                 3.0738                 0.5910

                      4                      5                      6
                      A                      A                      A
 Frequencies --    157.1054               177.9108               200.8234
 Red. masses --     31.9721                31.9721                31.9721
 Frc consts  --      0.4649                 0.5962                 0.7597
 IR Inten    --      4.9999                 0.3924                 0.9898

                      7                      8                      9
                      A                      A                      A
 Frequencies --    263.9632               296.9610               411.4996
 Red. masses --     31.9721                31.9721                31.9721
 Frc consts  --      1.3125                 1.6612                 3.1898
 IR Inten    --      0.3573                 9.4830                 6.6545

                     10                     11                     12
                      A                      A                      A
 Frequencies --    536.1522               629.7270               707.7342
 Red. masses --     31.9721                31.9721                31.9721
 Frc consts  --      5.4150                 7.4701                 9.4354
 IR Inten    --      8.3397                 2.3864                83.9477

 - Thermochemistry -
 -------------------
 Temperature   298.150 Kelvin.  Pressure   1.00000 Atm.
 Atom     1 has atomic number 16 and mass  31.97207

 Molecular mass:   191.83243 amu.
 Principal axes and moments of inertia in atomic units:
                           1         2         3
     Eigenvalues --  1011.950072334.905663133.51416
           X            1.00000  -0.00000   0.00000
           Y            0.00000   1.00000   0.00000
           Z           -0.00000  -0.00000   1.00000
 This molecule is an asymmetric top.
 Rotational symmetry number  1.
 Warning -- assumption of classical behavior for rotation
           may cause significant error
 Rotational temperatures (Kelvin)      0.08559     0.03710     0.02764
 Rotational constants (GHZ):           1.78343     0.77294     0.57595
 Zero-point vibrational energy      21732.4 (Joules/Mol)
                                    5.19416 (Kcal/Mol)
 Warning -- explicit consideration of  10 degrees of freedom as
           vibrations may cause significant error
 Vibrational temperatures:     85.49    99.48   176.87   226.04   255.97
          (Kelvin)            288.94   379.78   427.26   592.06   771.40
                              906.04  1018.27

 Zero-point correction=                           0.008277 (Hartree/Particle)
 Thermal correction to Energy=                    0.016841
 Thermal correction to Enthalpy=                  0.017785
 Thermal correction to Gibbs Free Energy=        -0.028517
 Sum of electronic and zero-point Energies=          -2389.033981
 Sum of electronic and thermal Energies=             -2389.025418
 Sum of electronic and thermal Enthalpies=           -2389.024473
 Sum of electronic and thermal Free Energies=        -2389.070775

                     E (Thermal)             CV                S
                      KCal/Mol        Cal/Mol-Kelvin    Cal/Mol-Kelvin
 Total                   10.568             25.255             97.451
 Electronic               0.000              0.000              1.377
 Translational            0.889              2.981             41.660
 Rotational               0.889              2.981             30.383
 Vibrational              8.790             19.293             24.031
 Vibration     1          0.597              1.974              4.476
 Vibration     2          0.598              1.969              4.178
 Vibration     3          0.610              1.930              3.054
 Vibration     4          0.621              1.895              2.584
 Vibration     5          0.628              1.870              2.350
 Vibration     6          0.638              1.839              2.126
 Vibration     7          0.671              1.739              1.635
 Vibration     8          0.691              1.679              1.434
 Vibration     9          0.775              1.445              0.921
 Vibration    10          0.891              1.170              0.574

 Normal termination of Gaussian 09 at Mon Oct 24 00:24:40 2016.
