 Gaussian 09, Revision E.01,
 Gaussian 09:  EM64L-G09RevE.01 30-Nov-2015

 ---------------------------------------------
 #p b3lyp/6-311++G(3df,2p) freq symmetry=Loose
 ---------------------------------------------

 ---------
 b3lyp opt
 ---------
 Symbolic Z-matrix:
 Charge =  0 Multiplicity = 1

                         Standard orientation:
 ---------------------------------------------------------------------
 Center     Atomic      Atomic             Coordinates (Angstroms)
 Number     Number       Type             X           Y           Z
 ---------------------------------------------------------------------
      1         16           0       -1.919864    1.149599    0.192366
      2         16           0       -1.922393   -1.147383    0.193789
      3         16           0       -0.117988    1.527938   -0.506998
      4         16           0       -0.120817   -1.528999   -0.507467
      5         16           0        1.157959   -0.000159    0.688834
      6         16           0        2.923103   -0.000997   -0.060523
 ---------------------------------------------------------------------

 SCF Done:  E(RB3LYP) =  -2389.33479137     A.U. after   15 cycles

 The electronic state is 1-A.
 Alpha  occ. eigenvalues --  -88.97205 -88.91590 -88.91576 -88.91506 -88.91503
 Alpha  occ. eigenvalues --  -88.86695  -8.04887  -7.99854  -7.99839  -7.99742
 Alpha  occ. eigenvalues --   -7.99740  -7.95225  -6.01089  -6.00891  -6.00648
 Alpha  occ. eigenvalues --   -5.96155  -5.96141  -5.96080  -5.96076  -5.95911
 Alpha  occ. eigenvalues --   -5.95896  -5.95822  -5.95819  -5.95343  -5.95327
 Alpha  occ. eigenvalues --   -5.95177  -5.95176  -5.91659  -5.90931  -5.90893
 Alpha  occ. eigenvalues --   -0.88845  -0.83702  -0.81578  -0.69756  -0.61882
 Alpha  occ. eigenvalues --   -0.61864  -0.46878  -0.43548  -0.43414  -0.40976
 Alpha  occ. eigenvalues --   -0.37878  -0.37683  -0.35661  -0.32210  -0.29174
 Alpha  occ. eigenvalues --   -0.27838  -0.25572  -0.23688
 Alpha virt. eigenvalues --   -0.12802  -0.12202  -0.09372  -0.07443  -0.03072
 Alpha virt. eigenvalues --   -0.01810   0.00476   0.02345   0.02460   0.03159
 Alpha virt. eigenvalues --    0.04196   0.04767   0.05089   0.05614   0.06011

 Mulliken charges:
               1
     1  S    0.009149
     2  S    0.009355
     3  S   -0.144365
     4  S   -0.144721
     5  S    0.660147
     6  S   -0.389565
 Sum of Mulliken charges =  -0.00000

 Dipole moment (field-independent basis, Debye):
    X=             -1.1090    Y=              0.0044    Z=              0.3755  Tot=              1.1708
 Quadrupole moment (field-independent basis, Debye-Ang):
   XX=            -78.1859   YY=            -77.0123   ZZ=            -78.7845
   XY=             -0.0010   XZ=             -0.6269   YZ=              0.0002

  Exact polarizability: 209.056   0.019 134.336  -0.928   0.008  87.665
 Approx polarizability: 572.082   0.158 325.757  -0.460   0.059 177.343

                      1                      2                      3
                      A                      A                      A
 Frequencies --     89.5680                94.6799               128.7473
 Red. masses --     31.9721                31.9721                31.9721
 Frc consts  --      0.1511                 0.1689                 0.3122
 IR Inten    --      0.0364                 1.0051                 5.2745

                      4                      5                      6
                      A                      A                      A
 Frequencies --    177.2120               200.1249               216.0524
 Red. masses --     31.9721                31.9721                31.9721
 Frc consts  --      0.5916                 0.7544                 0.8793
 IR Inten    --      1.7385                 0.3441                 0.8185

                      7                      8                      9
                      A                      A                      A
 Frequencies --    273.7611               310.9164               336.4123
 Red. masses --     31.9721                31.9721                31.9721
 Frc consts  --      1.4118                 1.8210                 2.1319
 IR Inten    --      3.1761                 1.0785                 3.0074

                     10                     11                     12
                      A                      A                      A
 Frequencies --    563.3971               567.2673               654.5857
 Red. masses --     31.9721                31.9721                31.9721
 Frc consts  --      5.9793                 6.0617                 8.0715
 IR Inten    --     18.6549                19.8183               138.2152

 - Thermochemistry -
 -------------------
 Temperature   298.150 Kelvin.  Pressure   1.00000 Atm.
 Atom     1 has atomic number 16 and mass  31.97207

 Molecular mass:   191.83243 amu.
 Principal axes and moments of inertia in atomic units:
                           1         2         3
     Eigenvalues --   956.527992096.546482809.36159
           X            1.00000  -0.00000   0.00000
           Y            0.00000   1.00000   0.00000
           Z           -0.00000  -0.00000   1.00000
 This molecule is an asymmetric top.
 Rotational symmetry number  1.
 Warning -- assumption of classical behavior for rotation
           may cause significant error
 Rotational temperatures (Kelvin)      0.09055     0.04131     0.03083
 Rotational constants (GHZ):           1.88676     0.86082     0.64240
 Zero-point vibrational energy      21608.9 (Joules/Mol)
                                    5.16465 (Kcal/Mol)
 Warning -- explicit consideration of  11 degrees of freedom as
           vibrations may cause significant error
 Vibrational temperatures:    128.87   136.22   185.24   254.97   287.93
          (Kelvin)            310.85   393.88   447.34   484.02   810.60
                              816.17   941.80

 Zero-point correction=                           0.008230 (Hartree/Particle)
 Thermal correction to Energy=                    0.016667
 Thermal correction to Enthalpy=                  0.017611
 Thermal correction to Gibbs Free Energy=        -0.027050
 Sum of electronic and zero-point Energies=          -2389.326561
 Sum of electronic and thermal Energies=             -2389.318124
 Sum of electronic and thermal Enthalpies=           -2389.317180
 Sum of electronic and thermal Free Energies=        -2389.361842

                     E (Thermal)             CV                S
                      KCal/Mol        Cal/Mol-Kelvin    Cal/Mol-Kelvin
 Total                   10.459             25.431             93.998
 Electronic               0.000              0.000              0.000
 Translational            0.889              2.981             41.660
 Rotational               0.889              2.981             30.111
 Vibrational              8.681             19.469             22.227
 Vibration     1          0.602              1.957              3.669
 Vibration     2          0.603              1.953              3.561
 Vibration     3          0.611              1.924              2.965
 Vibration     4          0.628              1.870              2.358
 Vibration     5          0.638              1.840              2.132
 Vibration     6          0.645              1.817              1.992
 Vibration     7          0.676              1.722              1.572
 Vibration     8          0.700              1.653              1.357
 Vibration     9          0.717              1.603              1.229
 Vibration    10          0.919              1.110              0.517
 Vibration    11          0.923              1.102              0.510

 1\1\GINC-BELVIS20\Freq\RB3LYP\6-311++G(3df,2p)\S6\ROOT\23-Oct-2016\0\\
 #p b3lyp/6-311++G(3df,2p) freq symmetry=Loose\\b3lyp opt\\0,1\S,0.9422
 19,-2.034707,0.129044\S,2.215559,-0.135781,0.349997\S,-0.710418,-1.296
 721,-0.647599\S,0.983935,1.230918,-0.355909\S,-1.011343,0.6009,0.65686
 \S,-2.419952,1.63539,-0.132394\\Version=EM64L-G09RevE.01\State=1-A\HF=
 -2389.3347914\RMSD=4.296e-09\RMSF=1.343e-04\ZeroPoint=0.0082304\Therma
 l=0.0166672\Dipole=0.3501072,-0.2544965,0.1576252\DipoleDeriv=0.082030
 2,0.424914,0.1110401,0.1991902,-0.3477794,-0.0286068,-0.0960428,0.0956

 Normal termination of Gaussian 09 at Sun Oct 23 22:58:38 2016.
