 Gaussian 09, Revision E.01,
 Gaussian 09:  EM64L-G09RevE.01 30-Nov-2015

 ---------------------------------------------
 #p b3lyp/6-311++G(3df,2p) freq symmetry=Loose
 ---------------------------------------------

 ---------
 b3lyp opt
 ---------
 Symbolic Z-matrix:
 Charge =  0 Multiplicity = 1

                         Standard orientation:
 ---------------------------------------------------------------------
 Center     Atomic      Atomic             Coordinates (Angstroms)
 Number     Number       Type             X           Y           Z
 ---------------------------------------------------------------------
      1         16           0        0.000139    1.594572    0.946271
      2         16           0        1.381009   -0.797165   -0.946271
      3         16           0        1.380870   -0.797407    0.946271
      4         16           0       -1.381009   -0.797165    0.946271
      5         16           0       -1.380870   -0.797407   -0.946271
      6         16           0       -0.000139    1.594572   -0.946271
 ---------------------------------------------------------------------

 SCF Done:  E(RB3LYP) =  -2389.34988349     A.U. after    9 cycles

 The electronic state is 1-A1.
 Alpha  occ. eigenvalues --  -88.90488 -88.90488 -88.90488 -88.90488 -88.90488
 Alpha  occ. eigenvalues --  -88.90488  -7.98747  -7.98747  -7.98742  -7.98729
 Alpha  occ. eigenvalues --   -7.98729  -7.98729  -5.94919  -5.94919  -5.94918
 Alpha  occ. eigenvalues --   -5.94837  -5.94837  -5.94837  -5.94655  -5.94655
 Alpha  occ. eigenvalues --   -5.94655  -5.94646  -5.94646  -5.94645  -5.94544
 Alpha  occ. eigenvalues --   -5.94544  -5.94544  -5.94538  -5.94538  -5.94538
 Alpha  occ. eigenvalues --   -0.87076  -0.82299  -0.82299  -0.66092  -0.59875
 Alpha  occ. eigenvalues --   -0.59875  -0.45492  -0.41702  -0.40626  -0.40626
 Alpha  occ. eigenvalues --   -0.38473  -0.38473  -0.30669  -0.29183  -0.29072
 Alpha  occ. eigenvalues --   -0.29072  -0.25582  -0.25582
 Alpha virt. eigenvalues --   -0.13079  -0.11515  -0.11515  -0.05567   0.00161
 Alpha virt. eigenvalues --    0.00161   0.00604   0.02732   0.02732   0.03228
 Alpha virt. eigenvalues --    0.04642   0.04642   0.04783   0.05886   0.07254

 Mulliken charges:
               1
     1  S   -0.000000
     2  S   -0.000000
     3  S   -0.000000
     4  S   -0.000000
     5  S   -0.000000
     6  S   -0.000000
 Sum of Mulliken charges =  -0.00000

 Dipole moment (field-independent basis, Debye):
    X=             -0.0000    Y=             -0.0000    Z=              0.0000  Tot=              0.0000
 Quadrupole moment (field-independent basis, Debye-Ang):
   XX=            -78.7565   YY=            -78.7565   ZZ=            -72.1021
   XY=              0.0000   XZ=             -0.0000   YZ=             -0.0000

  Exact polarizability: 143.948   0.000 143.944   0.000   0.000 120.055
 Approx polarizability: 417.991  -0.000 417.991  -0.000  -0.000 388.371

                      1                      2                      3
                      E                      E                     A2
 Frequencies --     83.6547                83.6547               130.4965
 Red. masses --     31.9721                31.9721                31.9721
 Frc consts  --      0.1318                 0.1318                 0.3208
 IR Inten    --      0.0000                 0.0000                14.0970

                      4                      5                      6
                      E                      E                     A1
 Frequencies --    189.5433               189.5433               244.6819
 Red. masses --     31.9721                31.9721                31.9721
 Frc consts  --      0.6768                 0.6768                 1.1278
 IR Inten    --      0.5109                 0.5110                 0.0000

                      7                      8                      9
                     A1                      E                      E
 Frequencies --    264.1252               294.4423               294.4423
 Red. masses --     31.9721                31.9721                31.9721
 Frc consts  --      1.3141                 1.6331                 1.6331
 IR Inten    --      0.0000                 0.0000                 0.0000

                     10                     11                     12
                      E                      E                     A1
 Frequencies --    679.6736               679.6736               727.7784
 Red. masses --     31.9721                31.9721                31.9721
 Frc consts  --      8.7021                 8.7021                 9.9774
 IR Inten    --     90.5265                90.5274                 0.0000

 - Thermochemistry -
 -------------------
 Temperature   298.150 Kelvin.  Pressure   1.00000 Atm.
 Atom     1 has atomic number 16 and mass  31.97207

 Molecular mass:   191.83243 amu.
 Principal axes and moments of inertia in atomic units:
                           1         2         3
     Eigenvalues --  1484.329791484.329791741.83886
           X           -0.16271   0.98667   0.00000
           Y            0.98667   0.16271   0.00000
           Z           -0.00000  -0.00000   1.00000
 This molecule is an oblate symmetric top.
 Rotational symmetry number  6.
 Warning -- assumption of classical behavior for rotation
           may cause significant error
 Rotational temperatures (Kelvin)      0.05835     0.05835     0.04973
 Rotational constants (GHZ):           1.21586     1.21586     1.03611
 Zero-point vibrational energy      23098.2 (Joules/Mol)
                                    5.52059 (Kcal/Mol)
 Warning -- explicit consideration of   9 degrees of freedom as
           vibrations may cause significant error
 Vibrational temperatures:    120.36   120.36   187.76   272.71   272.71
          (Kelvin)            352.04   380.02   423.64   423.64   977.90
                              977.90  1047.11

 Zero-point correction=                           0.008798 (Hartree/Particle)
 Thermal correction to Energy=                    0.017155
 Thermal correction to Enthalpy=                  0.018099
 Thermal correction to Gibbs Free Energy=        -0.024699
 Sum of electronic and zero-point Energies=          -2389.341086
 Sum of electronic and thermal Energies=             -2389.332729
 Sum of electronic and thermal Enthalpies=           -2389.331784
 Sum of electronic and thermal Free Energies=        -2389.374582

                     E (Thermal)             CV                S
                      KCal/Mol        Cal/Mol-Kelvin    Cal/Mol-Kelvin
 Total                   10.765             24.907             90.076
 Electronic               0.000              0.000              0.000
 Translational            0.889              2.981             41.660
 Rotational               0.889              2.981             26.169
 Vibrational              8.987             18.945             22.246
 Vibration     1          0.601              1.960              3.803
 Vibration     2          0.601              1.960              3.803
 Vibration     3          0.612              1.923              2.939
 Vibration     4          0.633              1.854              2.232
 Vibration     5          0.633              1.854              2.232
 Vibration     6          0.660              1.772              1.769
 Vibration     7          0.671              1.739              1.634
 Vibration     8          0.689              1.684              1.448
 Vibration     9          0.689              1.684              1.448

 Optimization completed.
    -- Stationary point found.

 1\1\GINC-BELVIS17\Freq\RB3LYP\6-311++G(3df,2p)\S6\ROOT\24-Oct-2016\0\\
 #p b3lyp/6-311++G(3df,2p) freq symmetry=Loose\\b3lyp opt\\0,1\S,-0.330
 46563,0.403515529,-0.78752675\S,-0.6089880914,0.0020954471,2.524604583
 2\S,-0.3225871342,-1.4089975093,1.2963909413\S,2.0378209979,-0.2254287
 992,0.4866890907\S,1.7516596125,1.1854179474,1.7152413725\S,-0.6163897
 549,1.8146643849,0.4407337644\\Version=EM64L-G09RevE.01\State=1-A1\HF=
 -2389.3498835\RMSD=5.365e-09\RMSF=7.326e-05\ZeroPoint=0.0087976\Therma
 l=0.0171549\Dipole=0.,0.,0.\DipoleDeriv=0.1165867,-0.1525939,-0.009996

 Normal termination of Gaussian 09 at Mon Oct 24 01:24:59 2016.
