 Gaussian 09, Revision E.01,
 Gaussian 09:  EM64L-G09RevE.01 30-Nov-2015

 ---------------------------------------------
 #p b3lyp/6-311++G(3df,2p) freq symmetry=Loose
 ---------------------------------------------

 ---------
 b3lyp opt
 ---------
 Symbolic Z-matrix:
 Charge =  1 Multiplicity = 2

                         Standard orientation:
 ---------------------------------------------------------------------
 Center     Atomic      Atomic             Coordinates (Angstroms)
 Number     Number       Type             X           Y           Z
 ---------------------------------------------------------------------
      1         16           0       -2.314108    0.894941   -0.134522
      2         16           0        2.311926   -0.896383   -0.131111
      3         16           0       -0.299382    0.943242    0.815806
      4         16           0        0.298175   -0.936946    0.819867
      5         16           0       -2.823626   -0.835099   -0.683943
      6         16           0        2.827016    0.830245   -0.686096
 ---------------------------------------------------------------------

 SCF Done:  E(UB3LYP) =  -2389.03881627     A.U. after   21 cycles

 The electronic state is 2-A.
 Alpha  occ. eigenvalues --  -89.12496 -89.12489 -89.10116 -89.10110 -89.07334
 Alpha  occ. eigenvalues --  -89.07331  -8.20431  -8.20423  -8.18322  -8.18312
 Alpha  occ. eigenvalues --   -8.15659  -8.15656  -6.16665  -6.16657  -6.16395
 Alpha  occ. eigenvalues --   -6.16388  -6.16252  -6.16245  -6.14636  -6.14597
 Alpha  occ. eigenvalues --   -6.14281  -6.14269  -6.13824  -6.13817  -6.12016
 Alpha  occ. eigenvalues --   -6.12013  -6.11853  -6.11850  -6.11172  -6.11169
 Alpha  occ. eigenvalues --   -1.05935  -1.03781  -0.99475  -0.87673  -0.81680
 Alpha  occ. eigenvalues --   -0.76370  -0.63641  -0.62227  -0.58622  -0.57693
 Alpha  occ. eigenvalues --   -0.56368  -0.56026  -0.54496  -0.49857  -0.46251
 Alpha  occ. eigenvalues --   -0.45200  -0.44475  -0.40674
 Alpha virt. eigenvalues --   -0.35836  -0.28232  -0.24796  -0.24259  -0.17906
 Alpha virt. eigenvalues --   -0.14984  -0.13876  -0.11300  -0.09766  -0.09488
 Alpha virt. eigenvalues --   -0.09083  -0.08691  -0.08464  -0.06767  -0.06751

  Beta  occ. eigenvalues --  -89.12348 -89.12340 -89.10244 -89.10238 -89.07024
  Beta  occ. eigenvalues --  -89.07020  -8.20297  -8.20289  -8.18437  -8.18427
  Beta  occ. eigenvalues --   -8.15379  -8.15376  -6.16617  -6.16609  -6.16220
  Beta  occ. eigenvalues --   -6.16213  -6.15852  -6.15844  -6.14708  -6.14671
  Beta  occ. eigenvalues --   -6.14401  -6.14388  -6.14165  -6.14159  -6.11685
  Beta  occ. eigenvalues --   -6.11682  -6.11118  -6.11114  -6.10926  -6.10923
  Beta  occ. eigenvalues --   -1.05758  -1.02983  -0.99245  -0.87392  -0.79947
  Beta  occ. eigenvalues --   -0.75544  -0.63266  -0.62281  -0.58478  -0.57034
  Beta  occ. eigenvalues --   -0.55157  -0.54082  -0.53813  -0.49330  -0.46126
  Beta  occ. eigenvalues --   -0.44886  -0.43866
  Beta virt. eigenvalues --   -0.32932  -0.32783  -0.27983  -0.24714  -0.24293
  Beta virt. eigenvalues --   -0.17471  -0.14659  -0.13803  -0.11196  -0.09725
  Beta virt. eigenvalues --   -0.09432  -0.09046  -0.08681  -0.08419  -0.06690

 Mulliken charges and spin densities:
               1          2
     1  S    0.180005   0.207620
     2  S    0.178204   0.207136
     3  S    0.182196  -0.169015
     4  S    0.187001  -0.168961
     5  S    0.135775   0.461866
     6  S    0.136820   0.461354
 Sum of Mulliken charges =   1.00000   1.00000

 Dipole moment (field-independent basis, Debye):
    X=              0.0020    Y=             -0.0001    Z=             -0.2400  Tot=              0.2400
 Quadrupole moment (field-independent basis, Debye-Ang):
   XX=            -45.6781   YY=            -63.5881   ZZ=            -69.8444
   XY=             -0.5029   XZ=             -0.0009   YZ=             -0.0063

  Exact polarizability: 307.770   6.157 111.794  -0.011   0.001  89.382
 Approx polarizability: 782.281  30.920 305.828  -0.163  -0.017 203.830

                      1                      2                      3
                      A                      A                      A
 Frequencies --     20.8257                63.4024                78.0030
 Red. masses --     31.9721                31.9721                31.9721
 Frc consts  --      0.0082                 0.0757                 0.1146
 IR Inten    --      0.0805                 0.3461                 0.0478

                      4                      5                      6
                      A                      A                      A
 Frequencies --     95.2696               113.3355               190.1502
 Red. masses --     31.9721                31.9721                31.9721
 Frc consts  --      0.1710                 0.2420                 0.6811
 IR Inten    --      1.0726                 0.7158                15.4528

                      7                      8                      9
                      A                      A                      A
 Frequencies --    252.0130               293.4255               302.4422
 Red. masses --     31.9721                31.9721                31.9721
 Frc consts  --      1.1964                 1.6219                 1.7231
 IR Inten    --      2.0554                 0.3863                 5.4867

                     10                     11                     12
                      A                      A                      A
 Frequencies --    552.9659               675.6582               688.9005
 Red. masses --     31.9721                31.9721                31.9721
 Frc consts  --      5.7599                 8.5995                 8.9399
 IR Inten    --      0.4944               254.9257                 9.9832

 - Thermochemistry -
 -------------------
 Temperature   298.150 Kelvin.  Pressure   1.00000 Atm.
 Atom     1 has atomic number 16 and mass  31.97207

 Molecular mass:   191.83243 amu.
 Principal axes and moments of inertia in atomic units:
                           1         2         3
     Eigenvalues --   807.236073328.756893608.16199
           X            1.00000   0.00000   0.00000
           Y           -0.00000   1.00000   0.00000
           Z           -0.00000  -0.00000   1.00000
 This molecule is an asymmetric top.
 Rotational symmetry number  1.
 Warning -- assumption of classical behavior for rotation
           may cause significant error
 Rotational temperatures (Kelvin)      0.10730     0.02602     0.02400
 Rotational constants (GHZ):           2.23570     0.54217     0.50018
 Zero-point vibrational energy      19896.2 (Joules/Mol)
                                    4.75532 (Kcal/Mol)
 Warning -- explicit consideration of  10 degrees of freedom as
           vibrations may cause significant error
 Vibrational temperatures:     29.96    91.22   112.23   137.07   163.06
          (Kelvin)            273.58   362.59   422.17   435.15   795.59
                              972.12   991.17

 Zero-point correction=                           0.007578 (Hartree/Particle)
 Thermal correction to Energy=                    0.016679
 Thermal correction to Enthalpy=                  0.017624
 Thermal correction to Gibbs Free Energy=        -0.031450
 Sum of electronic and zero-point Energies=          -2389.031238
 Sum of electronic and thermal Energies=             -2389.022137
 Sum of electronic and thermal Enthalpies=           -2389.021193
 Sum of electronic and thermal Free Energies=        -2389.070267

                     E (Thermal)             CV                S
                      KCal/Mol        Cal/Mol-Kelvin    Cal/Mol-Kelvin
 Total                   10.466             25.602            103.285
 Electronic               0.000              0.000              1.377
 Translational            0.889              2.981             41.660
 Rotational               0.889              2.981             30.651
 Vibrational              8.689             19.640             29.597
 Vibration     1          0.593              1.986              6.554
 Vibration     2          0.597              1.972              4.348
 Vibration     3          0.599              1.964              3.941
 Vibration     4          0.603              1.953              3.549
 Vibration     5          0.607              1.938              3.211
 Vibration     6          0.633              1.853              2.226
 Vibration     7          0.664              1.759              1.716
 Vibration     8          0.688              1.686              1.454
 Vibration     9          0.694              1.669              1.403
 Vibration    10          0.908              1.133              0.538

 Normal termination of Gaussian 09 at Mon Oct 24 00:22:02 2016.
