 Gaussian 09, Revision E.01,
 Gaussian 09:  EM64L-G09RevE.01 30-Nov-2015

 ---------------------------------------------
 #p b3lyp/6-311++G(3df,2p) freq symmetry=Loose
 ---------------------------------------------

 ---------
 b3lyp opt
 ---------
 Symbolic Z-matrix:
 Charge =  0 Multiplicity = 1

                         Standard orientation:
 ---------------------------------------------------------------------
 Center     Atomic      Atomic             Coordinates (Angstroms)
 Number     Number       Type             X           Y           Z
 ---------------------------------------------------------------------
      1         16           0       -2.085489   -1.386422    0.000000
      2         16           0        2.085193    1.386436   -0.000000
      3         16           0        0.000110   -1.008800    0.000000
      4         16           0        0.000000    1.008460   -0.000000
      5         16           0       -3.095738    0.274941    0.000000
      6         16           0        3.095924   -0.274614   -0.000000
 ---------------------------------------------------------------------

 SCF Done:  E(RB3LYP) =  -2389.31133388     A.U. after   15 cycles

 The electronic state is 1-A'.
 Alpha  occ. eigenvalues --  -88.94571 -88.94569 -88.94292 -88.94290 -88.86946
 Alpha  occ. eigenvalues --  -88.86946  -8.02769  -8.02763  -8.02297  -8.02295
 Alpha  occ. eigenvalues --   -7.95397  -7.95396  -5.99089  -5.99060  -5.98733
 Alpha  occ. eigenvalues --   -5.98726  -5.98679  -5.98677  -5.98356  -5.98353
 Alpha  occ. eigenvalues --   -5.98211  -5.98209  -5.97911  -5.97909  -5.91813
 Alpha  occ. eigenvalues --   -5.91813  -5.91196  -5.91196  -5.91005  -5.91005
 Alpha  occ. eigenvalues --   -0.89974  -0.85193  -0.79964  -0.72054  -0.63786
 Alpha  occ. eigenvalues --   -0.58600  -0.47054  -0.46750  -0.41783  -0.39606
 Alpha  occ. eigenvalues --   -0.38551  -0.37556  -0.37196  -0.32935  -0.28871
 Alpha  occ. eigenvalues --   -0.27841  -0.25921  -0.21551
 Alpha virt. eigenvalues --   -0.16768  -0.11796  -0.10152  -0.05680  -0.02117
 Alpha virt. eigenvalues --   -0.00193   0.00128   0.01480   0.02847   0.03132
 Alpha virt. eigenvalues --    0.03314   0.03693   0.05296   0.05621   0.05863

 Mulliken charges:
               1
     1  S    0.053511
     2  S    0.053542
     3  S    0.110947
     4  S    0.111048
     5  S   -0.164555
     6  S   -0.164494
 Sum of Mulliken charges =  -0.00000

 Dipole moment (field-independent basis, Debye):
    X=              0.0004    Y=              0.0001    Z=             -0.0000  Tot=              0.0004
 Quadrupole moment (field-independent basis, Debye-Ang):
   XX=            -86.2073   YY=            -72.1386   ZZ=            -79.6786
   XY=              1.6706   XZ=              0.0000   YZ=              0.0000

  Exact polarizability: 329.973  25.190 124.738   0.000  -0.000  80.015
 Approx polarizability:1715.469 214.846 350.980  -0.000  -0.000 141.620

                      1                      2                      3
                     A"                     A'                     A'
 Frequencies --     34.3830                71.8978                94.2527
 Red. masses --     31.9721                31.9721                31.9721
 Frc consts  --      0.0223                 0.0974                 0.1673
 IR Inten    --      0.8198                 0.7429                 0.0000

                      4                      5                      6
                     A"                     A"                     A'
 Frequencies --    115.0542               116.5830               210.0695
 Red. masses --     31.9721                31.9721                31.9721
 Frc consts  --      0.2494                 0.2560                 0.8313
 IR Inten    --      0.0005                 0.6274                 2.1140

                      7                      8                      9
                     A'                     A'                     A'
 Frequencies --    296.3162               389.7564               405.9912
 Red. masses --     31.9721                31.9721                31.9721
 Frc consts  --      1.6540                 2.8616                 3.1049
 IR Inten    --      0.0000                 0.0012                15.9852

                     10                     11                     12
                     A'                     A'                     A'
 Frequencies --    532.7294               600.6823               614.5924
 Red. masses --     31.9721                31.9721                31.9721
 Frc consts  --      5.3461                 6.7969                 7.1153
 IR Inten    --      0.0000               273.8073                 0.0001

 - Thermochemistry -
 -------------------
 Temperature   298.150 Kelvin.  Pressure   1.00000 Atm.
 Atom     1 has atomic number 16 and mass  31.97207

 Molecular mass:   191.83243 amu.
 Principal axes and moments of inertia in atomic units:
                           1         2         3
     Eigenvalues --   604.242743265.775323870.01806
           X            0.98405  -0.17790   0.00000
           Y            0.17790   0.98405   0.00000
           Z            0.00000  -0.00000   1.00000
 This molecule is an asymmetric top.
 Rotational symmetry number  1.
 Warning -- assumption of classical behavior for rotation
           may cause significant error
 Rotational temperatures (Kelvin)      0.14334     0.02652     0.02238
 Rotational constants (GHZ):           2.98678     0.55262     0.46634
 Zero-point vibrational energy      20828.8 (Joules/Mol)
                                    4.97821 (Kcal/Mol)
 Warning -- explicit consideration of  12 degrees of freedom as
           vibrations may cause significant error
 Vibrational temperatures:     49.47   103.44   135.61   165.54   167.74
          (Kelvin)            302.24   426.33   560.77   584.13   766.48
                              864.25   884.26

 Zero-point correction=                           0.007933 (Hartree/Particle)
 Thermal correction to Energy=                    0.016685
 Thermal correction to Enthalpy=                  0.017629
 Thermal correction to Gibbs Free Energy=        -0.029181
 Sum of electronic and zero-point Energies=          -2389.303401
 Sum of electronic and thermal Energies=             -2389.294649
 Sum of electronic and thermal Enthalpies=           -2389.293705
 Sum of electronic and thermal Free Energies=        -2389.340514

                     E (Thermal)             CV                S
                      KCal/Mol        Cal/Mol-Kelvin    Cal/Mol-Kelvin
 Total                   10.470             25.402             98.519
 Electronic               0.000              0.000              0.000
 Translational            0.889              2.981             41.660
 Rotational               0.889              2.981             30.414
 Vibrational              8.692             19.440             26.445
 Vibration     1          0.594              1.983              5.559
 Vibration     2          0.598              1.967              4.101
 Vibration     3          0.603              1.953              3.570
 Vibration     4          0.608              1.937              3.182
 Vibration     5          0.608              1.936              3.156
 Vibration     6          0.642              1.825              2.043
 Vibration     7          0.690              1.681              1.438
 Vibration     8          0.758              1.492              1.001
 Vibration     9          0.771              1.457              0.941
 Vibration    10          0.888              1.178              0.581
 Vibration    11          0.959              1.030              0.448
 Vibration    12          0.974              1.001              0.425

 1\1\GINC-BELVIS17\Freq\RB3LYP\6-311++G(3df,2p)\S6\ROOT\24-Oct-2016\0\\
 #p b3lyp/6-311++G(3df,2p) freq symmetry=Loose\\b3lyp opt\\0,1\S,-1.318
 96473,0.7301591129,0.6111807699\S,3.437445268,-0.7301868972,1.18327376
 49\S,0.729811,0.531713,0.105751\S,1.38892863,-0.5315544229,1.688270386
 \S,-1.70868588,-0.1458072769,2.3027871131\S,3.827713711,0.1456144851,-
 0.5082720349\\Version=EM64L-G09RevE.01\State=1-A'\HF=-2389.3113339\RMS
 D=8.083e-09\RMSF=5.555e-05\ZeroPoint=0.0079333\Thermal=0.0166846\Dipol
 e=0.0001594,-0.000018,-0.0000348\DipoleDeriv=-0.0171824,0.0829163,-0.1

 Normal termination of Gaussian 09 at Mon Oct 24 01:28:28 2016.
