 Gaussian 09, Revision E.01,
 Gaussian 09:  EM64L-G09RevE.01 30-Nov-2015

 ---------------------------------------------
 #p b3lyp/6-311++G(3df,2p) freq symmetry=Loose
 ---------------------------------------------

 ---------
 b3lyp opt
 ---------
 Symbolic Z-matrix:
 Charge =  1 Multiplicity = 2

                         Standard orientation:
 ---------------------------------------------------------------------
 Center     Atomic      Atomic             Coordinates (Angstroms)
 Number     Number       Type             X           Y           Z
 ---------------------------------------------------------------------
      1         16           0       -0.000000    1.536463    0.853605
      2         16           0        1.539223   -1.074278   -0.426802
      3         16           0        1.539223    1.074278   -0.426802
      4         16           0        0.000000   -1.536463    0.853605
      5         16           0       -1.539223   -1.074278   -0.426802
      6         16           0       -1.539223    1.074278   -0.426802
 ---------------------------------------------------------------------

 SCF Done:  E(UB3LYP) =  -2389.04955014     A.U. after   13 cycles

 The electronic state is 2-A2.
 Alpha  occ. eigenvalues --  -89.11538 -89.11538 -89.11538 -89.11538 -89.11415
 Alpha  occ. eigenvalues --  -89.11415  -8.19637  -8.19635  -8.19634  -8.19634
 Alpha  occ. eigenvalues --   -8.19517  -8.19514  -6.15956  -6.15954  -6.15947
 Alpha  occ. eigenvalues --   -6.15944  -6.15900  -6.15899  -6.15660  -6.15659
 Alpha  occ. eigenvalues --   -6.15653  -6.15652  -6.15591  -6.15590  -6.15311
 Alpha  occ. eigenvalues --   -6.15310  -6.15310  -6.15310  -6.14901  -6.14901
 Alpha  occ. eigenvalues --   -1.08618  -1.02347  -1.00474  -0.88739  -0.87842
 Alpha  occ. eigenvalues --   -0.77048  -0.67221  -0.63731  -0.62685  -0.57866
 Alpha  occ. eigenvalues --   -0.57134  -0.56778  -0.54400  -0.51965  -0.49547
 Alpha  occ. eigenvalues --   -0.46878  -0.44798  -0.43419
 Alpha virt. eigenvalues --   -0.28559  -0.28555  -0.27506  -0.24151  -0.21115
 Alpha virt. eigenvalues --   -0.20993  -0.13052  -0.11098  -0.10971  -0.10610
 Alpha virt. eigenvalues --   -0.10372  -0.09371  -0.09282  -0.07642  -0.06618

  Beta  occ. eigenvalues --  -89.11428 -89.11428 -89.11341 -89.11341 -89.11341
  Beta  occ. eigenvalues --  -89.11341  -8.19530  -8.19526  -8.19460  -8.19458
  Beta  occ. eigenvalues --   -8.19458  -8.19457  -6.15919  -6.15919  -6.15813
  Beta  occ. eigenvalues --   -6.15811  -6.15801  -6.15799  -6.15614  -6.15614
  Beta  occ. eigenvalues --   -6.15508  -6.15508  -6.15503  -6.15502  -6.14916
  Beta  occ. eigenvalues --   -6.14916  -6.14778  -6.14778  -6.14777  -6.14777
  Beta  occ. eigenvalues --   -1.08074  -1.01903  -0.99570  -0.87510  -0.87494
  Beta  occ. eigenvalues --   -0.76151  -0.67042  -0.63288  -0.61760  -0.57450
  Beta  occ. eigenvalues --   -0.56297  -0.56089  -0.53327  -0.49094  -0.49085
  Beta  occ. eigenvalues --   -0.46704  -0.43068
  Beta virt. eigenvalues --   -0.36554  -0.28252  -0.28066  -0.27285  -0.23730
  Beta virt. eigenvalues --   -0.20741  -0.20528  -0.12983  -0.11004  -0.10801
  Beta virt. eigenvalues --   -0.10308  -0.10231  -0.09304  -0.09236  -0.07535

 Mulliken charges and spin densities:
               1          2
     1  S    0.334662  -0.025634
     2  S    0.082669   0.262817
     3  S    0.082669   0.262817
     4  S    0.334662  -0.025634
     5  S    0.082669   0.262817
     6  S    0.082669   0.262817
 Sum of Mulliken charges =   1.00000   1.00000

 Dipole moment (field-independent basis, Debye):
    X=             -0.0000    Y=              0.0000    Z=              0.0748  Tot=              0.0748
 Quadrupole moment (field-independent basis, Debye-Ang):
   XX=            -59.3323   YY=            -61.4290   ZZ=            -69.7284
   XY=              0.0000   XZ=              0.0000   YZ=             -0.0000

  Exact polarizability: 153.008  -0.000 127.160  -0.000   0.000  82.383
 Approx polarizability: 410.445  -0.000 305.694   0.000   0.000 178.529

                      1                      2                      3
                     A2                     B2                     A1
 Frequencies --     73.9502               147.6329               197.4769
 Red. masses --     31.9721                31.9721                31.9721
 Frc consts  --      0.1030                 0.4106                 0.7346
 IR Inten    --      0.0000                 5.8243                 0.3627

                      4                      5                      6
                     A2                     A1                     B1
 Frequencies --    228.4725               230.6674               296.2548
 Red. masses --     31.9721                31.9721                31.9721
 Frc consts  --      0.9833                 1.0023                 1.6533
 IR Inten    --      0.0000                 0.4262                25.3074

                      7                      8                      9
                     B2                     A2                     A1
 Frequencies --    307.9512               409.3977               410.6820
 Red. masses --     31.9721                31.9721                31.9721
 Frc consts  --      1.7864                 3.1573                 3.1771
 IR Inten    --      0.0013                 0.0000                 0.3891

                     10                     11                     12
                     B1                     B2                     A1
 Frequencies --    426.4942               512.6742               516.1056
 Red. masses --     31.9721                31.9721                31.9721
 Frc consts  --      3.4265                 4.9511                 5.0176
 IR Inten    --      1.9532                 0.1933                 0.3116

 - Thermochemistry -
 -------------------
 Temperature   298.150 Kelvin.  Pressure   1.00000 Atm.
 Atom     1 has atomic number 16 and mass  31.97207

 Molecular mass:   191.83243 amu.
 Principal axes and moments of inertia in atomic units:
                           1         2         3
     Eigenvalues --  1315.705661331.587872148.14078
           X            1.00000   0.00000  -0.00000
           Y           -0.00000   1.00000   0.00000
           Z            0.00000  -0.00000   1.00000
 This molecule is an asymmetric top.
 Rotational symmetry number  2.
 Warning -- assumption of classical behavior for rotation
           may cause significant error
 Rotational temperatures (Kelvin)      0.06583     0.06505     0.04032
 Rotational constants (GHZ):           1.37169     1.35533     0.84014
 Zero-point vibrational energy      22476.4 (Joules/Mol)
                                    5.37199 (Kcal/Mol)
 Warning -- explicit consideration of  12 degrees of freedom as
           vibrations may cause significant error
 Vibrational temperatures:    106.40   212.41   284.12   328.72   331.88
          (Kelvin)            426.24   443.07   589.03   590.88   613.63
                              737.62   742.56

 Zero-point correction=                           0.008561 (Hartree/Particle)
 Thermal correction to Energy=                    0.016569
 Thermal correction to Enthalpy=                  0.017514
 Thermal correction to Gibbs Free Energy=        -0.025638
 Sum of electronic and zero-point Energies=          -2389.040989
 Sum of electronic and thermal Energies=             -2389.032981
 Sum of electronic and thermal Enthalpies=           -2389.032037
 Sum of electronic and thermal Free Energies=        -2389.075188

                     E (Thermal)             CV                S
                      KCal/Mol        Cal/Mol-Kelvin    Cal/Mol-Kelvin
 Total                   10.397             25.353             90.820
 Electronic               0.000              0.000              1.377
 Translational            0.889              2.981             41.660
 Rotational               0.889              2.981             28.333
 Vibrational              8.620             19.392             19.450
 Vibration     1          0.599              1.966              4.045
 Vibration     2          0.617              1.905              2.703
 Vibration     3          0.637              1.843              2.156
 Vibration     4          0.651              1.798              1.891
 Vibration     5          0.652              1.794              1.874
 Vibration     6          0.690              1.681              1.438
 Vibration     7          0.698              1.659              1.373
 Vibration     8          0.774              1.450              0.929
 Vibration     9          0.775              1.447              0.924
 Vibration    10          0.788              1.413              0.870
 Vibration    11          0.868              1.222              0.627
 Vibration    12          0.871              1.214              0.619

 Optimization completed.
    -- Stationary point found.
 Normal termination of Gaussian 09 at Mon Oct 24 01:41:33 2016.
