 Gaussian 09, Revision E.01,
 Gaussian 09:  EM64L-G09RevE.01 30-Nov-2015

 ---------------------------------------------
 #p b3lyp/6-311++G(3df,2p) freq symmetry=Loose
 ---------------------------------------------

 ---------
 b3lyp opt
 ---------
 Symbolic Z-matrix:
 Charge =  0 Multiplicity = 3

                         Standard orientation:
 ---------------------------------------------------------------------
 Center     Atomic      Atomic             Coordinates (Angstroms)
 Number     Number       Type             X           Y           Z
 ---------------------------------------------------------------------
      1         16           0        2.552812    0.114718   -0.468190
      2         16           0       -3.298595    0.686425    0.068803
      3         16           0        1.819750    1.720102    0.281502
      4         16           0       -1.772510   -0.176914   -0.743196
      5         16           0       -0.411231   -0.742485    0.896140
      6         16           0        1.109774   -1.601846   -0.035059
 ---------------------------------------------------------------------

 SCF Done:  E(UB3LYP) =  -2389.34056057     A.U. after   18 cycles

 The electronic state is 3-A.
 Alpha  occ. eigenvalues --  -88.93566 -88.93139 -88.92000 -88.91128 -88.88784
 Alpha  occ. eigenvalues --  -88.88384  -8.01625  -8.01237  -8.00211  -7.99404
 Alpha  occ. eigenvalues --   -7.97178  -7.96791  -5.97875  -5.97602  -5.97510
 Alpha  occ. eigenvalues --   -5.97451  -5.97253  -5.97122  -5.96538  -5.96219
 Alpha  occ. eigenvalues --   -5.95736  -5.95731  -5.95415  -5.94916  -5.93499
 Alpha  occ. eigenvalues --   -5.93406  -5.93148  -5.93046  -5.92738  -5.92297
 Alpha  occ. eigenvalues --   -0.87488  -0.84988  -0.81192  -0.69336  -0.64125
 Alpha  occ. eigenvalues --   -0.59872  -0.45888  -0.43598  -0.42067  -0.39793
 Alpha  occ. eigenvalues --   -0.39184  -0.38597  -0.36626  -0.31593  -0.30596
 Alpha  occ. eigenvalues --   -0.27802  -0.27300  -0.24336  -0.24098
 Alpha virt. eigenvalues --   -0.09910  -0.09394  -0.06849  -0.03333  -0.00712
 Alpha virt. eigenvalues --    0.00269   0.01965   0.02592   0.03202   0.04181
 Alpha virt. eigenvalues --    0.04865   0.05050   0.05436   0.05638   0.06666

  Beta  occ. eigenvalues --  -88.93272 -88.92841 -88.91995 -88.91123 -88.88415
  Beta  occ. eigenvalues --  -88.87998  -8.01360  -8.00969  -8.00205  -7.99399
  Beta  occ. eigenvalues --   -7.96845  -7.96443  -5.97676  -5.97346  -5.97259
  Beta  occ. eigenvalues --   -5.96953  -5.96730  -5.96554  -5.96359  -5.96245
  Beta  occ. eigenvalues --   -5.95743  -5.95673  -5.95446  -5.94854  -5.93211
  Beta  occ. eigenvalues --   -5.92838  -5.92504  -5.92369  -5.92046  -5.91980
  Beta  occ. eigenvalues --   -0.86815  -0.83682  -0.80352  -0.68337  -0.61604
  Beta  occ. eigenvalues --   -0.58118  -0.45359  -0.42950  -0.41442  -0.38801
  Beta  occ. eigenvalues --   -0.36724  -0.35396  -0.35134  -0.30290  -0.29215
  Beta  occ. eigenvalues --   -0.26776  -0.25965
  Beta virt. eigenvalues --   -0.15356  -0.15117  -0.09317  -0.08803  -0.06587
  Beta virt. eigenvalues --   -0.02657  -0.00267   0.00388   0.02065   0.02639
  Beta virt. eigenvalues --    0.03319   0.04313   0.04970   0.05221   0.05574

 Mulliken charges and spin densities:
               1          2
     1  S    0.020202   0.414182
     2  S   -0.121735   0.600660
     3  S   -0.082855   0.568988
     4  S    0.013249   0.398205
     5  S    0.256858   0.011530
     6  S   -0.085720   0.006434
 Sum of Mulliken charges =  -0.00000   2.00000

 Dipole moment (field-independent basis, Debye):
    X=              0.6359    Y=             -0.6221    Z=             -0.2988  Tot=              0.9384
 Quadrupole moment (field-independent basis, Debye-Ang):
   XX=            -77.9554   YY=            -77.4447   ZZ=            -77.3990
   XY=             -1.5149   XZ=             -0.9793   YZ=              0.7736

  Exact polarizability: 212.766  -6.735 135.961  -3.833   3.273  94.794
 Approx polarizability: 387.045 -42.815 313.189 -22.949  17.406 191.842

                      1                      2                      3
                      A                      A                      A
 Frequencies --     22.0639                46.4157                71.1847
 Red. masses --     31.9721                31.9721                31.9721
 Frc consts  --      0.0092                 0.0406                 0.0955
 IR Inten    --      0.0554                 0.1257                 0.1428

                      4                      5                      6
                      A                      A                      A
 Frequencies --    114.2338               127.3564               175.4499
 Red. masses --     31.9721                31.9721                31.9721
 Frc consts  --      0.2458                 0.3055                 0.5799
 IR Inten    --      0.4500                 0.2794                 0.7825

                      7                      8                      9
                      A                      A                      A
 Frequencies --    266.7967               286.6146               387.8770
 Red. masses --     31.9721                31.9721                31.9721
 Frc consts  --      1.3409                 1.5475                 2.8341
 IR Inten    --      6.4780                 1.6494                14.6625

                     10                     11                     12
                      A                      A                      A
 Frequencies --    552.2528               634.0905               655.8321
 Red. masses --     31.9721                31.9721                31.9721
 Frc consts  --      5.7451                 7.5740                 8.1023
 IR Inten    --      6.8099                34.0243                30.2903

 - Thermochemistry -
 -------------------
 Temperature   298.150 Kelvin.  Pressure   1.00000 Atm.
 Atom     1 has atomic number 16 and mass  31.97207

 Molecular mass:   191.83243 amu.
 Principal axes and moments of inertia in atomic units:
                           1         2         3
     Eigenvalues --   942.097993072.590143635.67156
           X            1.00000   0.00000   0.00000
           Y           -0.00000   1.00000  -0.00000
           Z           -0.00000   0.00000   1.00000
 This molecule is an asymmetric top.
 Rotational symmetry number  1.
 Warning -- assumption of classical behavior for rotation
           may cause significant error
 Rotational temperatures (Kelvin)      0.09194     0.02819     0.02382
 Rotational constants (GHZ):           1.91566     0.58737     0.49640
 Zero-point vibrational energy      19978.6 (Joules/Mol)
                                    4.77501 (Kcal/Mol)
 Warning -- explicit consideration of  10 degrees of freedom as
           vibrations may cause significant error
 Vibrational temperatures:     31.74    66.78   102.42   164.36   183.24
          (Kelvin)            252.43   383.86   412.37   558.07   794.57
                              912.31   943.59

 Zero-point correction=                           0.007609 (Hartree/Particle)
 Thermal correction to Energy=                    0.016646
 Thermal correction to Enthalpy=                  0.017590
 Thermal correction to Gibbs Free Energy=        -0.031858
 Sum of electronic and zero-point Energies=          -2389.332951
 Sum of electronic and thermal Energies=             -2389.323915
 Sum of electronic and thermal Enthalpies=           -2389.322970
 Sum of electronic and thermal Free Energies=        -2389.372419

                     E (Thermal)             CV                S
                      KCal/Mol        Cal/Mol-Kelvin    Cal/Mol-Kelvin
 Total                   10.446             25.570            104.073
 Electronic               0.000              0.000              2.183
 Translational            0.889              2.981             41.660
 Rotational               0.889              2.981             30.732
 Vibrational              8.668             19.608             29.498
 Vibration     1          0.593              1.985              6.439
 Vibration     2          0.595              1.979              4.965
 Vibration     3          0.598              1.968              4.120
 Vibration     4          0.607              1.938              3.196
 Vibration     5          0.611              1.926              2.986
 Vibration     6          0.627              1.873              2.376
 Vibration     7          0.672              1.734              1.617
 Vibration     8          0.684              1.699              1.494
 Vibration     9          0.756              1.496              1.008
 Vibration    10          0.908              1.135              0.540

 Normal termination of Gaussian 09 at Sun Oct 23 23:50:25 2016.
