 Gaussian 09, Revision E.01,
 Gaussian 09:  EM64L-G09RevE.01 30-Nov-2015

 ---------------------------------------------
 #p b3lyp/6-311++G(3df,2p) freq symmetry=Loose
 ---------------------------------------------

 ---------
 b3lyp opt
 ---------
 Symbolic Z-matrix:
 Charge =  1 Multiplicity = 2

                         Standard orientation:
 ---------------------------------------------------------------------
 Center     Atomic      Atomic             Coordinates (Angstroms)
 Number     Number       Type             X           Y           Z
 ---------------------------------------------------------------------
      1         16           0       -1.744025   -0.383073    0.717730
      2         16           0        1.739290   -0.378512   -0.717983
      3         16           0        1.644331   -1.098262    1.020934
      4         16           0       -0.496036    1.489037    0.842708
      5         16           0       -1.626833   -1.116329   -1.014312
      6         16           0        0.483273    1.487141   -0.849078
 ---------------------------------------------------------------------

 SCF Done:  E(UB3LYP) =  -2389.04297622     A.U. after   19 cycles

 The electronic state is 2-A.
 Alpha  occ. eigenvalues --  -89.13270 -89.13252 -89.10213 -89.10212 -89.08528
 Alpha  occ. eigenvalues --  -89.08513  -8.21215  -8.21199  -8.18408  -8.18397
 Alpha  occ. eigenvalues --   -8.16843  -8.16829  -6.17396  -6.17381  -6.17218
 Alpha  occ. eigenvalues --   -6.17202  -6.17035  -6.17020  -6.14714  -6.14676
 Alpha  occ. eigenvalues --   -6.14406  -6.14385  -6.13925  -6.13923  -6.13170
 Alpha  occ. eigenvalues --   -6.13158  -6.13019  -6.13005  -6.12363  -6.12348
 Alpha  occ. eigenvalues --   -1.06972  -1.04202  -1.00292  -0.87919  -0.82093
 Alpha  occ. eigenvalues --   -0.77340  -0.64941  -0.61000  -0.60819  -0.58694
 Alpha  occ. eigenvalues --   -0.58351  -0.55531  -0.54885  -0.49774  -0.47504
 Alpha  occ. eigenvalues --   -0.45611  -0.45564  -0.42388
 Alpha virt. eigenvalues --   -0.35918  -0.28059  -0.26202  -0.24120  -0.19034
 Alpha virt. eigenvalues --   -0.15841  -0.13902  -0.10443  -0.10207  -0.09607
 Alpha virt. eigenvalues --   -0.09382  -0.08987  -0.08921  -0.07833  -0.06380

  Beta  occ. eigenvalues --  -89.13139 -89.13118 -89.10272 -89.10270 -89.08274
  Beta  occ. eigenvalues --  -89.08257  -8.21095  -8.21077  -8.18460  -8.18449
  Beta  occ. eigenvalues --   -8.16613  -8.16597  -6.17338  -6.17320  -6.17013
  Beta  occ. eigenvalues --   -6.16997  -6.16744  -6.16722  -6.14755  -6.14721
  Beta  occ. eigenvalues --   -6.14455  -6.14432  -6.14082  -6.14079  -6.12885
  Beta  occ. eigenvalues --   -6.12871  -6.12457  -6.12438  -6.12134  -6.12119
  Beta  occ. eigenvalues --   -1.06633  -1.03487  -1.00047  -0.87414  -0.80611
  Beta  occ. eigenvalues --   -0.76526  -0.64652  -0.60857  -0.60532  -0.58019
  Beta  occ. eigenvalues --   -0.56244  -0.55160  -0.53591  -0.49156  -0.47351
  Beta  occ. eigenvalues --   -0.45380  -0.44745
  Beta virt. eigenvalues --   -0.35064  -0.33104  -0.27906  -0.25949  -0.24065
  Beta virt. eigenvalues --   -0.18587  -0.15566  -0.13768  -0.10321  -0.10138
  Beta virt. eigenvalues --   -0.09568  -0.09279  -0.08884  -0.08863  -0.07645

 Mulliken charges and spin densities:
               1          2
     1  S    0.344736   0.187902
     2  S    0.352911   0.184359
     3  S    0.043939   0.392711
     4  S    0.108499  -0.077233
     5  S    0.048603   0.390167
     6  S    0.101312  -0.077907
 Sum of Mulliken charges =   1.00000   1.00000

 Dipole moment (field-independent basis, Debye):
    X=             -0.0006    Y=             -0.1791    Z=              0.0009  Tot=              0.1791
 Quadrupole moment (field-independent basis, Debye-Ang):
   XX=            -58.3541   YY=            -65.1168   ZZ=            -64.1782
   XY=             -0.0007   XZ=             -1.5015   YZ=              0.0069

  Exact polarizability: 170.288   0.030 123.854   6.041   0.021 107.421
 Approx polarizability: 441.019  -0.115 335.565  13.695   0.295 305.777

                      1                      2                      3
                      A                      A                      A
 Frequencies --     47.6244                73.1969                97.9215
 Red. masses --     31.9721                31.9721                31.9721
 Frc consts  --      0.0427                 0.1009                 0.1806
 IR Inten    --      0.0544                 0.0528                 1.1647

                      4                      5                      6
                      A                      A                      A
 Frequencies --    150.6522               163.1154               238.1432
 Red. masses --     31.9721                31.9721                31.9721
 Frc consts  --      0.4275                 0.5012                 1.0683
 IR Inten    --      1.2822                 0.0072                 3.9518

                      7                      8                      9
                      A                      A                      A
 Frequencies --    252.3467               270.6341               314.7595
 Red. masses --     31.9721                31.9721                31.9721
 Frc consts  --      1.1995                 1.3797                 1.8663
 IR Inten    --      3.5824                 1.7893                 0.0476

                     10                     11                     12
                      A                      A                      A
 Frequencies --    576.9584               675.3754               696.3015
 Red. masses --     31.9721                31.9721                31.9721
 Frc consts  --      6.2706                 8.5923                 9.1330
 IR Inten    --      4.2819               117.0282                18.0511

 - Thermochemistry -
 -------------------
 Temperature   298.150 Kelvin.  Pressure   1.00000 Atm.
 Atom     1 has atomic number 16 and mass  31.97207

 Molecular mass:   191.83243 amu.
 Principal axes and moments of inertia in atomic units:
                           1         2         3
     Eigenvalues --  1336.304171875.842022177.07309
           X            1.00000  -0.00000   0.00000
           Y            0.00000   1.00000   0.00000
           Z            0.00000  -0.00000   1.00000
 This molecule is an asymmetric top.
 Rotational symmetry number  1.
 Warning -- assumption of classical behavior for rotation
           may cause significant error
 Rotational temperatures (Kelvin)      0.06482     0.04617     0.03978
 Rotational constants (GHZ):           1.35055     0.96210     0.82898
 Zero-point vibrational energy      21275.8 (Joules/Mol)
                                    5.08503 (Kcal/Mol)
 Warning -- explicit consideration of  10 degrees of freedom as
           vibrations may cause significant error
 Vibrational temperatures:     68.52   105.31   140.89   216.75   234.69
          (Kelvin)            342.63   363.07   389.38   452.87   830.11
                              971.71  1001.82

 Zero-point correction=                           0.008104 (Hartree/Particle)
 Thermal correction to Energy=                    0.016822
 Thermal correction to Enthalpy=                  0.017766
 Thermal correction to Gibbs Free Energy=        -0.028972
 Sum of electronic and zero-point Energies=          -2389.034873
 Sum of electronic and thermal Energies=             -2389.026155
 Sum of electronic and thermal Enthalpies=           -2389.025210
 Sum of electronic and thermal Free Energies=        -2389.071948

                     E (Thermal)             CV                S
                      KCal/Mol        Cal/Mol-Kelvin    Cal/Mol-Kelvin
 Total                   10.556             25.355             98.367
 Electronic               0.000              0.000              1.377
 Translational            0.889              2.981             41.660
 Rotational               0.889              2.981             30.080
 Vibrational              8.778             19.394             25.250
 Vibration     1          0.595              1.978              4.914
 Vibration     2          0.599              1.967              4.065
 Vibration     3          0.603              1.951              3.495
 Vibration     4          0.618              1.902              2.664
 Vibration     5          0.623              1.888              2.513
 Vibration     6          0.656              1.782              1.817
 Vibration     7          0.664              1.759              1.714
 Vibration     8          0.674              1.727              1.592
 Vibration     9          0.702              1.645              1.337
 Vibration    10          0.933              1.081              0.491

 Normal termination of Gaussian 09 at Mon Oct 24 00:42:28 2016.
