 Gaussian 09, Revision E.01,
 Gaussian 09:  EM64L-G09RevE.01 30-Nov-2015

 ---------------------------------------------
 #p b3lyp/6-311++G(3df,2p) freq symmetry=Loose
 ---------------------------------------------

 ---------
 b3lyp opt
 ---------
 Symbolic Z-matrix:
 Charge =  0 Multiplicity = 1

                         Standard orientation:
 ---------------------------------------------------------------------
 Center     Atomic      Atomic             Coordinates (Angstroms)
 Number     Number       Type             X           Y           Z
 ---------------------------------------------------------------------
      1         16           0       -0.000000    1.603159   -0.536908
      2         16           0       -0.000000   -1.603159   -0.536908
      3         16           0       -1.521597    0.000000   -0.572936
      4         16           0       -0.000000    2.580645    1.109844
      5         16           0        1.521597   -0.000000   -0.572936
      6         16           0       -0.000000   -2.580645    1.109844
 ---------------------------------------------------------------------

 SCF Done:  E(RB3LYP) =  -2389.30126092     A.U. after   14 cycles

 The electronic state is 1-A1.
 Alpha  occ. eigenvalues --  -88.99246 -88.99246 -88.90538 -88.90538 -88.87017
 Alpha  occ. eigenvalues --  -88.87017  -8.06713  -8.06712  -7.98935  -7.98933
 Alpha  occ. eigenvalues --   -7.95591  -7.95590  -6.02909  -6.02909  -6.02864
 Alpha  occ. eigenvalues --   -6.02864  -6.02381  -6.02381  -5.95287  -5.95287
 Alpha  occ. eigenvalues --   -5.95013  -5.95013  -5.94315  -5.94315  -5.91986
 Alpha  occ. eigenvalues --   -5.91986  -5.91398  -5.91398  -5.91183  -5.91183
 Alpha  occ. eigenvalues --   -0.90854  -0.86433  -0.75697  -0.73779  -0.65729
 Alpha  occ. eigenvalues --   -0.58670  -0.48537  -0.45275  -0.43709  -0.43188
 Alpha  occ. eigenvalues --   -0.39343  -0.38463  -0.30687  -0.28846  -0.28186
 Alpha  occ. eigenvalues --   -0.27967  -0.27706  -0.25486
 Alpha virt. eigenvalues --   -0.14897  -0.13842  -0.08449  -0.08198  -0.03046
 Alpha virt. eigenvalues --   -0.02022  -0.00118   0.02049   0.02745   0.02793
 Alpha virt. eigenvalues --    0.03625   0.04722   0.04952   0.05570   0.06180

 Mulliken charges:
               1
     1  S    0.645385
     2  S    0.645385
     3  S   -0.263266
     4  S   -0.382119
     5  S   -0.263266
     6  S   -0.382119
 Sum of Mulliken charges =  -0.00000

 Dipole moment (field-independent basis, Debye):
    X=              0.0000    Y=              0.0000    Z=             -1.3121  Tot=              1.3121
 Quadrupole moment (field-independent basis, Debye-Ang):
   XX=            -77.1048   YY=            -79.5046   ZZ=            -79.0460
   XY=             -0.0000   XZ=             -0.0000   YZ=             -0.0000

  Exact polarizability: 117.137   0.000 204.176   0.000  -0.000 113.795
 Approx polarizability: 266.178  -0.000 464.839  -0.000   0.000 276.470

                      1                      2                      3
                     A1                     A2                     B1
 Frequencies --     43.5700               120.3864               138.3731
 Red. masses --     31.9721                31.9721                31.9721
 Frc consts  --      0.0358                 0.2730                 0.3607
 IR Inten    --      0.0627                 0.0000                 0.6694

                      4                      5                      6
                     A1                     B2                     A2
 Frequencies --    171.0207               201.3132               278.2355
 Red. masses --     31.9721                31.9721                31.9721
 Frc consts  --      0.5510                 0.7634                 1.4583
 IR Inten    --      0.1451                 7.5658                 0.0000

                      7                      8                      9
                     A1                     B2                     A1
 Frequencies --    291.0275               354.8677               378.5249
 Red. masses --     31.9721                31.9721                31.9721
 Frc consts  --      1.5955                 2.3722                 2.6990
 IR Inten    --      1.5709               177.3453                 6.1915

                     10                     11                     12
                     B1                     B2                     A1
 Frequencies --    382.7597               641.2183               654.6429
 Red. masses --     31.9721                31.9721                31.9721
 Frc consts  --      2.7598                 7.7452                 8.0729
 IR Inten    --     12.6725               220.1053                55.1023

 - Thermochemistry -
 -------------------
 Temperature   298.150 Kelvin.  Pressure   1.00000 Atm.
 Atom     1 has atomic number 16 and mass  31.97207

 Molecular mass:   191.83243 amu.
 Principal axes and moments of inertia in atomic units:
                           1         2         3
     Eigenvalues --   950.738112529.675712636.31001
           X           -0.00000   1.00000   0.00000
           Y            1.00000  -0.00000   0.00000
           Z           -0.00000  -0.00000   1.00000
 This molecule is an asymmetric top.
 Rotational symmetry number  2.
 Warning -- assumption of classical behavior for rotation
           may cause significant error
 Rotational temperatures (Kelvin)      0.09110     0.03424     0.03285
 Rotational constants (GHZ):           1.89825     0.71343     0.68457
 Zero-point vibrational energy      21867.4 (Joules/Mol)
                                    5.22643 (Kcal/Mol)
 Warning -- explicit consideration of  10 degrees of freedom as
           vibrations may cause significant error
 Vibrational temperatures:     62.69   173.21   199.09   246.06   289.64
          (Kelvin)            400.32   418.72   510.57   544.61   550.71
                              922.57   941.88

 Zero-point correction=                           0.008329 (Hartree/Particle)
 Thermal correction to Energy=                    0.016700
 Thermal correction to Enthalpy=                  0.017644
 Thermal correction to Gibbs Free Energy=        -0.026565
 Sum of electronic and zero-point Energies=          -2389.292932
 Sum of electronic and thermal Energies=             -2389.284561
 Sum of electronic and thermal Enthalpies=           -2389.283617
 Sum of electronic and thermal Free Energies=        -2389.327826

                     E (Thermal)             CV                S
                      KCal/Mol        Cal/Mol-Kelvin    Cal/Mol-Kelvin
 Total                   10.479             25.362             93.046
 Electronic               0.000              0.000              0.000
 Translational            0.889              2.981             41.660
 Rotational               0.889              2.981             28.851
 Vibrational              8.702             19.400             22.534
 Vibration     1          0.595              1.980              5.090
 Vibration     2          0.609              1.932              3.094
 Vibration     3          0.614              1.915              2.826
 Vibration     4          0.626              1.878              2.424
 Vibration     5          0.638              1.838              2.121
 Vibration     6          0.679              1.714              1.544
 Vibration     7          0.687              1.690              1.468
 Vibration     8          0.731              1.565              1.145
 Vibration     9          0.749              1.516              1.045
 Vibration    10          0.752              1.507              1.028

 1\1\GINC-BELVIS17\Freq\RB3LYP\6-311++G(3df,2p)\S6\ROOT\24-Oct-2016\0\\
 #p b3lyp/6-311++G(3df,2p) freq symmetry=Loose\\b3lyp opt\\0,1\S,-0.321
 0589741,-0.600682835,-0.3101297839\S,1.9262378105,0.116490506,1.861457
 1247\S,-0.2492170741,-0.275783978,1.8752656899\S,-1.2699523453,0.78570
 6027,-1.2292590768\S,1.8659377135,-0.2786380535,-0.3126889656\S,2.3475
 78871,1.94015833,2.2664000121\\Version=EM64L-G09RevE.01\State=1-A1\HF=
 -2389.3012609\RMSD=3.614e-09\RMSF=2.883e-05\ZeroPoint=0.0083288\Therma
 l=0.0166999\Dipole=0.0826873,-0.5031366,0.0805923\DipoleDeriv=1.216450

 Normal termination of Gaussian 09 at Mon Oct 24 01:37:09 2016.
