 Gaussian 09, Revision E.01,
 Gaussian 09:  EM64L-G09RevE.01 30-Nov-2015

 ---------------------------------------------
 #p b3lyp/6-311++G(3df,2p) freq symmetry=Loose
 ---------------------------------------------

 ---------
 b3lyp opt
 ---------
 Symbolic Z-matrix:
 Charge =  0 Multiplicity = 1

                         Standard orientation:
 ---------------------------------------------------------------------
 Center     Atomic      Atomic             Coordinates (Angstroms)
 Number     Number       Type             X           Y           Z
 ---------------------------------------------------------------------
      1         16           0        1.990187    0.858734   -0.198064
      2         16           0       -2.670941    0.023410    0.629971
      3         16           0       -1.292364    0.013971   -0.705739
      4         16           0        0.246873   -1.642321   -0.554088
      5         16           0        1.584230   -0.921489    0.820919
      6         16           0        0.142015    1.667696    0.007000
 ---------------------------------------------------------------------

 SCF Done:  E(RB3LYP) =  -2389.34030905     A.U. after   15 cycles

 The electronic state is 1-A.
 Alpha  occ. eigenvalues --  -88.97401 -88.92747 -88.92502 -88.90932 -88.90677
 Alpha  occ. eigenvalues --  -88.86075  -8.05018  -8.00934  -8.00685  -7.99234
 Alpha  occ. eigenvalues --   -7.99001  -7.94628  -6.01195  -6.01145  -6.00708
 Alpha  occ. eigenvalues --   -5.97293  -5.97042  -5.96994  -5.96774  -5.96381
 Alpha  occ. eigenvalues --   -5.96103  -5.95600  -5.95364  -5.95321  -5.95083
 Alpha  occ. eigenvalues --   -5.94613  -5.94387  -5.91052  -5.90406  -5.90227
 Alpha  occ. eigenvalues --   -0.89308  -0.84529  -0.79741  -0.71107  -0.62931
 Alpha  occ. eigenvalues --   -0.61416  -0.45807  -0.45423  -0.43214  -0.41204
 Alpha  occ. eigenvalues --   -0.39670  -0.36954  -0.34892  -0.31162  -0.29090
 Alpha  occ. eigenvalues --   -0.26937  -0.25826  -0.24827
 Alpha virt. eigenvalues --   -0.12089  -0.11114  -0.08252  -0.07538  -0.05159
 Alpha virt. eigenvalues --   -0.01934   0.00146   0.02378   0.02705   0.03168
 Alpha virt. eigenvalues --    0.04543   0.04872   0.05151   0.05451   0.05479

 Mulliken charges:
               1
     1  S    0.045808
     2  S   -0.460148
     3  S    0.770039
     4  S   -0.150543
     5  S   -0.027820
     6  S   -0.177336
 Sum of Mulliken charges =  -0.00000

 Dipole moment (field-independent basis, Debye):
    X=              1.4703    Y=              0.0106    Z=             -0.5087  Tot=              1.5559
 Quadrupole moment (field-independent basis, Debye-Ang):
   XX=            -78.2507   YY=            -76.7173   ZZ=            -78.3527
   XY=              0.2321   XZ=              1.8155   YZ=             -0.1474

  Exact polarizability: 186.139  -0.051 128.985  -5.687   0.505  95.027
 Approx polarizability: 451.324  -1.045 289.821 -21.689   3.128 200.619

                      1                      2                      3
                      A                      A                      A
 Frequencies --     50.9735               133.0495               182.9701
 Red. masses --     31.9721                31.9721                31.9721
 Frc consts  --      0.0489                 0.3335                 0.6306
 IR Inten    --      0.8657                 0.1262                 2.9177

                      4                      5                      6
                      A                      A                      A
 Frequencies --    229.6880               253.7844               262.3122
 Red. masses --     31.9721                31.9721                31.9721
 Frc consts  --      0.9938                 1.2133                 1.2962
 IR Inten    --      0.9290                 7.5662                 6.4585

                      7                      8                      9
                      A                      A                      A
 Frequencies --    275.2543               308.5743               393.9619
 Red. masses --     31.9721                31.9721                31.9721
 Frc consts  --      1.4272                 1.7937                 2.9237
 IR Inten    --      1.8092                11.2638                 1.2097

                     10                     11                     12
                      A                      A                      A
 Frequencies --    478.0979               518.6646               643.8902
 Red. masses --     31.9721                31.9721                31.9721
 Frc consts  --      4.3058                 5.0675                 7.8099
 IR Inten    --      7.3989                 1.9803               136.8773

 - Thermochemistry -
 -------------------
 Temperature   298.150 Kelvin.  Pressure   1.00000 Atm.
 Atom     1 has atomic number 16 and mass  31.97207

 Molecular mass:   191.83243 amu.
 Principal axes and moments of inertia in atomic units:
                           1         2         3
     Eigenvalues --  1025.384811971.905522559.97306
           X            1.00000   0.00000  -0.00000
           Y           -0.00000   1.00000   0.00000
           Z            0.00000  -0.00000   1.00000
 This molecule is an asymmetric top.
 Rotational symmetry number  1.
 Warning -- assumption of classical behavior for rotation
           may cause significant error
 Rotational temperatures (Kelvin)      0.08447     0.04392     0.03383
 Rotational constants (GHZ):           1.76006     0.91523     0.70498
 Zero-point vibrational energy      22317.7 (Joules/Mol)
                                    5.33405 (Kcal/Mol)
 Warning -- explicit consideration of  11 degrees of freedom as
           vibrations may cause significant error
 Vibrational temperatures:     73.34   191.43   263.25   330.47   365.14
          (Kelvin)            377.41   396.03   443.97   566.82   687.88
                              746.24   926.41

 Zero-point correction=                           0.008500 (Hartree/Particle)
 Thermal correction to Energy=                    0.016659
 Thermal correction to Enthalpy=                  0.017603
 Thermal correction to Gibbs Free Energy=        -0.026358
 Sum of electronic and zero-point Energies=          -2389.331809
 Sum of electronic and thermal Energies=             -2389.323650
 Sum of electronic and thermal Enthalpies=           -2389.322706
 Sum of electronic and thermal Free Energies=        -2389.366667

                     E (Thermal)             CV                S
                      KCal/Mol        Cal/Mol-Kelvin    Cal/Mol-Kelvin
 Total                   10.454             25.323             92.524
 Electronic               0.000              0.000              0.000
 Translational            0.889              2.981             41.660
 Rotational               0.889              2.981             30.027
 Vibrational              8.676             19.362             20.837
 Vibration     1          0.595              1.977              4.779
 Vibration     2          0.613              1.920              2.901
 Vibration     3          0.630              1.863              2.298
 Vibration     4          0.652              1.796              1.881
 Vibration     5          0.665              1.756              1.704
 Vibration     6          0.670              1.742              1.646
 Vibration     7          0.677              1.719              1.563
 Vibration     8          0.698              1.657              1.370
 Vibration     9          0.761              1.483              0.985
 Vibration    10          0.835              1.299              0.715
 Vibration    11          0.874              1.209              0.613

 1\1\GINC-BELVIS20\Freq\RB3LYP\6-311++G(3df,2p)\S6\ROOT\23-Oct-2016\0\\
 #p b3lyp/6-311++G(3df,2p) freq symmetry=Loose\\b3lyp opt\\0,1\S,-0.127
 62,-0.494266,-0.937015\S,0.515186,1.246915,3.497465\S,-0.720913,1.1048
 12,2.03577\S,-1.646906,-0.934997,1.693327\S,-0.228752,-1.91958,0.58960
 6\S,0.654224,0.997435,0.192481\\Version=EM64L-G09RevE.01\State=1-A\HF=
 -2389.340309\RMSD=4.841e-09\RMSF=3.315e-05\ZeroPoint=0.0085003\Thermal
 =0.0166589\Dipole=-0.2154379,-0.2325395,-0.5236619\DipoleDeriv=0.05905
 25,0.1231963,0.0767924,0.0498107,0.1506121,-0.2175915,0.1199025,-0.023

 Normal termination of Gaussian 09 at Sun Oct 23 23:15:46 2016.
