 Gaussian 09, Revision E.01,
 Gaussian 09:  EM64L-G09RevE.01 30-Nov-2015

 ---------------------------------------------
 #p b3lyp/6-311++G(3df,2p) freq symmetry=Loose
 ---------------------------------------------

 ---------
 b3lyp opt
 ---------
 Symbolic Z-matrix:
 Charge =  1 Multiplicity = 2

                         Standard orientation:
 ---------------------------------------------------------------------
 Center     Atomic      Atomic             Coordinates (Angstroms)
 Number     Number       Type             X           Y           Z
 ---------------------------------------------------------------------
      1         16           0        0.000000    1.937098    0.359818
      2         16           0       -1.677576   -0.968549    0.359818
      3         16           0        1.677576    0.968549   -0.359818
      4         16           0        1.677576   -0.968549    0.359818
      5         16           0       -1.677576    0.968549   -0.359818
      6         16           0       -0.000000   -1.937098   -0.359818
 ---------------------------------------------------------------------

 SCF Done:  E(UB3LYP) =  -2389.05918784     A.U. after   11 cycles

 The electronic state is 2-A1G.
 Alpha  occ. eigenvalues --  -89.11419 -89.11419 -89.11419 -89.11419 -89.11419
 Alpha  occ. eigenvalues --  -89.11419  -8.19534  -8.19534  -8.19532  -8.19530
 Alpha  occ. eigenvalues --   -8.19530  -8.19526  -6.15833  -6.15825  -6.15825
 Alpha  occ. eigenvalues --   -6.15806  -6.15806  -6.15796  -6.15673  -6.15667
 Alpha  occ. eigenvalues --   -6.15667  -6.15658  -6.15658  -6.15655  -6.15063
 Alpha  occ. eigenvalues --   -6.15063  -6.15063  -6.15063  -6.15063  -6.15063
 Alpha  occ. eigenvalues --   -1.07898  -1.01945  -1.01945  -0.88766  -0.88766
 Alpha  occ. eigenvalues --   -0.76596  -0.68294  -0.61792  -0.60823  -0.60823
 Alpha  occ. eigenvalues --   -0.57491  -0.55725  -0.55725  -0.48472  -0.48472
 Alpha  occ. eigenvalues --   -0.47569  -0.47569  -0.43312
 Alpha virt. eigenvalues --   -0.29196  -0.29196  -0.23885  -0.22358  -0.22358
 Alpha virt. eigenvalues --   -0.21046  -0.13497  -0.11065  -0.11065  -0.10514
 Alpha virt. eigenvalues --   -0.09338  -0.08352  -0.07998  -0.07998  -0.07270

  Beta  occ. eigenvalues --  -89.11303 -89.11303 -89.11303 -89.11303 -89.11303
  Beta  occ. eigenvalues --  -89.11303  -8.19430  -8.19430  -8.19428  -8.19426
  Beta  occ. eigenvalues --   -8.19426  -8.19421  -6.15788  -6.15779  -6.15779
  Beta  occ. eigenvalues --   -6.15761  -6.15761  -6.15751  -6.15507  -6.15502
  Beta  occ. eigenvalues --   -6.15502  -6.15492  -6.15492  -6.15488  -6.14783
  Beta  occ. eigenvalues --   -6.14783  -6.14783  -6.14782  -6.14782  -6.14782
  Beta  occ. eigenvalues --   -1.07372  -1.01373  -1.01373  -0.88096  -0.88096
  Beta  occ. eigenvalues --   -0.75387  -0.68097  -0.61543  -0.59718  -0.59718
  Beta  occ. eigenvalues --   -0.56396  -0.55231  -0.55231  -0.47792  -0.47792
  Beta  occ. eigenvalues --   -0.45681  -0.45681
  Beta virt. eigenvalues --   -0.37424  -0.28851  -0.28851  -0.23330  -0.21808
  Beta virt. eigenvalues --   -0.21808  -0.20987  -0.13345  -0.10906  -0.10906
  Beta virt. eigenvalues --   -0.10365  -0.09213  -0.08337  -0.07887  -0.07887

 Mulliken charges and spin densities:
               1          2
     1  S    0.166667   0.166667
     2  S    0.166667   0.166667
     3  S    0.166667   0.166667
     4  S    0.166667   0.166667
     5  S    0.166667   0.166667
     6  S    0.166667   0.166667
 Sum of Mulliken charges =   1.00000   1.00000

 Dipole moment (field-independent basis, Debye):
    X=              0.0000    Y=              0.0000    Z=             -0.0000  Tot=              0.0000
 Quadrupole moment (field-independent basis, Debye-Ang):
   XX=            -58.3494   YY=            -58.3494   ZZ=            -72.2725
   XY=              0.0000   XZ=              0.0000   YZ=              0.0000

  Exact polarizability: 145.683   0.000 145.691   0.000  -0.001  73.772
 Approx polarizability: 377.339   0.000 377.339   0.000  -0.000 147.066

                      1                      2                      3
                     EU                     EU                     EG
 Frequencies --     63.9185                63.9185               200.6000
 Red. masses --     31.9721                31.9721                31.9721
 Frc consts  --      0.0770                 0.0770                 0.7580
 IR Inten    --      7.7127                 7.7127                 0.0000

                      4                      5                      6
                     EG                     A1G                    A1U
 Frequencies --    200.6000               256.0437               310.9406
 Red. masses --     31.9721                31.9721                31.9721
 Frc consts  --      0.7580                 1.2349                 1.8213
 IR Inten    --      0.0000                 0.0000                 0.0000

                      7                      8                      9
                     A2U                    EG                     EG
 Frequencies --    340.8738               429.2451               429.2451
 Red. masses --     31.9721                31.9721                31.9721
 Frc consts  --      2.1888                 3.4708                 3.4708
 IR Inten    --      2.2786                 0.0000                 0.0000

                     10                     11                     12
                     A1G                    EU                     EU
 Frequencies --    448.8710               449.9224               449.9224
 Red. masses --     31.9721                31.9721                31.9721
 Frc consts  --      3.7955                 3.8133                 3.8133
 IR Inten    --      0.0000                 3.7937                 3.7946

 - Thermochemistry -
 -------------------
 Temperature   298.150 Kelvin.  Pressure   1.00000 Atm.
 Atom     1 has atomic number 16 and mass  31.97207

 Molecular mass:   191.83243 amu.
 Principal axes and moments of inertia in atomic units:
                           1         2         3
     Eigenvalues --  1373.957871373.957872570.53149
           X            0.98896   0.14816   0.00000
           Y           -0.14816   0.98896   0.00000
           Z            0.00000  -0.00000   1.00000
 This molecule is an oblate symmetric top.
 Rotational symmetry number  6.
 Warning -- assumption of classical behavior for rotation
           may cause significant error
 Rotational temperatures (Kelvin)      0.06304     0.06304     0.03369
 Rotational constants (GHZ):           1.31353     1.31353     0.70209
 Zero-point vibrational energy      21796.6 (Joules/Mol)
                                    5.20950 (Kcal/Mol)
 Warning -- explicit consideration of  12 degrees of freedom as
           vibrations may cause significant error
 Vibrational temperatures:     91.96    91.96   288.62   288.62   368.39
          (Kelvin)            447.37   490.44   617.59   617.59   645.82
                              647.34   647.34

 Zero-point correction=                           0.008302 (Hartree/Particle)
 Thermal correction to Energy=                    0.016479
 Thermal correction to Enthalpy=                  0.017423
 Thermal correction to Gibbs Free Energy=        -0.025684
 Sum of electronic and zero-point Energies=          -2389.050886
 Sum of electronic and thermal Energies=             -2389.042709
 Sum of electronic and thermal Enthalpies=           -2389.041765
 Sum of electronic and thermal Free Energies=        -2389.084872

                     E (Thermal)             CV                S
                      KCal/Mol        Cal/Mol-Kelvin    Cal/Mol-Kelvin
 Total                   10.341             25.481             90.727
 Electronic               0.000              0.000              1.377
 Translational            0.889              2.981             41.660
 Rotational               0.889              2.981             26.402
 Vibrational              8.563             19.519             21.287
 Vibration     1          0.597              1.972              4.332
 Vibration     2          0.597              1.972              4.332
 Vibration     3          0.638              1.839              2.128
 Vibration     4          0.638              1.839              2.128
 Vibration     5          0.666              1.753              1.689
 Vibration     6          0.700              1.653              1.357
 Vibration     7          0.720              1.594              1.208
 Vibration     8          0.791              1.407              0.861
 Vibration     9          0.791              1.407              0.861
 Vibration    10          0.808              1.363              0.799
 Vibration    11          0.809              1.361              0.796
 Vibration    12          0.809              1.361              0.796

 Optimization completed.
    -- Stationary point found.
 Normal termination of Gaussian 09 at Mon Oct 24 01:38:20 2016.
