 Gaussian 09, Revision E.01,
 Gaussian 09:  EM64L-G09RevE.01 30-Nov-2015

 ---------------------------------------------
 #p b3lyp/6-311++G(3df,2p) freq symmetry=Loose
 ---------------------------------------------

 ---------
 b3lyp opt
 ---------
 Symbolic Z-matrix:
 Charge =  0 Multiplicity = 1

                         Standard orientation:
 ---------------------------------------------------------------------
 Center     Atomic      Atomic             Coordinates (Angstroms)
 Number     Number       Type             X           Y           Z
 ---------------------------------------------------------------------
      1         16           0       -0.000000    1.882944    0.445885
      2         16           0       -1.630677   -0.941472    0.445885
      3         16           0        1.630677    0.941472   -0.445885
      4         16           0        1.630677   -0.941472    0.445885
      5         16           0       -1.630677    0.941472   -0.445885
      6         16           0       -0.000000   -1.882944   -0.445885
 ---------------------------------------------------------------------

 SCF Done:  E(RB3LYP) =  -2389.37491657     A.U. after    9 cycles

 The electronic state is 1-A1G.
 Alpha  occ. eigenvalues --  -88.91168 -88.91168 -88.91168 -88.91168 -88.91168
 Alpha  occ. eigenvalues --  -88.91168  -7.99389  -7.99389  -7.99387  -7.99386
 Alpha  occ. eigenvalues --   -7.99386  -7.99381  -5.95761  -5.95754  -5.95754
 Alpha  occ. eigenvalues --   -5.95738  -5.95738  -5.95730  -5.95493  -5.95488
 Alpha  occ. eigenvalues --   -5.95488  -5.95478  -5.95478  -5.95474  -5.94786
 Alpha  occ. eigenvalues --   -5.94786  -5.94786  -5.94785  -5.94785  -5.94785
 Alpha  occ. eigenvalues --   -0.88100  -0.81784  -0.81784  -0.68459  -0.68459
 Alpha  occ. eigenvalues --   -0.57902  -0.47132  -0.42920  -0.42132  -0.42132
 Alpha  occ. eigenvalues --   -0.37090  -0.36965  -0.36965  -0.28459  -0.28459
 Alpha  occ. eigenvalues --   -0.27638  -0.27638  -0.25703
 Alpha virt. eigenvalues --   -0.09477  -0.09477  -0.06296  -0.04834  -0.04834
 Alpha virt. eigenvalues --   -0.04664   0.00537   0.02852   0.02852   0.03542
 Alpha virt. eigenvalues --    0.04520   0.04958   0.04958   0.05779   0.05779

 Mulliken charges:
               1
     1  S    0.000000
     2  S   -0.000000
     3  S   -0.000000
     4  S   -0.000000
     5  S   -0.000000
     6  S    0.000000
 Sum of Mulliken charges =  -0.00000

 Dipole moment (field-independent basis, Debye):
    X=              0.0000    Y=              0.0000    Z=             -0.0000  Tot=              0.0000
 Quadrupole moment (field-independent basis, Debye-Ang):
   XX=            -75.7845   YY=            -75.7845   ZZ=            -79.0562
   XY=             -0.0000   XZ=             -0.0000   YZ=              0.0000

  Exact polarizability: 138.748  -0.000 138.756  -0.000  -0.003  88.350
 Approx polarizability: 289.346   0.000 289.346   0.000   0.000 173.714

                      1                      2                      3
                     EU                     EU                     EG
 Frequencies --    163.7274               163.7274               202.7625
 Red. masses --     31.9721                31.9721                31.9721
 Frc consts  --      0.5050                 0.5050                 0.7745
 IR Inten    --      0.7505                 0.7510                 0.0000

                      4                      5                      6
                     EG                     A1G                    A2U
 Frequencies --    202.7625               264.0084               313.9639
 Red. masses --     31.9721                31.9721                31.9721
 Frc consts  --      0.7745                 1.3130                 1.8569
 IR Inten    --      0.0000                 0.0000                 0.7446

                      7                      8                      9
                     A1U                    EG                     EG
 Frequencies --    340.3486               430.5530               430.5530
 Red. masses --     31.9721                31.9721                31.9721
 Frc consts  --      2.1821                 3.4920                 3.4920
 IR Inten    --      0.0000                 0.0000                 0.0000

                     10                     11                     12
                     EU                     EU                     A1G
 Frequencies --    452.8039               452.8039               472.4334
 Red. masses --     31.9721                31.9721                31.9721
 Frc consts  --      3.8623                 3.8623                 4.2044
 IR Inten    --      3.3638                 3.3638                 0.0000

 - Thermochemistry -
 -------------------
 Temperature   298.150 Kelvin.  Pressure   1.00000 Atm.
 Atom     1 has atomic number 16 and mass  31.97207

 Molecular mass:   191.83243 amu.
 Principal axes and moments of inertia in atomic units:
                           1         2         3
     Eigenvalues --  1350.604051350.604052428.81573
           X            0.89240   0.45124   0.00000
           Y           -0.45124   0.89240   0.00000
           Z           -0.00000  -0.00000   1.00000
 This molecule is an oblate symmetric top.
 Rotational symmetry number  6.
 Warning -- assumption of classical behavior for rotation
           may cause significant error
 Rotational temperatures (Kelvin)      0.06413     0.06413     0.03566
 Rotational constants (GHZ):           1.33625     1.33625     0.74305
 Zero-point vibrational energy      23270.0 (Joules/Mol)
                                    5.56167 (Kcal/Mol)
 Warning -- explicit consideration of  12 degrees of freedom as
           vibrations may cause significant error
 Vibrational temperatures:    235.57   235.57   291.73   291.73   379.85
          (Kelvin)            451.72   489.69   619.47   619.47   651.48
                              651.48   679.73

 Zero-point correction=                           0.008863 (Hartree/Particle)
 Thermal correction to Energy=                    0.016620
 Thermal correction to Enthalpy=                  0.017564
 Thermal correction to Gibbs Free Energy=        -0.023015
 Sum of electronic and zero-point Energies=          -2389.366053
 Sum of electronic and thermal Energies=             -2389.358296
 Sum of electronic and thermal Enthalpies=           -2389.357352
 Sum of electronic and thermal Free Energies=        -2389.397932

                     E (Thermal)             CV                S
                      KCal/Mol        Cal/Mol-Kelvin    Cal/Mol-Kelvin
 Total                   10.429             25.216             85.406
 Electronic               0.000              0.000              0.000
 Translational            0.889              2.981             41.660
 Rotational               0.889              2.981             26.312
 Vibrational              8.652             19.255             17.435
 Vibration     1          0.623              1.887              2.506
 Vibration     2          0.623              1.887              2.506
 Vibration     3          0.639              1.836              2.108
 Vibration     4          0.639              1.836              2.108
 Vibration     5          0.671              1.739              1.635
 Vibration     6          0.702              1.647              1.341
 Vibration     7          0.720              1.595              1.211
 Vibration     8          0.792              1.404              0.857
 Vibration     9          0.792              1.404              0.857
 Vibration    10          0.811              1.355              0.787
 Vibration    11          0.811              1.355              0.787
 Vibration    12          0.829              1.311              0.731

 Optimization completed.
    -- Stationary point found.

 1\1\GINC-BELVIS17\Freq\RB3LYP\6-311++G(3df,2p)\S6\ROOT\24-Oct-2016\0\\
 #p b3lyp/6-311++G(3df,2p) freq symmetry=Loose\\b3lyp opt\\0,1\S,1.2151
 94762,0.517068495,0.7543557177\S,-1.3199611313,0.8863666439,-1.2638210
 821\S,0.0236374646,-0.6016069772,2.0464420821\S,-1.8290533472,0.341777
 2624,1.911187838\S,0.5327296805,-0.0570175958,-1.128566838\S,-2.511518
 4287,-0.2323088284,0.0282652823\\Version=EM64L-G09RevE.01\State=1-A1G\
 HF=-2389.3749166\RMSD=4.274e-09\RMSF=1.757e-05\ZeroPoint=0.0088631\The
 rmal=0.0166201\Dipole=0.,0.,0.\DipoleDeriv=-0.1396617,0.0709425,-0.033

 Normal termination of Gaussian 09 at Mon Oct 24 01:34:56 2016.
