 Gaussian 09, Revision E.01,
 Gaussian 09:  EM64L-G09RevE.01 30-Nov-2015

 ---------------------------------------------
 #p b3lyp/6-311++G(3df,2p) freq symmetry=Loose
 ---------------------------------------------

 ---------
 b3lyp opt
 ---------
 Symbolic Z-matrix:
 Charge =  0 Multiplicity = 1

                         Standard orientation:
 ---------------------------------------------------------------------
 Center     Atomic      Atomic             Coordinates (Angstroms)
 Number     Number       Type             X           Y           Z
 ---------------------------------------------------------------------
      1         16           0        0.947628    1.596078    0.000000
      2         16           0        0.945490   -0.799747   -1.380058
      3         16           0       -0.944926    1.593400   -0.000000
      4         16           0       -0.946841   -0.794992   -1.381202
      5         16           0       -0.946841   -0.794992    1.381202
      6         16           0        0.945490   -0.799747    1.380058
 ---------------------------------------------------------------------

 SCF Done:  E(RB3LYP) =  -2389.34987061     A.U. after   12 cycles

 The electronic state is 1-A'.
 Alpha  occ. eigenvalues --  -88.90512 -88.90492 -88.90492 -88.90484 -88.90484
 Alpha  occ. eigenvalues --  -88.90460  -7.98761  -7.98748  -7.98745  -7.98728
 Alpha  occ. eigenvalues --   -7.98728  -7.98710  -5.94923  -5.94919  -5.94919
 Alpha  occ. eigenvalues --   -5.94837  -5.94837  -5.94830  -5.94674  -5.94657
 Alpha  occ. eigenvalues --   -5.94657  -5.94645  -5.94644  -5.94624  -5.94564
 Alpha  occ. eigenvalues --   -5.94547  -5.94547  -5.94536  -5.94536  -5.94514
 Alpha  occ. eigenvalues --   -0.87081  -0.82303  -0.82301  -0.66092  -0.59875
 Alpha  occ. eigenvalues --   -0.59871  -0.45496  -0.41704  -0.40633  -0.40626
 Alpha  occ. eigenvalues --   -0.38474  -0.38474  -0.30669  -0.29185  -0.29072
 Alpha  occ. eigenvalues --   -0.29070  -0.25584  -0.25579
 Alpha virt. eigenvalues --   -0.13076  -0.11515  -0.11509  -0.05564   0.00163
 Alpha virt. eigenvalues --    0.00168   0.00609   0.02743   0.02745   0.03233
 Alpha virt. eigenvalues --    0.04655   0.04658   0.04791   0.05882   0.07262

 Mulliken charges:
               1
     1  S   -0.007099
     2  S    0.002776
     3  S    0.006498
     4  S   -0.002475
     5  S   -0.002475
     6  S    0.002776
 Sum of Mulliken charges =  -0.00000

 Dipole moment (field-independent basis, Debye):
    X=             -0.0073    Y=             -0.0014    Z=             -0.0000  Tot=              0.0074
 Quadrupole moment (field-independent basis, Debye-Ang):
   XX=            -72.1021   YY=            -78.7542   ZZ=            -78.7571
   XY=             -0.0189   XZ=             -0.0000   YZ=              0.0000

  Exact polarizability: 120.039   0.036 143.952  -0.000  -0.000 143.907
 Approx polarizability: 388.269   0.042 418.075   0.000   0.000 417.744

                      1                      2                      3
                     A"                     A'                     A'
 Frequencies --     83.1636                83.2552               129.8304
 Red. masses --     31.9721                31.9721                31.9721
 Frc consts  --      0.1303                 0.1306                 0.3175
 IR Inten    --      0.0000                 0.0124                14.1059

                      4                      5                      6
                     A"                     A'                     A"
 Frequencies --    189.3714               189.6866               244.6494
 Red. masses --     31.9721                31.9721                31.9721
 Frc consts  --      0.6755                 0.6778                 1.1275
 IR Inten    --      0.5128                 0.5155                 0.0000

                      7                      8                      9
                     A'                     A"                     A'
 Frequencies --    263.9845               294.3425               294.4098
 Red. masses --     31.9721                31.9721                31.9721
 Frc consts  --      1.3127                 1.6320                 1.6328
 IR Inten    --      0.0003                 0.0000                 0.0001

                     10                     11                     12
                     A'                     A"                     A'
 Frequencies --    679.8105               679.9837               728.0308
 Red. masses --     31.9721                31.9721                31.9721
 Frc consts  --      8.7056                 8.7100                 9.9844
 IR Inten    --     90.5609                90.5102                 0.0016

 - Thermochemistry -
 -------------------
 Temperature   298.150 Kelvin.  Pressure   1.00000 Atm.
 Atom     1 has atomic number 16 and mass  31.97207

 Molecular mass:   191.83243 amu.
 Principal axes and moments of inertia in atomic units:
                           1         2         3
     Eigenvalues --  1483.850571484.426851741.63390
           X           -0.00000   0.00000   1.00000
           Y            1.00000   0.00000   0.00000
           Z           -0.00000   1.00000   0.00000
 This molecule is an asymmetric top.
 Rotational symmetry number  1.
 Warning -- assumption of classical behavior for rotation
           may cause significant error
 Rotational temperatures (Kelvin)      0.05837     0.05835     0.04973
 Rotational constants (GHZ):           1.21626     1.21578     1.03623
 Zero-point vibrational energy      23091.0 (Joules/Mol)
                                    5.51889 (Kcal/Mol)
 Warning -- explicit consideration of   9 degrees of freedom as
           vibrations may cause significant error
 Vibrational temperatures:    119.65   119.79   186.80   272.46   272.92
          (Kelvin)            352.00   379.81   423.49   423.59   978.09
                              978.34  1047.47

 Zero-point correction=                           0.008795 (Hartree/Particle)
 Thermal correction to Energy=                    0.017155
 Thermal correction to Enthalpy=                  0.018099
 Thermal correction to Gibbs Free Energy=        -0.026405
 Sum of electronic and zero-point Energies=          -2389.341076
 Sum of electronic and thermal Energies=             -2389.332715
 Sum of electronic and thermal Enthalpies=           -2389.331771
 Sum of electronic and thermal Free Energies=        -2389.376276

                     E (Thermal)             CV                S
                      KCal/Mol        Cal/Mol-Kelvin    Cal/Mol-Kelvin
 Total                   10.765             24.907             93.668
 Electronic               0.000              0.000              0.000
 Translational            0.889              2.981             41.660
 Rotational               0.889              2.981             29.730
 Vibrational              8.988             18.945             22.279
 Vibration     1          0.600              1.961              3.815
 Vibration     2          0.600              1.961              3.813
 Vibration     3          0.612              1.923              2.949
 Vibration     4          0.633              1.855              2.234
 Vibration     5          0.633              1.854              2.231
 Vibration     6          0.660              1.772              1.769
 Vibration     7          0.671              1.739              1.635
 Vibration     8          0.689              1.684              1.449
 Vibration     9          0.689              1.684              1.448

 1\1\GINC-BELVIS17\Freq\RB3LYP\6-311++G(3df,2p)\S6\ROOT\24-Oct-2016\0\\
 #p b3lyp/6-311++G(3df,2p) freq symmetry=Loose\\b3lyp opt\\0,1\S,1.5623
 056587,-0.3956115115,-0.9731801945\S,-0.731572329,1.142461571,-1.10355
 3179\S,1.6179943936,-0.1467972172,0.9021216056\S,-0.668399631,1.391840
 485,0.771215703\S,-0.8586574709,-1.3393209105,1.1392349806\S,-0.921672
 4912,-1.5864363539,-0.7358389001\\Version=EM64L-G09RevE.01\State=1-A'\
 HF=-2389.3498706\RMSD=2.465e-09\RMSF=4.809e-05\ZeroPoint=0.0087949\The
 rmal=0.0171553\Dipole=-0.0004503,0.0004145,0.0028434\DipoleDeriv=-0.00

 Normal termination of Gaussian 09 at Mon Oct 24 01:28:46 2016.
