 Gaussian 09, Revision E.01,
 Gaussian 09:  EM64L-G09RevE.01 30-Nov-2015

 ---------------------------------------------
 #p b3lyp/6-311++G(3df,2p) freq symmetry=Loose
 ---------------------------------------------

 ---------
 b3lyp opt
 ---------
 Symbolic Z-matrix:
 Charge =  0 Multiplicity = 3

                         Standard orientation:
 ---------------------------------------------------------------------
 Center     Atomic      Atomic             Coordinates (Angstroms)
 Number     Number       Type             X           Y           Z
 ---------------------------------------------------------------------
      1         16           0        0.521925    3.696577   -0.631265
      2         16           0       -0.489942    2.059397   -0.449329
      3         16           0       -0.521925   -3.696577   -0.631265
      4         16           0        0.521925    0.858972    1.080594
      5         16           0        0.489942   -2.059397   -0.449329
      6         16           0       -0.521925   -0.858972    1.080594
 ---------------------------------------------------------------------

 SCF Done:  E(UB3LYP) =  -2389.33900075     A.U. after   15 cycles

 The electronic state is 3-B.
 Alpha  occ. eigenvalues --  -88.93895 -88.93895 -88.92056 -88.92056 -88.88541
 Alpha  occ. eigenvalues --  -88.88541  -8.01946  -8.01946  -8.00300  -8.00294
 Alpha  occ. eigenvalues --   -7.96950  -7.96949  -5.98197  -5.98197  -5.97922
 Alpha  occ. eigenvalues --   -5.97922  -5.97829  -5.97829  -5.96660  -5.96633
 Alpha  occ. eigenvalues --   -5.96326  -5.96315  -5.95786  -5.95786  -5.93302
 Alpha  occ. eigenvalues --   -5.93302  -5.93212  -5.93212  -5.92450  -5.92450
 Alpha  occ. eigenvalues --   -0.87920  -0.85465  -0.81217  -0.69991  -0.64240
 Alpha  occ. eigenvalues --   -0.60527  -0.46271  -0.43982  -0.42942  -0.39718
 Alpha  occ. eigenvalues --   -0.39431  -0.38885  -0.36435  -0.32231  -0.31427
 Alpha  occ. eigenvalues --   -0.27634  -0.27473  -0.24474  -0.24249
 Alpha virt. eigenvalues --   -0.09552  -0.09551  -0.06701  -0.03859  -0.02490
 Alpha virt. eigenvalues --    0.00253   0.02049   0.02436   0.02672   0.04171
 Alpha virt. eigenvalues --    0.04590   0.04947   0.05189   0.05551   0.06223

  Beta  occ. eigenvalues --  -88.93611 -88.93611 -88.92040 -88.92040 -88.88163
  Beta  occ. eigenvalues --  -88.88163  -8.01690  -8.01690  -8.00285  -8.00280
  Beta  occ. eigenvalues --   -7.96609  -7.96608  -5.98018  -5.98018  -5.97677
  Beta  occ. eigenvalues --   -5.97677  -5.97056  -5.97056  -5.96665  -5.96639
  Beta  occ. eigenvalues --   -5.96344  -5.96331  -5.95697  -5.95697  -5.93009
  Beta  occ. eigenvalues --   -5.93009  -5.92214  -5.92214  -5.92143  -5.92143
  Beta  occ. eigenvalues --   -0.87243  -0.84223  -0.80361  -0.68976  -0.61781
  Beta  occ. eigenvalues --   -0.58766  -0.45847  -0.43260  -0.42185  -0.38237
  Beta  occ. eigenvalues --   -0.37223  -0.36211  -0.35202  -0.30623  -0.29945
  Beta  occ. eigenvalues --   -0.26284  -0.26212
  Beta virt. eigenvalues --   -0.15653  -0.15176  -0.09052  -0.09021  -0.06506
  Beta virt. eigenvalues --   -0.03194  -0.01912   0.00355   0.02196   0.02501
  Beta virt. eigenvalues --    0.02738   0.04332   0.04721   0.05107   0.05349

 Mulliken charges and spin densities:
               1          2
     1  S   -0.126824   0.588276
     2  S    0.042718   0.387563
     3  S   -0.126824   0.588276
     4  S    0.084106   0.024161
     5  S    0.042718   0.387563
     6  S    0.084106   0.024161
 Sum of Mulliken charges =  -0.00000   2.00000

 Dipole moment (field-independent basis, Debye):
    X=              0.0000    Y=             -0.0000    Z=              0.2427  Tot=              0.2427
 Quadrupole moment (field-independent basis, Debye-Ang):
   XX=            -77.5808   YY=            -81.1053   ZZ=            -77.9671
   XY=             -0.3225   XZ=              0.0000   YZ=             -0.0000

  Exact polarizability:  97.001  24.406 274.360   0.000  -0.000 107.414
 Approx polarizability: 192.058  60.753 477.695   0.000  -0.000 214.239

                      1                      2                      3
                      A                      B                      A
 Frequencies --     16.9842                21.9671                72.5855
 Red. masses --     31.9721                31.9721                31.9721
 Frc consts  --      0.0054                 0.0091                 0.0992
 IR Inten    --      0.1934                 0.2145                 0.0456

                      4                      5                      6
                      B                      A                      A
 Frequencies --    104.0488               112.7545               156.5627
 Red. masses --     31.9721                31.9721                31.9721
 Frc consts  --      0.2039                 0.2395                 0.4617
 IR Inten    --      0.8852                 0.2740                 0.2784

                      7                      8                      9
                      B                      A                      B
 Frequencies --    216.2861               394.5306               396.6134
 Red. masses --     31.9721                31.9721                31.9721
 Frc consts  --      0.8812                 2.9321                 2.9632
 IR Inten    --      1.3069                 1.9181                45.6358

                     10                     11                     12
                      A                      B                      A
 Frequencies --    523.1420               632.3521               634.1191
 Red. masses --     31.9721                31.9721                31.9721
 Frc consts  --      5.1554                 7.5325                 7.5747
 IR Inten    --      4.0541                59.7769                 9.0059

 - Thermochemistry -
 -------------------
 Temperature   298.150 Kelvin.  Pressure   1.00000 Atm.
 Atom     1 has atomic number 16 and mass  31.97207

 Molecular mass:   191.83243 amu.
 Principal axes and moments of inertia in atomic units:
                           1         2         3
     Eigenvalues --   559.145194436.469864684.79989
           X            0.07597   0.00000   0.99711
           Y            0.99711   0.00000  -0.07597
           Z            0.00000   1.00000   0.00000
 This molecule is an asymmetric top.
 Rotational symmetry number  2.
 Warning -- assumption of classical behavior for rotation
           may cause significant error
 Rotational temperatures (Kelvin)      0.15490     0.01952     0.01849
 Rotational constants (GHZ):           3.22768     0.40680     0.38523
 Zero-point vibrational energy      19630.4 (Joules/Mol)
                                    4.69178 (Kcal/Mol)
 Warning -- explicit consideration of  10 degrees of freedom as
           vibrations may cause significant error
 Vibrational temperatures:     24.44    31.61   104.43   149.70   162.23
          (Kelvin)            225.26   311.19   567.64   570.64   752.68
                              909.81   912.35

 Zero-point correction=                           0.007477 (Hartree/Particle)
 Thermal correction to Energy=                    0.016624
 Thermal correction to Enthalpy=                  0.017568
 Thermal correction to Gibbs Free Energy=        -0.032471
 Sum of electronic and zero-point Energies=          -2389.331524
 Sum of electronic and thermal Energies=             -2389.322377
 Sum of electronic and thermal Enthalpies=           -2389.321433
 Sum of electronic and thermal Free Energies=        -2389.371472

                     E (Thermal)             CV                S
                      KCal/Mol        Cal/Mol-Kelvin    Cal/Mol-Kelvin
 Total                   10.432             25.579            105.317
 Electronic               0.000              0.000              2.183
 Translational            0.889              2.981             41.660
 Rotational               0.889              2.981             29.453
 Vibrational              8.654             19.617             32.020
 Vibration     1          0.593              1.986              6.959
 Vibration     2          0.593              1.985              6.448
 Vibration     3          0.599              1.967              4.082
 Vibration     4          0.605              1.946              3.377
 Vibration     5          0.607              1.939              3.221
 Vibration     6          0.620              1.895              2.591
 Vibration     7          0.645              1.816              1.990
 Vibration     8          0.761              1.482              0.983
 Vibration     9          0.763              1.477              0.975
 Vibration    10          0.878              1.199              0.603

 Optimization completed.
    -- Stationary point found.
 Normal termination of Gaussian 09 at Mon Oct 24 01:40:49 2016.
