 Gaussian 09, Revision E.01,
 Gaussian 09:  EM64L-G09RevE.01 30-Nov-2015

 ---------------------------------------------
 #p b3lyp/6-311++G(3df,2p) freq symmetry=Loose
 ---------------------------------------------

 ---------
 b3lyp opt
 ---------
 Symbolic Z-matrix:
 Charge =  0 Multiplicity = 3

                         Standard orientation:
 ---------------------------------------------------------------------
 Center     Atomic      Atomic             Coordinates (Angstroms)
 Number     Number       Type             X           Y           Z
 ---------------------------------------------------------------------
      1         16           0       -0.870301    2.034725   -0.291680
      2         16           0       -0.909414   -2.116630   -0.995060
      3         16           0        0.870301   -2.034725   -0.291680
      4         16           0        0.909414   -0.349562    1.286739
      5         16           0       -0.909414    0.349562    1.286739
      6         16           0        0.909414    2.116630   -0.995060
 ---------------------------------------------------------------------

 SCF Done:  E(UB3LYP) =  -2389.34271284     A.U. after   16 cycles

 The electronic state is 3-B.
 Alpha  occ. eigenvalues --  -88.92733 -88.92733 -88.91061 -88.91061 -88.88669
 Alpha  occ. eigenvalues --  -88.88669  -8.00845  -8.00845  -7.99314  -7.99303
 Alpha  occ. eigenvalues --   -7.97059  -7.97059  -5.97050  -5.97050  -5.96867
 Alpha  occ. eigenvalues --   -5.96867  -5.96739  -5.96739  -5.95626  -5.95584
 Alpha  occ. eigenvalues --   -5.95311  -5.95294  -5.94864  -5.94864  -5.93382
 Alpha  occ. eigenvalues --   -5.93382  -5.93275  -5.93275  -5.92636  -5.92636
 Alpha  occ. eigenvalues --   -0.86990  -0.84552  -0.81192  -0.68524  -0.63891
 Alpha  occ. eigenvalues --   -0.59243  -0.45442  -0.42987  -0.41435  -0.40031
 Alpha  occ. eigenvalues --   -0.38683  -0.37975  -0.37319  -0.30321  -0.30160
 Alpha  occ. eigenvalues --   -0.27782  -0.27490  -0.24302  -0.23897
 Alpha virt. eigenvalues --   -0.09899  -0.09711  -0.06788  -0.02533   0.00058
 Alpha virt. eigenvalues --    0.00651   0.02080   0.02860   0.03519   0.03979
 Alpha virt. eigenvalues --    0.04605   0.05280   0.05917   0.06294   0.06990

  Beta  occ. eigenvalues --  -88.92422 -88.92422 -88.91071 -88.91071 -88.88293
  Beta  occ. eigenvalues --  -88.88293  -8.00566  -8.00566  -7.99322  -7.99311
  Beta  occ. eigenvalues --   -7.96720  -7.96720  -5.96838  -5.96838  -5.96547
  Beta  occ. eigenvalues --   -5.96547  -5.95962  -5.95962  -5.95649  -5.95613
  Beta  occ. eigenvalues --   -5.95358  -5.95336  -5.94837  -5.94837  -5.93076
  Beta  occ. eigenvalues --   -5.93076  -5.92383  -5.92383  -5.92245  -5.92245
  Beta  occ. eigenvalues --   -0.86337  -0.83179  -0.80382  -0.67535  -0.61278
  Beta  occ. eigenvalues --   -0.57505  -0.44857  -0.42523  -0.40796  -0.38913
  Beta  occ. eigenvalues --   -0.36906  -0.35029  -0.34429  -0.29194  -0.29177
  Beta  occ. eigenvalues --   -0.26709  -0.26387
  Beta virt. eigenvalues --   -0.15351  -0.14751  -0.09251  -0.09034  -0.06478
  Beta virt. eigenvalues --   -0.01868   0.00156   0.01005   0.02139   0.02922
  Beta virt. eigenvalues --    0.03647   0.04038   0.04742   0.05450   0.06126

 Mulliken charges and spin densities:
               1          2
     1  S   -0.016567   0.429400
     2  S   -0.068157   0.582298
     3  S   -0.016567   0.429400
     4  S    0.084724  -0.011698
     5  S    0.084724  -0.011698
     6  S   -0.068157   0.582298
 Sum of Mulliken charges =  -0.00000   2.00000

 Dipole moment (field-independent basis, Debye):
    X=              0.0000    Y=             -0.0000    Z=              0.3715  Tot=              0.3715
 Quadrupole moment (field-independent basis, Debye-Ang):
   XX=            -73.9179   YY=            -78.6214   ZZ=            -78.3614
   XY=             -2.2354   XZ=              0.0000   YZ=              0.0000

  Exact polarizability: 123.555   4.321 172.758   0.000   0.000 123.936
 Approx polarizability: 318.094   4.051 310.805   0.000   0.000 277.912

                      1                      2                      3
                      A                      B                      A
 Frequencies --     35.5147                61.0340                73.7224
 Red. masses --     31.9721                31.9721                31.9721
 Frc consts  --      0.0238                 0.0702                 0.1024
 IR Inten    --      0.0605                 0.3503                 0.1189

                      4                      5                      6
                      B                      A                      A
 Frequencies --    124.9305               134.1468               237.7887
 Red. masses --     31.9721                31.9721                31.9721
 Frc consts  --      0.2940                 0.3390                 1.0651
 IR Inten    --      0.1102                 0.1261                 2.0851

                      7                      8                      9
                      B                      A                      B
 Frequencies --    252.9116               263.0350               305.4408
 Red. masses --     31.9721                31.9721                31.9721
 Frc consts  --      1.2049                 1.3033                 1.7574
 IR Inten    --      7.6217                 0.7840                 0.3341

                     10                     11                     12
                      A                      B                      A
 Frequencies --    588.6556               658.3584               662.9823
 Red. masses --     31.9721                31.9721                31.9721
 Frc consts  --      6.5274                 8.1648                 8.2799
 IR Inten    --     13.2342                50.5398                14.9326

 - Thermochemistry -
 -------------------
 Temperature   298.150 Kelvin.  Pressure   1.00000 Atm.
 Atom     1 has atomic number 16 and mass  31.97207

 Molecular mass:   191.83243 amu.
 Principal axes and moments of inertia in atomic units:
                           1         2         3
     Eigenvalues --  1173.295542546.981682620.88974
           X           -0.02585   0.00000   0.99967
           Y            0.99967   0.00000   0.02585
           Z           -0.00000   1.00000  -0.00000
 This molecule is an asymmetric top.
 Rotational symmetry number  2.
 Warning -- assumption of classical behavior for rotation
           may cause significant error
 Rotational temperatures (Kelvin)      0.07382     0.03401     0.03305
 Rotational constants (GHZ):           1.53818     0.70858     0.68860
 Zero-point vibrational energy      20327.7 (Joules/Mol)
                                    4.85843 (Kcal/Mol)
 Warning -- explicit consideration of  10 degrees of freedom as
           vibrations may cause significant error
 Vibrational temperatures:     51.10    87.81   106.07   179.75   193.01
          (Kelvin)            342.12   363.88   378.45   439.46   846.94
                              947.23   953.88

 Zero-point correction=                           0.007742 (Hartree/Particle)
 Thermal correction to Energy=                    0.016691
 Thermal correction to Enthalpy=                  0.017636
 Thermal correction to Gibbs Free Energy=        -0.030126
 Sum of electronic and zero-point Energies=          -2389.334970
 Sum of electronic and thermal Energies=             -2389.326021
 Sum of electronic and thermal Enthalpies=           -2389.325077
 Sum of electronic and thermal Free Energies=        -2389.372839

                     E (Thermal)             CV                S
                      KCal/Mol        Cal/Mol-Kelvin    Cal/Mol-Kelvin
 Total                   10.474             25.544            100.523
 Electronic               0.000              0.000              2.183
 Translational            0.889              2.981             41.660
 Rotational               0.889              2.981             29.061
 Vibrational              8.697             19.582             27.618
 Vibration     1          0.594              1.982              5.495
 Vibration     2          0.597              1.973              4.423
 Vibration     3          0.599              1.966              4.051
 Vibration     4          0.610              1.928              3.023
 Vibration     5          0.613              1.919              2.886
 Vibration     6          0.656              1.783              1.819
 Vibration     7          0.664              1.758              1.710
 Vibration     8          0.670              1.741              1.642
 Vibration     9          0.696              1.663              1.387
 Vibration    10          0.946              1.056              0.470

 Normal termination of Gaussian 09 at Mon Oct 24 01:42:52 2016.
