 Gaussian 09, Revision E.01,
 Gaussian 09:  EM64L-G09RevE.01 30-Nov-2015

 ---------------------------------------------
 #p b3lyp/6-311++G(3df,2p) freq symmetry=Loose
 ---------------------------------------------

 ---------
 b3lyp opt
 ---------
 Symbolic Z-matrix:
 Charge =  0 Multiplicity = 3

                         Standard orientation:
 ---------------------------------------------------------------------
 Center     Atomic      Atomic             Coordinates (Angstroms)
 Number     Number       Type             X           Y           Z
 ---------------------------------------------------------------------
      1         16           0        0.413850   -0.732247    0.894193
      2         16           0       -1.102013   -1.602498   -0.035136
      3         16           0       -1.835213    1.714974    0.281112
      4         16           0        1.769957   -0.157057   -0.745453
      5         16           0        3.312384    0.672804    0.070933
      6         16           0       -2.558964    0.104024   -0.465649
 ---------------------------------------------------------------------

 SCF Done:  E(UB3LYP) =  -2389.34056149     A.U. after   18 cycles

 The electronic state is 3-A.
 Alpha  occ. eigenvalues --  -88.93567 -88.93142 -88.92004 -88.91128 -88.88791
 Alpha  occ. eigenvalues --  -88.88381  -8.01626  -8.01240  -8.00215  -7.99404
 Alpha  occ. eigenvalues --   -7.97185  -7.96788  -5.97876  -5.97604  -5.97511
 Alpha  occ. eigenvalues --   -5.97453  -5.97256  -5.97125  -5.96543  -5.96223
 Alpha  occ. eigenvalues --   -5.95740  -5.95731  -5.95415  -5.94915  -5.93506
 Alpha  occ. eigenvalues --   -5.93413  -5.93146  -5.93044  -5.92746  -5.92295
 Alpha  occ. eigenvalues --   -0.87489  -0.84989  -0.81193  -0.69334  -0.64127
 Alpha  occ. eigenvalues --   -0.59876  -0.45890  -0.43595  -0.42073  -0.39795
 Alpha  occ. eigenvalues --   -0.39176  -0.38607  -0.36628  -0.31587  -0.30605
 Alpha  occ. eigenvalues --   -0.27803  -0.27304  -0.24328  -0.24108
 Alpha virt. eigenvalues --   -0.09925  -0.09389  -0.06847  -0.03338  -0.00714
 Alpha virt. eigenvalues --    0.00272   0.01964   0.02588   0.03199   0.04185
 Alpha virt. eigenvalues --    0.04860   0.05053   0.05393   0.05628   0.06693

  Beta  occ. eigenvalues --  -88.93273 -88.92844 -88.92000 -88.91123 -88.88422
  Beta  occ. eigenvalues --  -88.87996  -8.01361  -8.00972  -8.00210  -7.99398
  Beta  occ. eigenvalues --   -7.96852  -7.96441  -5.97678  -5.97347  -5.97262
  Beta  occ. eigenvalues --   -5.96956  -5.96731  -5.96558  -5.96361  -5.96249
  Beta  occ. eigenvalues --   -5.95742  -5.95677  -5.95446  -5.94853  -5.93218
  Beta  occ. eigenvalues --   -5.92836  -5.92511  -5.92375  -5.92044  -5.91977
  Beta  occ. eigenvalues --   -0.86816  -0.83683  -0.80353  -0.68335  -0.61606
  Beta  occ. eigenvalues --   -0.58122  -0.45361  -0.42944  -0.41454  -0.38801
  Beta  occ. eigenvalues --   -0.36699  -0.35425  -0.35134  -0.30287  -0.29218
  Beta  occ. eigenvalues --   -0.26776  -0.25968
  Beta virt. eigenvalues --   -0.15356  -0.15121  -0.09332  -0.08799  -0.06584
  Beta virt. eigenvalues --   -0.02663  -0.00268   0.00392   0.02065   0.02635
  Beta virt. eigenvalues --    0.03316   0.04318   0.04965   0.05226   0.05531

 Mulliken charges and spin densities:
               1          2
     1  S    0.261335   0.011642
     2  S   -0.088936   0.006557
     3  S   -0.083308   0.568987
     4  S    0.007916   0.398369
     5  S   -0.118388   0.600222
     6  S    0.021381   0.414223
 Sum of Mulliken charges =  -0.00000   2.00000

 Dipole moment (field-independent basis, Debye):
    X=             -0.6413    Y=             -0.6152    Z=             -0.2999  Tot=              0.9379
 Quadrupole moment (field-independent basis, Debye-Ang):
   XX=            -77.9891   YY=            -77.4400   ZZ=            -77.4008
   XY=              1.5277   XZ=              0.9718   YZ=              0.7725

  Exact polarizability: 213.715   6.465 135.529   3.895   3.244  94.787
 Approx polarizability: 388.735  41.716 311.977  23.135  17.266 191.781

                      1                      2                      3
                      A                      A                      A
 Frequencies --     23.7796                46.6302                71.1666
 Red. masses --     31.9721                31.9721                31.9721
 Frc consts  --      0.0107                 0.0410                 0.0954
 IR Inten    --      0.0520                 0.1268                 0.1450

                      4                      5                      6
                      A                      A                      A
 Frequencies --    114.2473               127.5938               175.2201
 Red. masses --     31.9721                31.9721                31.9721
 Frc consts  --      0.2459                 0.3067                 0.5783
 IR Inten    --      0.4333                 0.2953                 0.7745

                      7                      8                      9
                      A                      A                      A
 Frequencies --    266.4318               286.5228               388.2611
 Red. masses --     31.9721                31.9721                31.9721
 Frc consts  --      1.3372                 1.5465                 2.8397
 IR Inten    --      6.5191                 1.6321                14.7356

                     10                     11                     12
                      A                      A                      A
 Frequencies --    552.3049               634.0978               655.7856
 Red. masses --     31.9721                31.9721                31.9721
 Frc consts  --      5.7462                 7.5741                 8.1011
 IR Inten    --      6.8074                34.0455                30.4378

 - Thermochemistry -
 -------------------
 Temperature   298.150 Kelvin.  Pressure   1.00000 Atm.
 Atom     1 has atomic number 16 and mass  31.97207

 Molecular mass:   191.83243 amu.
 Principal axes and moments of inertia in atomic units:
                           1         2         3
     Eigenvalues --   935.187883090.019873646.74245
           X            1.00000  -0.00000   0.00000
           Y            0.00000   1.00000   0.00000
           Z            0.00000   0.00000   1.00000
 This molecule is an asymmetric top.
 Rotational symmetry number  1.
 Warning -- assumption of classical behavior for rotation
           may cause significant error
 Rotational temperatures (Kelvin)      0.09262     0.02803     0.02375
 Rotational constants (GHZ):           1.92982     0.58405     0.49489
 Zero-point vibrational energy      19989.8 (Joules/Mol)
                                    4.77769 (Kcal/Mol)
 Warning -- explicit consideration of  10 degrees of freedom as
           vibrations may cause significant error
 Vibrational temperatures:     34.21    67.09   102.39   164.38   183.58
          (Kelvin)            252.10   383.34   412.24   558.62   794.64
                              912.32   943.53

 Zero-point correction=                           0.007614 (Hartree/Particle)
 Thermal correction to Energy=                    0.016646
 Thermal correction to Enthalpy=                  0.017590
 Thermal correction to Gibbs Free Energy=        -0.031784
 Sum of electronic and zero-point Energies=          -2389.332948
 Sum of electronic and thermal Energies=             -2389.323915
 Sum of electronic and thermal Enthalpies=           -2389.322971
 Sum of electronic and thermal Free Energies=        -2389.372346

                     E (Thermal)             CV                S
                      KCal/Mol        Cal/Mol-Kelvin    Cal/Mol-Kelvin
 Total                   10.446             25.569            103.917
 Electronic               0.000              0.000              2.183
 Translational            0.889              2.981             41.660
 Rotational               0.889              2.981             30.734
 Vibrational              8.668             19.608             29.341
 Vibration     1          0.593              1.985              6.291
 Vibration     2          0.595              1.979              4.955
 Vibration     3          0.598              1.968              4.121
 Vibration     4          0.607              1.938              3.195
 Vibration     5          0.611              1.926              2.982
 Vibration     6          0.627              1.873              2.379
 Vibration     7          0.672              1.735              1.619
 Vibration     8          0.684              1.699              1.494
 Vibration     9          0.756              1.495              1.007
 Vibration    10          0.908              1.135              0.539

 Normal termination of Gaussian 09 at Sun Oct 23 23:50:22 2016.
