 Gaussian 09, Revision E.01,
 Gaussian 09:  EM64L-G09RevE.01 30-Nov-2015

 -----------------------------------------
 #p b3lyp/6-311+G(3df) freq symmetry=Loose
 -----------------------------------------

 ---------
 b3lyp opt
 ---------
 Symbolic Z-matrix:
 Charge =  1 Multiplicity = 2

                         Standard orientation:
 ---------------------------------------------------------------------
 Center     Atomic      Atomic             Coordinates (Angstroms)
 Number     Number       Type             X           Y           Z
 ---------------------------------------------------------------------
      1          6           0        0.000000    0.944361    0.600081
      2          6           0        0.000000    0.000000    1.491727
      3          6           0        0.000000    1.195310   -0.717358
      4          6           0       -0.000000   -0.944361    0.600081
      5          6           0       -0.000000   -0.000000   -1.257172
      6          6           0       -0.000000   -1.195310   -0.717358
 ---------------------------------------------------------------------

 SCF Done:  E(UB3LYP) =  -227.949918877     A.U. after   18 cycles

 The electronic state is 2-B2.
 Alpha  occ. eigenvalues --  -10.54733 -10.54732 -10.52217 -10.51939 -10.51917
 Alpha  occ. eigenvalues --  -10.48952  -1.23296  -1.08494  -1.05847  -0.86868
 Alpha  occ. eigenvalues --   -0.85992  -0.76819  -0.71011  -0.70700  -0.58129
 Alpha  occ. eigenvalues --   -0.56585  -0.56206  -0.56003
 Alpha virt. eigenvalues --   -0.40653  -0.32326  -0.30744  -0.27673  -0.26016
 Alpha virt. eigenvalues --   -0.14810  -0.11782  -0.10109  -0.09824  -0.09463
 Alpha virt. eigenvalues --   -0.08898  -0.07395  -0.06776  -0.05948  -0.05864

  Beta  occ. eigenvalues --  -10.54606 -10.54605 -10.52850 -10.50524 -10.50519
  Beta  occ. eigenvalues --  -10.49409  -1.22388  -1.08349  -1.03717  -0.86929
  Beta  occ. eigenvalues --   -0.85332  -0.76308  -0.70467  -0.67904  -0.56900
  Beta  occ. eigenvalues --   -0.55713  -0.54786
  Beta virt. eigenvalues --   -0.43494  -0.37846  -0.34493  -0.27912  -0.26558
  Beta virt. eigenvalues --   -0.26242  -0.14742  -0.11482  -0.09964  -0.09554
  Beta virt. eigenvalues --   -0.08790  -0.08534  -0.07009  -0.06583  -0.05891

 Mulliken charges and spin densities:
               1          2
     1  C    0.173995   0.068912
     2  C    0.202250  -0.258144
     3  C    0.231886   0.883598
     4  C    0.173995   0.068912
     5  C   -0.014014  -0.646876
     6  C    0.231886   0.883598
 Sum of Mulliken charges =   1.00000   1.00000

 Dipole moment (field-independent basis, Debye):
    X=             -0.0000    Y=             -0.0000    Z=             -0.6391  Tot=              0.6391
 Quadrupole moment (field-independent basis, Debye-Ang):
   XX=            -30.8132   YY=            -22.1789   ZZ=            -23.3100
   XY=             -0.0000   XZ=             -0.0000   YZ=             -0.0000

  Exact polarizability:  29.832   0.000  58.382   0.000   0.000  59.729
 Approx polarizability:  41.329   0.000 140.670   0.000  -0.000 140.917

                      1                      2                      3
                     B1                     B1                     A2
 Frequencies --    405.5300               464.2771               501.8740
 Red. masses --     12.0000                12.0000                12.0000
 Frc consts  --      1.1627                 1.5240                 1.7808
 IR Inten    --      2.0986                 2.0560                 0.0000

                      4                      5                      6
                     A1                     A1                     B2
 Frequencies --    540.8788               547.8544               575.1484
 Red. masses --     12.0000                12.0000                12.0000
 Frc consts  --      2.0684                 2.1221                 2.3388
 IR Inten    --      0.0392                30.3295                22.1498

                      7                      8                      9
                     B2                     A1                     A1
 Frequencies --   1174.5700              1187.0429              1339.4568
 Red. masses --     12.0000                12.0000                12.0000
 Frc consts  --      9.7541                 9.9624                12.6850
 IR Inten    --     11.9064                 1.5083                 0.1800

                     10                     11                     12
                     B2                     B2                     A1
 Frequencies --   1461.1188              1536.0983              1807.0993
 Red. masses --     12.0000                12.0000                12.0000
 Frc consts  --     15.0939                16.6828                23.0885
 IR Inten    --     16.9581                 0.0195               164.5463

 - Thermochemistry -
 -------------------
 Temperature   298.150 Kelvin.  Pressure   1.00000 Atm.
 Atom     1 has atomic number  6 and mass  12.00000

 Molecular mass:    72.00000 amu.
 Principal axes and moments of inertia in atomic units:
                           1         2         3
     Eigenvalues --   198.88692 238.05277 436.93968
           X            0.00000  -0.00000   1.00000
           Y            0.00000   1.00000   0.00000
           Z            1.00000  -0.00000   0.00000
 This molecule is an asymmetric top.
 Rotational symmetry number  2.
 Rotational temperatures (Kelvin)      0.43549     0.36384     0.19823
 Rotational constants (GHZ):           9.07421     7.58127     4.13041
 Zero-point vibrational energy      69030.2 (Joules/Mol)
                                   16.49861 (Kcal/Mol)
 Warning -- explicit consideration of   6 degrees of freedom as
           vibrations may cause significant error
 Vibrational temperatures:    583.47   667.99   722.08   778.20   788.24
          (Kelvin)            827.51  1689.94  1707.89  1927.18  2102.22
                             2210.10  2600.01

 Zero-point correction=                           0.026292 (Hartree/Particle)
 Thermal correction to Energy=                    0.030521
 Thermal correction to Enthalpy=                  0.031465
 Thermal correction to Gibbs Free Energy=        -0.000547
 Sum of electronic and zero-point Energies=           -227.923627
 Sum of electronic and thermal Energies=              -227.919398
 Sum of electronic and thermal Enthalpies=            -227.918453
 Sum of electronic and thermal Free Energies=         -227.950465

                     E (Thermal)             CV                S
                      KCal/Mol        Cal/Mol-Kelvin    Cal/Mol-Kelvin
 Total                   19.152             14.126             67.375
 Electronic               0.000              0.000              1.377
 Translational            0.889              2.981             38.739
 Rotational               0.889              2.981             23.163
 Vibrational             17.375              8.164              4.096
 Vibration     1          0.771              1.458              0.943
 Vibration     2          0.822              1.329              0.754
 Vibration     3          0.857              1.246              0.653
 Vibration     4          0.896              1.160              0.563
 Vibration     5          0.903              1.144              0.549
 Vibration     6          0.932              1.085              0.494

 Optimization completed.
    -- Stationary point found.
 Normal termination of Gaussian 09 at Tue Nov  1 19:40:17 2016.
