 Gaussian 09, Revision E.01,
 Gaussian 09:  EM64L-G09RevE.01 30-Nov-2015

 -----------------------------------------
 #p b3lyp/6-311+G(3df) freq symmetry=Loose
 -----------------------------------------

 ---------
 b3lyp opt
 ---------
 Symbolic Z-matrix:
 Charge =  1 Multiplicity = 2

                         Standard orientation:
 ---------------------------------------------------------------------
 Center     Atomic      Atomic             Coordinates (Angstroms)
 Number     Number       Type             X           Y           Z
 ---------------------------------------------------------------------
      1          6           0       -1.644783    0.762092    0.000061
      2          6           0       -0.429385    0.000111    0.000189
      3          6           0        0.880395   -0.000312    0.000186
      4          6           0       -1.644892   -0.762081    0.000061
      5          6           0        2.138896   -0.000098    0.000072
      6          6           0        3.451621    0.000203   -0.000258
      7          6           0       -2.751853    0.000086   -0.000311
 ---------------------------------------------------------------------

 SCF Done:  E(UB3LYP) =  -266.000182658     A.U. after   24 cycles

 The electronic state is 2-A.
 Alpha  occ. eigenvalues --  -10.56350 -10.56325 -10.53554 -10.51596 -10.50091
 Alpha  occ. eigenvalues --  -10.47395 -10.42036  -1.29556  -1.07515  -1.01098
 Alpha  occ. eigenvalues --   -0.93405  -0.85965  -0.83777  -0.72078  -0.71271
 Alpha  occ. eigenvalues --   -0.65370  -0.59734  -0.57104  -0.56307  -0.50855
 Alpha  occ. eigenvalues --   -0.48907
 Alpha virt. eigenvalues --   -0.38094  -0.34417  -0.33335  -0.27682  -0.20021
 Alpha virt. eigenvalues --   -0.14722  -0.13942  -0.11174  -0.10879  -0.09194
 Alpha virt. eigenvalues --   -0.08604  -0.07372  -0.06878  -0.06774  -0.05058

  Beta  occ. eigenvalues --  -10.55990 -10.55967 -10.51733 -10.51414 -10.50139
  Beta  occ. eigenvalues --  -10.47502 -10.42029  -1.29145  -1.07410  -1.00712
  Beta  occ. eigenvalues --   -0.92941  -0.85644  -0.82313  -0.71340  -0.70617
  Beta  occ. eigenvalues --   -0.59644  -0.59512  -0.57050  -0.51046  -0.48379
  Beta virt. eigenvalues --   -0.42378  -0.37784  -0.33874  -0.32429  -0.25969
  Beta virt. eigenvalues --   -0.18481  -0.14624  -0.13967  -0.10852  -0.10811
  Beta virt. eigenvalues --   -0.08607  -0.08415  -0.07347  -0.06693  -0.06604

 Mulliken charges and spin densities:
               1          2
     1  C    0.875656   0.192420
     2  C   -0.149448  -0.078175
     3  C   -0.935918  -0.032829
     4  C    0.874360   0.192424
     5  C    1.525773  -0.024921
     6  C   -0.496396  -0.052670
     7  C   -0.694027   0.803751
 Sum of Mulliken charges =   1.00000   1.00000

 Dipole moment (field-independent basis, Debye):
    X=             -3.4240    Y=             -0.0000    Z=              0.0005  Tot=              3.4240
 Quadrupole moment (field-independent basis, Debye-Ang):
   XX=            -19.6603   YY=            -33.4989   ZZ=            -35.5551
   XY=             -0.0023   XZ=              0.0002   YZ=              0.0000

  Exact polarizability: 161.425   0.002  46.699   0.018  -0.000  37.609
 Approx polarizability: 395.000   0.012  93.661   0.019   0.000  55.410

                      1                      2                      3
                      A                      A                      A
 Frequencies --     98.7972               105.1489               206.2821
 Red. masses --     12.0000                12.0000                12.0000
 Frc consts  --      0.0690                 0.0782                 0.3009
 IR Inten    --      4.3644                 1.2440                 0.5777

                      4                      5                      6
                      A                      A                      A
 Frequencies --    253.6679               340.7128               504.6300
 Red. masses --     12.0000                12.0000                12.0000
 Frc consts  --      0.4549                 0.8207                 1.8004
 IR Inten    --      2.7518                23.5004                 8.3313

                      7                      8                      9
                      A                      A                      A
 Frequencies --    574.0002               578.8182               647.2519
 Red. masses --     12.0000                12.0000                12.0000
 Frc consts  --      2.3295                 2.3687                 2.9620
 IR Inten    --     13.5937                 6.2407                 5.5431

                     10                     11                     12
                      A                      A                      A
 Frequencies --    905.8642               993.6076              1284.8647
 Red. masses --     12.0000                12.0000                12.0000
 Frc consts  --      5.8017                 6.9801                11.6720
 IR Inten    --      9.6347                15.0573                83.8472

                     13                     14                     15
                      A                      A                      A
 Frequencies --   1646.9695              1741.8970              2189.6809
 Red. masses --     12.0000                12.0000                12.0000
 Frc consts  --     19.1780                21.4524                33.8995
 IR Inten    --      0.6670                70.7131              1263.1835

 - Thermochemistry -
 -------------------
 Temperature   298.150 Kelvin.  Pressure   1.00000 Atm.
 Atom     1 has atomic number  6 and mass  12.00000

 Molecular mass:    84.00000 amu.
 Principal axes and moments of inertia in atomic units:
                           1         2         3
     Eigenvalues --    49.775741304.083391353.85911
           X            1.00000   0.00000   0.00000
           Y           -0.00000   1.00000   0.00000
           Z            0.00000  -0.00000   1.00000
 This molecule is an asymmetric top.
 Rotational symmetry number  1.
 Rotational temperatures (Kelvin)      1.74008     0.06642     0.06398
 Rotational constants (GHZ):          36.25745     1.38392     1.33303
 Zero-point vibrational energy      72207.7 (Joules/Mol)
                                   17.25807 (Kcal/Mol)
 Warning -- explicit consideration of   8 degrees of freedom as
           vibrations may cause significant error
 Vibrational temperatures:    142.15   151.29   296.79   364.97   490.21
          (Kelvin)            726.05   825.86   832.79   931.25  1303.33
                             1429.58  1848.63  2369.62  2506.20  3150.46

 Zero-point correction=                           0.027502 (Hartree/Particle)
 Thermal correction to Energy=                    0.034011
 Thermal correction to Enthalpy=                  0.034955
 Thermal correction to Gibbs Free Energy=        -0.003367
 Sum of electronic and zero-point Energies=           -265.972680
 Sum of electronic and thermal Energies=              -265.966171
 Sum of electronic and thermal Enthalpies=            -265.965227
 Sum of electronic and thermal Free Energies=         -266.003550

                     E (Thermal)             CV                S
                      KCal/Mol        Cal/Mol-Kelvin    Cal/Mol-Kelvin
 Total                   21.342             20.490             80.656
 Electronic               0.000              0.000              1.377
 Translational            0.889              2.981             39.198
 Rotational               0.889              2.981             25.977
 Vibrational             19.565             14.528             14.103
 Vibration     1          0.604              1.950              3.478
 Vibration     2          0.605              1.945              3.357
 Vibration     3          0.641              1.831              2.076
 Vibration     4          0.665              1.757              1.705
 Vibration     5          0.720              1.594              1.209
 Vibration     6          0.860              1.240              0.647
 Vibration     7          0.930              1.087              0.497
 Vibration     8          0.935              1.077              0.488

 Optimization completed.
    -- Stationary point found.
 Normal termination of Gaussian 09 at Tue Nov  1 20:22:10 2016.
