 Gaussian 09, Revision E.01,
 Gaussian 09:  EM64L-G09RevE.01 30-Nov-2015

 -----------------------------------------
 #p b3lyp/6-311+G(3df) freq symmetry=Loose
 -----------------------------------------

 ---------
 b3lyp opt
 ---------
 Symbolic Z-matrix:
 Charge =  1 Multiplicity = 4

                         Standard orientation:
 ---------------------------------------------------------------------
 Center     Atomic      Atomic             Coordinates (Angstroms)
 Number     Number       Type             X           Y           Z
 ---------------------------------------------------------------------
      1          6           0       -3.858602   -0.200638    0.000727
      2          6           0        3.858655   -0.200346   -0.000760
      3          6           0        2.557030    0.090113   -0.000009
      4          6           0       -2.557051    0.090253   -0.000391
      5          6           0       -1.283184    0.076283   -0.001796
      6          6           0        1.283162    0.075697    0.001915
      7          6           0       -0.000011    0.068638    0.000314
 ---------------------------------------------------------------------

 SCF Done:  E(UB3LYP) =  -266.016592516     A.U. after   24 cycles

 The electronic state is 4-A.
 Alpha  occ. eigenvalues --  -10.51855 -10.49597 -10.49596 -10.48495 -10.48487
 Alpha  occ. eigenvalues --  -10.47719 -10.47717  -1.10958  -1.07177  -1.03290
 Alpha  occ. eigenvalues --   -0.97082  -0.90760  -0.86049  -0.66554  -0.65614
 Alpha  occ. eigenvalues --   -0.60920  -0.59889  -0.55222  -0.54832  -0.54231
 Alpha  occ. eigenvalues --   -0.52661  -0.44264
 Alpha virt. eigenvalues --   -0.37922  -0.30087  -0.28234  -0.17152  -0.16863
 Alpha virt. eigenvalues --   -0.15739  -0.11157  -0.09896  -0.09784  -0.08801
 Alpha virt. eigenvalues --   -0.06254  -0.06105  -0.05358  -0.05143  -0.04861

  Beta  occ. eigenvalues --  -10.50974 -10.48424 -10.48416 -10.48363 -10.48362
  Beta  occ. eigenvalues --  -10.47103 -10.47101  -1.08934  -1.05169  -0.99675
  Beta  occ. eigenvalues --   -0.94132  -0.88584  -0.84743  -0.63667  -0.62535
  Beta  occ. eigenvalues --   -0.57554  -0.56168  -0.52027  -0.50954
  Beta virt. eigenvalues --   -0.43895  -0.43748  -0.35423  -0.33975  -0.25097
  Beta virt. eigenvalues --   -0.23703  -0.15546  -0.15010  -0.12218  -0.10772
  Beta virt. eigenvalues --   -0.09626  -0.09438  -0.07761  -0.05956  -0.05627

 Mulliken charges and spin densities:
               1          2
     1  C   -0.334394   0.754238
     2  C   -0.334417   0.754437
     3  C    1.105571   0.374530
     4  C    1.106101   0.374461
     5  C   -0.076833   0.267760
     6  C   -0.075894   0.267313
     7  C   -0.390134   0.207262
 Sum of Mulliken charges =   1.00000   3.00000

 Dipole moment (field-independent basis, Debye):
    X=              0.0005    Y=              0.7778    Z=             -0.0007  Tot=              0.7778
 Quadrupole moment (field-independent basis, Debye-Ang):
   XX=            -12.4284   YY=            -34.9908   ZZ=            -35.7548
   XY=             -0.0017   XZ=             -0.0007   YZ=             -0.0015

  Exact polarizability: 371.590   0.010  40.129  -0.091   0.005  42.754
 Approx polarizability: 924.839   0.007  60.201  -0.077  -0.002  56.791

                      1                      2                      3
                      A                      A                      A
 Frequencies --     74.2674               141.0024               146.5719
 Red. masses --     12.0000                12.0000                12.0000
 Frc consts  --      0.0390                 0.1406                 0.1519
 IR Inten    --      2.6407                21.0803                72.2659

                      4                      5                      6
                      A                      A                      A
 Frequencies --    154.4157               271.9999               309.4704
 Red. masses --     12.0000                12.0000                12.0000
 Frc consts  --      0.1686                 0.5231                 0.6771
 IR Inten    --      0.0030                 2.3983                 0.0002

                      7                      8                      9
                      A                      A                      A
 Frequencies --    432.7976               548.6867               571.5474
 Red. masses --     12.0000                12.0000                12.0000
 Frc consts  --      1.3243                 2.1285                 2.3096
 IR Inten    --    201.2370                10.2680                 0.0210

                     10                     11                     12
                      A                      A                      A
 Frequencies --    629.5086               990.0292              1328.6576
 Red. masses --     12.0000                12.0000                12.0000
 Frc consts  --      2.8018                 6.9299                12.4812
 IR Inten    --      0.2337                 0.0764                10.9270

                     13                     14                     15
                      A                      A                      A
 Frequencies --   1664.9556              1879.1332              1947.6661
 Red. masses --     12.0000                12.0000                12.0000
 Frc consts  --     19.5991                24.9659                26.8201
 IR Inten    --     87.2886              1043.7888                 4.8437

 - Thermochemistry -
 -------------------
 Temperature   298.150 Kelvin.  Pressure   1.00000 Atm.
 Atom     1 has atomic number  6 and mass  12.00000

 Molecular mass:    84.00000 amu.
 Principal axes and moments of inertia in atomic units:
                           1         2         3
     Eigenvalues --     4.839311977.570461982.40906
           X            1.00000  -0.00000   0.00000
           Y           -0.00000   1.00000  -0.00000
           Z           -0.00000   0.00000   1.00000
 This molecule is an asymmetric top.
 Rotational symmetry number  1.
 Rotational temperatures (Kelvin)     17.89798     0.04380     0.04369
 Rotational constants (GHZ):         372.93378     0.91261     0.91038
 Zero-point vibrational energy      66337.2 (Joules/Mol)
                                   15.85497 (Kcal/Mol)
 Warning -- explicit consideration of   9 degrees of freedom as
           vibrations may cause significant error
 Vibrational temperatures:    106.85   202.87   210.88   222.17   391.35
          (Kelvin)            445.26   622.70   789.44   822.33   905.72
                             1424.43  1911.64  2395.50  2703.65  2802.25

 Zero-point correction=                           0.025266 (Hartree/Particle)
 Thermal correction to Energy=                    0.032536
 Thermal correction to Enthalpy=                  0.033480
 Thermal correction to Gibbs Free Energy=        -0.006406
 Sum of electronic and zero-point Energies=           -265.991326
 Sum of electronic and thermal Energies=              -265.984057
 Sum of electronic and thermal Enthalpies=            -265.983113
 Sum of electronic and thermal Free Energies=         -266.022999

                     E (Thermal)             CV                S
                      KCal/Mol        Cal/Mol-Kelvin    Cal/Mol-Kelvin
 Total                   20.416             22.227             83.947
 Electronic               0.000              0.000              2.755
 Translational            0.889              2.981             39.198
 Rotational               0.889              2.981             24.454
 Vibrational             18.639             16.265             17.540
 Vibration     1          0.599              1.966              4.037
 Vibration     2          0.615              1.912              2.790
 Vibration     3          0.617              1.906              2.716
 Vibration     4          0.620              1.898              2.617
 Vibration     5          0.675              1.725              1.583
 Vibration     6          0.699              1.656              1.365
 Vibration     7          0.794              1.399              0.850
 Vibration     8          0.904              1.143              0.547
 Vibration     9          0.928              1.093              0.501

 Normal termination of Gaussian 09 at Tue Nov  1 20:01:43 2016.
