 Gaussian 09, Revision E.01,
 Gaussian 09:  EM64L-G09RevE.01 30-Nov-2015

 -----------------------------------------
 #p b3lyp/6-311+G(3df) freq symmetry=Loose
 -----------------------------------------

 ---------
 b3lyp opt
 ---------
 Symbolic Z-matrix:
 Charge =  1 Multiplicity = 2

                         Standard orientation:
 ---------------------------------------------------------------------
 Center     Atomic      Atomic             Coordinates (Angstroms)
 Number     Number       Type             X           Y           Z
 ---------------------------------------------------------------------
      1          6           0       -1.072909   -1.205320    0.000064
      2          6           0        0.336699    1.280538   -0.000089
      3          6           0        0.221653   -1.304578   -0.000114
      4          6           0        1.391042   -0.746841    0.000053
      5          6           0       -0.960330    1.287940    0.000038
      6          6           0       -1.376291    0.057965   -0.000006
      7          6           0        1.460137    0.630296    0.000054
 ---------------------------------------------------------------------

 SCF Done:  E(UB3LYP) =  -266.102911279     A.U. after   20 cycles

 The electronic state is 2-A.
 Alpha  occ. eigenvalues --  -10.53260 -10.51341 -10.51275 -10.49644 -10.49604
 Alpha  occ. eigenvalues --  -10.49186 -10.49110  -1.18775  -1.08433  -1.08342
 Alpha  occ. eigenvalues --   -0.94945  -0.89597  -0.80381  -0.78706  -0.69031
 Alpha  occ. eigenvalues --   -0.68931  -0.58729  -0.58023  -0.57972  -0.57611
 Alpha  occ. eigenvalues --   -0.46781
 Alpha virt. eigenvalues --   -0.34804  -0.34264  -0.33502  -0.32622  -0.27860
 Alpha virt. eigenvalues --   -0.15370  -0.12043  -0.11075  -0.10291  -0.10290
 Alpha virt. eigenvalues --   -0.10066  -0.08687  -0.06118  -0.06091  -0.05876

  Beta  occ. eigenvalues --  -10.53437 -10.51443 -10.51374 -10.49283 -10.49270
  Beta  occ. eigenvalues --  -10.48222 -10.48158  -1.18535  -1.08095  -1.07470
  Beta  occ. eigenvalues --   -0.93779  -0.89642  -0.80066  -0.77834  -0.68811
  Beta  occ. eigenvalues --   -0.67679  -0.58659  -0.57339  -0.55741  -0.53536
  Beta virt. eigenvalues --   -0.36463  -0.33795  -0.33412  -0.32514  -0.31143
  Beta virt. eigenvalues --   -0.27533  -0.15301  -0.11775  -0.10231  -0.10071
  Beta virt. eigenvalues --   -0.09928  -0.09814  -0.08596  -0.06058  -0.06044

 Mulliken charges and spin densities:
               1          2
     1  C    0.124099   0.246048
     2  C    0.434131  -0.189629
     3  C    0.407198  -0.191868
     4  C   -0.203818   0.489168
     5  C    0.135416   0.235883
     6  C    0.305037  -0.089878
     7  C   -0.202061   0.500277
 Sum of Mulliken charges =   1.00000   1.00000

 Dipole moment (field-independent basis, Debye):
    X=             -0.9495    Y=              0.0472    Z=             -0.0004  Tot=              0.9507
 Quadrupole moment (field-independent basis, Debye-Ang):
   XX=            -29.1137   YY=            -28.0126   ZZ=            -34.9253
   XY=              0.0423   XZ=             -0.0002   YZ=              0.0000

  Exact polarizability:  78.927   0.293  75.306  -0.001  -0.000  34.118
 Approx polarizability: 207.596   1.011 187.692  -0.001  -0.000  50.502

                      1                      2                      3
                      A                      A                      A
 Frequencies --     42.1729               381.1672               391.3194
 Red. masses --     12.0000                12.0000                12.0000
 Frc consts  --      0.0126                 1.0272                 1.0827
 IR Inten    --      1.4410                13.6915                 2.1614

                      4                      5                      6
                      A                      A                      A
 Frequencies --    466.3311               473.7606               534.3136
 Red. masses --     12.0000                12.0000                12.0000
 Frc consts  --      1.5375                 1.5869                 2.0185
 IR Inten    --     32.4189                 0.9524                 0.0531

                      7                      8                      9
                      A                      A                      A
 Frequencies --    546.2035               560.7031              1049.5323
 Red. masses --     12.0000                12.0000                12.0000
 Frc consts  --      2.1093                 2.2228                 7.7879
 IR Inten    --      0.0001                17.3047                 1.4005

                     10                     11                     12
                      A                      A                      A
 Frequencies --   1235.9340              1251.0282              1531.7796
 Red. masses --     12.0000                12.0000                12.0000
 Frc consts  --     10.8000                11.0654                16.5891
 IR Inten    --      9.8815                11.7543                19.3163

                     13                     14                     15
                      A                      A                      A
 Frequencies --   1587.2854              1739.1987              1757.6410
 Red. masses --     12.0000                12.0000                12.0000
 Frc consts  --     17.8132                21.3860                21.8420
 IR Inten    --     23.5723               149.7563               135.8202

 - Thermochemistry -
 -------------------
 Temperature   298.150 Kelvin.  Pressure   1.00000 Atm.
 Atom     1 has atomic number  6 and mass  12.00000

 Molecular mass:    84.00000 amu.
 Principal axes and moments of inertia in atomic units:
                           1         2         3
     Eigenvalues --   317.61162 351.26580 668.87743
           X            1.00000   0.00000   0.00000
           Y           -0.00000   1.00000   0.00000
           Z           -0.00000  -0.00000   1.00000
 This molecule is an asymmetric top.
 Rotational symmetry number  1.
 Rotational temperatures (Kelvin)      0.27270     0.24658     0.12949
 Rotational constants (GHZ):           5.68223     5.13782     2.69816
 Zero-point vibrational energy      81037.3 (Joules/Mol)
                                   19.36837 (Kcal/Mol)
 Warning -- explicit consideration of   8 degrees of freedom as
           vibrations may cause significant error
 Vibrational temperatures:     60.68   548.41   563.02   670.95   681.64
          (Kelvin)            768.76   785.86   806.73  1510.04  1778.23
                             1799.95  2203.89  2283.75  2502.32  2528.85

 Zero-point correction=                           0.030865 (Hartree/Particle)
 Thermal correction to Energy=                    0.036335
 Thermal correction to Enthalpy=                  0.037279
 Thermal correction to Gibbs Free Energy=         0.000753
 Sum of electronic and zero-point Energies=           -266.072046
 Sum of electronic and thermal Energies=              -266.066577
 Sum of electronic and thermal Enthalpies=            -266.065632
 Sum of electronic and thermal Free Energies=         -266.102158

                     E (Thermal)             CV                S
                      KCal/Mol        Cal/Mol-Kelvin    Cal/Mol-Kelvin
 Total                   22.800             17.878             76.874
 Electronic               0.000              0.000              1.377
 Translational            0.889              2.981             39.198
 Rotational               0.889              2.981             25.815
 Vibrational             21.023             11.917             10.483
 Vibration     1          0.595              1.980              5.154
 Vibration     2          0.751              1.510              1.035
 Vibration     3          0.759              1.489              0.995
 Vibration     4          0.824              1.325              0.748
 Vibration     5          0.831              1.308              0.727
 Vibration     6          0.889              1.174              0.578
 Vibration     7          0.901              1.148              0.552
 Vibration     8          0.916              1.116              0.522

 Normal termination of Gaussian 09 at Tue Nov  1 19:58:51 2016.
