 Gaussian 09, Revision E.01,
 Gaussian 09:  EM64L-G09RevE.01 30-Nov-2015

 -----------------------------------------
 #p b3lyp/6-311+G(3df) freq symmetry=Loose
 -----------------------------------------

 ---------
 b3lyp opt
 ---------
 Symbolic Z-matrix:
 Charge =  1 Multiplicity = 2

                         Standard orientation:
 ---------------------------------------------------------------------
 Center     Atomic      Atomic             Coordinates (Angstroms)
 Number     Number       Type             X           Y           Z
 ---------------------------------------------------------------------
      1          6           0       -1.104806    0.108523    0.259122
      2          6           0        0.167147   -1.174413    0.380151
      3          6           0       -0.071931    0.208416   -1.226694
      4          6           0       -0.136376   -1.122546   -0.946146
      5          6           0        0.454280    0.912121    0.717402
      6          6           0        0.203889    1.354649   -0.545367
      7          6           0        0.487797   -0.286751    1.361532
 ---------------------------------------------------------------------

 SCF Done:  E(UB3LYP) =  -265.893891750     A.U. after   18 cycles

 The electronic state is 2-A.
 Alpha  occ. eigenvalues --  -10.59826 -10.55544 -10.55543 -10.55541 -10.52922
 Alpha  occ. eigenvalues --  -10.52919 -10.52915  -1.28549  -1.09396  -1.09390
 Alpha  occ. eigenvalues --   -0.88149  -0.88144  -0.87963  -0.77304  -0.71068
 Alpha  occ. eigenvalues --   -0.65480  -0.65472  -0.58352  -0.56384  -0.56381
 Alpha  occ. eigenvalues --   -0.48602
 Alpha virt. eigenvalues --   -0.37269  -0.37257  -0.31475  -0.31443  -0.29625
 Alpha virt. eigenvalues --   -0.27679  -0.27636  -0.13867  -0.11639  -0.10195
 Alpha virt. eigenvalues --   -0.09736  -0.09735  -0.07530  -0.07526  -0.07054

  Beta  occ. eigenvalues --  -10.59908 -10.55088 -10.55085 -10.55082 -10.52351
  Beta  occ. eigenvalues --  -10.52347 -10.52343  -1.28573  -1.08958  -1.08951
  Beta  occ. eigenvalues --   -0.87715  -0.87194  -0.87190  -0.77090  -0.69046
  Beta  occ. eigenvalues --   -0.64834  -0.64828  -0.58178  -0.53711  -0.53706
  Beta virt. eigenvalues --   -0.39929  -0.33843  -0.33835  -0.30391  -0.30355
  Beta virt. eigenvalues --   -0.29372  -0.27363  -0.27314  -0.13359  -0.10695
  Beta virt. eigenvalues --   -0.09849  -0.09494  -0.09493  -0.07226  -0.07223

 Mulliken charges and spin densities:
               1          2
     1  C   -0.098175  -0.031194
     2  C    0.408215   0.135450
     3  C    0.406657   0.135842
     4  C   -0.042028   0.208829
     5  C    0.408656   0.134360
     6  C   -0.041532   0.208749
     7  C   -0.041794   0.207964
 Sum of Mulliken charges =   1.00000   1.00000

 Dipole moment (field-independent basis, Debye):
    X=              1.0955    Y=             -0.1075    Z=             -0.2543  Tot=              1.1298
 Quadrupole moment (field-independent basis, Debye-Ang):
   XX=            -34.3118   YY=            -32.1034   ZZ=            -32.2016
   XY=              0.2277   XZ=              0.5251   YZ=             -0.0522

  Exact polarizability:  46.357   3.240  78.505   7.624  -0.774  77.085
 Approx polarizability: 103.467  13.329 235.514  31.332  -3.204 229.766

                      1                      2                      3
                      A                      A                      A
 Frequencies --    217.6926               244.0140               246.3531
 Red. masses --     12.0000                12.0000                12.0000
 Frc consts  --      0.3351                 0.4210                 0.4291
 IR Inten    --      0.8031                 5.7958                 5.7628

                      4                      5                      6
                      A                      A                      A
 Frequencies --    343.6623               427.1820               427.9892
 Red. masses --     12.0000                12.0000                12.0000
 Frc consts  --      0.8350                 1.2902                 1.2951
 IR Inten    --      0.2613                 5.3626                 5.1838

                      7                      8                      9
                      A                      A                      A
 Frequencies --    566.9145               569.6897               682.2560
 Red. masses --     12.0000                12.0000                12.0000
 Frc consts  --      2.2723                 2.2946                 3.2910
 IR Inten    --     19.4323                17.5796                70.9438

                     10                     11                     12
                      A                      A                      A
 Frequencies --    809.3212               812.6247              1124.1245
 Red. masses --     12.0000                12.0000                12.0000
 Frc consts  --      4.6310                 4.6689                 8.9343
 IR Inten    --    284.9205               284.9354                 0.1090

                     13                     14                     15
                      A                      A                      A
 Frequencies --   1283.1278              1507.7416              1508.2216
 Red. masses --     12.0000                12.0000                12.0000
 Frc consts  --     11.6405                16.0726                16.0828
 IR Inten    --      0.0034               137.0148               136.8521

 - Thermochemistry -
 -------------------
 Temperature   298.150 Kelvin.  Pressure   1.00000 Atm.
 Atom     1 has atomic number  6 and mass  12.00000

 Molecular mass:    84.00000 amu.
 Principal axes and moments of inertia in atomic units:
                           1         2         3
     Eigenvalues --   299.83865 299.91276 469.81255
           X            0.24705   0.00000   0.96900
           Y            0.38022   0.91980  -0.09694
           Z            0.89129  -0.39238  -0.22724
 This molecule is an asymmetric top.
 Rotational symmetry number  1.
 Rotational temperatures (Kelvin)      0.28887     0.28880     0.18436
 Rotational constants (GHZ):           6.01904     6.01755     3.84141
 Zero-point vibrational energy      64424.4 (Joules/Mol)
                                   15.39780 (Kcal/Mol)
 Warning -- explicit consideration of   8 degrees of freedom as
           vibrations may cause significant error
 Vibrational temperatures:    313.21   351.08   354.45   494.45   614.62
          (Kelvin)            615.78   815.66   819.66   981.61  1164.43
                             1169.18  1617.36  1846.13  2169.30  2169.99

 Zero-point correction=                           0.024538 (Hartree/Particle)
 Thermal correction to Energy=                    0.030497
 Thermal correction to Enthalpy=                  0.031441
 Thermal correction to Gibbs Free Energy=        -0.004721
 Sum of electronic and zero-point Energies=           -265.869354
 Sum of electronic and thermal Energies=              -265.863395
 Sum of electronic and thermal Enthalpies=            -265.862450
 Sum of electronic and thermal Free Energies=         -265.898613

                     E (Thermal)             CV                S
                      KCal/Mol        Cal/Mol-Kelvin    Cal/Mol-Kelvin
 Total                   19.137             20.617             76.110
 Electronic               0.000              0.000              1.377
 Translational            0.889              2.981             39.198
 Rotational               0.889              2.981             25.250
 Vibrational             17.360             14.655             10.285
 Vibration     1          0.646              1.814              1.978
 Vibration     2          0.659              1.773              1.773
 Vibration     3          0.661              1.769              1.757
 Vibration     4          0.722              1.588              1.195
 Vibration     5          0.789              1.411              0.868
 Vibration     6          0.789              1.409              0.865
 Vibration     7          0.923              1.103              0.510
 Vibration     8          0.926              1.097              0.505

 Normal termination of Gaussian 09 at Tue Nov  1 20:28:08 2016.
