 Gaussian 09, Revision E.01,
 Gaussian 09:  EM64L-G09RevE.01 30-Nov-2015

 -----------------------------------------
 #p b3lyp/6-311+G(3df) freq symmetry=Loose
 -----------------------------------------

 ---------
 b3lyp opt
 ---------
 Symbolic Z-matrix:
 Charge =  1 Multiplicity = 4

                         Standard orientation:
 ---------------------------------------------------------------------
 Center     Atomic      Atomic             Coordinates (Angstroms)
 Number     Number       Type             X           Y           Z
 ---------------------------------------------------------------------
      1          6           0        3.869846   -0.142579    0.000047
      2          6           0        2.556074    0.089933    0.000175
      3          6           0        1.283192    0.041967   -0.000161
      4          6           0       -0.000006    0.020997   -0.000120
      5          6           0       -1.283179    0.042571   -0.000156
      6          6           0       -2.556066    0.089806    0.000161
      7          6           0       -3.869861   -0.142695    0.000054
 ---------------------------------------------------------------------

 SCF Done:  E(UB3LYP) =  -266.016549160     A.U. after   32 cycles

 The electronic state is 4-A.
 Alpha  occ. eigenvalues --  -10.51891 -10.49588 -10.49585 -10.48510 -10.48503
 Alpha  occ. eigenvalues --  -10.47741 -10.47738  -1.10973  -1.07174  -1.03293
 Alpha  occ. eigenvalues --   -0.97106  -0.90799  -0.86074  -0.66568  -0.65640
 Alpha  occ. eigenvalues --   -0.60928  -0.59907  -0.55185  -0.54776  -0.54234
 Alpha  occ. eigenvalues --   -0.52652  -0.44266
 Alpha virt. eigenvalues --   -0.37955  -0.30104  -0.28272  -0.16978  -0.16867
 Alpha virt. eigenvalues --   -0.15745  -0.11205  -0.09883  -0.09793  -0.08646
 Alpha virt. eigenvalues --   -0.06258  -0.06149  -0.05357  -0.04844  -0.04764

  Beta  occ. eigenvalues --  -10.51007 -10.48439 -10.48431 -10.48362 -10.48359
  Beta  occ. eigenvalues --  -10.47122 -10.47119  -1.08944  -1.05167  -0.99671
  Beta  occ. eigenvalues --   -0.94148  -0.88622  -0.84771  -0.63673  -0.62550
  Beta  occ. eigenvalues --   -0.57543  -0.56177  -0.52002  -0.50975
  Beta virt. eigenvalues --   -0.43923  -0.43752  -0.35456  -0.33987  -0.25124
  Beta virt. eigenvalues --   -0.23724  -0.15554  -0.14820  -0.12220  -0.10807
  Beta virt. eigenvalues --   -0.09638  -0.09448  -0.07665  -0.05971  -0.05629

 Mulliken charges and spin densities:
               1          2
     1  C   -0.348369   0.747045
     2  C    1.136121   0.377766
     3  C   -0.091489   0.271306
     4  C   -0.391730   0.207589
     5  C   -0.093490   0.272227
     6  C    1.138177   0.377974
     7  C   -0.349219   0.746092
 Sum of Mulliken charges =   1.00000   3.00000

 Dipole moment (field-independent basis, Debye):
    X=              0.0022    Y=              0.6836    Z=              0.0008  Tot=              0.6836
 Quadrupole moment (field-independent basis, Debye-Ang):
   XX=            -12.8545   YY=            -34.8600   ZZ=            -35.7597
   XY=              0.0002   XZ=              0.0002   YZ=              0.0015

  Exact polarizability: 371.486  -0.008  39.916   0.000  -0.006  42.887
 Approx polarizability: 921.102  -0.013  59.076  -0.000   0.002  56.852

                      1                      2                      3
                      A                      A                      A
 Frequencies --     74.2170               130.9435               141.8091
 Red. masses --     12.0000                12.0000                12.0000
 Frc consts  --      0.0389                 0.1212                 0.1422
 IR Inten    --      2.9642                13.3156                78.5907

                      4                      5                      6
                      A                      A                      A
 Frequencies --    154.1727               268.5162               309.2421
 Red. masses --     12.0000                12.0000                12.0000
 Frc consts  --      0.1681                 0.5098                 0.6761
 IR Inten    --      0.0007                 3.4767                 0.0000

                      7                      8                      9
                      A                      A                      A
 Frequencies --    428.3617               551.0666               570.8646
 Red. masses --     12.0000                12.0000                12.0000
 Frc consts  --      1.2973                 2.1470                 2.3041
 IR Inten    --    209.2718                10.5350                 0.0634

                     10                     11                     12
                      A                      A                      A
 Frequencies --    629.3960               987.3944              1326.6869
 Red. masses --     12.0000                12.0000                12.0000
 Frc consts  --      2.8008                 6.8931                12.4442
 IR Inten    --      0.0963                 0.0216                11.5158

                     13                     14                     15
                      A                      A                      A
 Frequencies --   1666.6776              1877.9860              1948.3295
 Red. masses --     12.0000                12.0000                12.0000
 Frc consts  --     19.6397                24.9354                26.8384
 IR Inten    --     70.2714              1006.9669                 7.0280

 - Thermochemistry -
 -------------------
 Temperature   298.150 Kelvin.  Pressure   1.00000 Atm.
 Atom     1 has atomic number  6 and mass  12.00000

 Molecular mass:    84.00000 amu.
 Principal axes and moments of inertia in atomic units:
                           1         2         3
     Eigenvalues --     2.607951984.582881987.19082
           X            1.00000  -0.00000   0.00000
           Y            0.00000   1.00000   0.00000
           Z            0.00000  -0.00000   1.00000
 This molecule is an asymmetric top.
 Rotational symmetry number  1.
 Rotational temperatures (Kelvin)     33.21151     0.04364     0.04359
 Rotational constants (GHZ):         692.01651     0.90938     0.90819
 Zero-point vibrational energy      66187.4 (Joules/Mol)
                                   15.81916 (Kcal/Mol)
 Warning -- explicit consideration of   9 degrees of freedom as
           vibrations may cause significant error
 Vibrational temperatures:    106.78   188.40   204.03   221.82   386.33
          (Kelvin)            444.93   616.32   792.86   821.35   905.56
                             1420.64  1908.80  2397.97  2702.00  2803.21

 Zero-point correction=                           0.025209 (Hartree/Particle)
 Thermal correction to Energy=                    0.032514
 Thermal correction to Enthalpy=                  0.033458
 Thermal correction to Gibbs Free Energy=        -0.006256
 Sum of electronic and zero-point Energies=           -265.991340
 Sum of electronic and thermal Energies=              -265.984036
 Sum of electronic and thermal Enthalpies=            -265.983091
 Sum of electronic and thermal Free Energies=         -266.022805

                     E (Thermal)             CV                S
                      KCal/Mol        Cal/Mol-Kelvin    Cal/Mol-Kelvin
 Total                   20.403             22.258             83.584
 Electronic               0.000              0.000              2.755
 Translational            0.889              2.981             39.198
 Rotational               0.889              2.981             23.846
 Vibrational             18.625             16.297             17.785
 Vibration     1          0.599              1.966              4.038
 Vibration     2          0.612              1.922              2.932
 Vibration     3          0.615              1.911              2.779
 Vibration     4          0.620              1.898              2.620
 Vibration     5          0.673              1.731              1.606
 Vibration     6          0.699              1.656              1.366
 Vibration     7          0.790              1.409              0.864
 Vibration     8          0.906              1.137              0.542
 Vibration     9          0.927              1.094              0.503

 Normal termination of Gaussian 09 at Tue Nov  1 20:26:43 2016.
