 Gaussian 09, Revision E.01,
 Gaussian 09:  EM64L-G09RevE.01 30-Nov-2015

 ------------------------------
 #p b3lyp/6-311++G(3df,2p) freq
 ------------------------------

 ---------
 b3lyp opt
 ---------
 Symbolic Z-matrix:
 Charge =  1 Multiplicity = 2

                         Standard orientation:
 ---------------------------------------------------------------------
 Center     Atomic      Atomic             Coordinates (Angstroms)
 Number     Number       Type             X           Y           Z
 ---------------------------------------------------------------------
      1         16           0        0.000000    0.000000    0.405327
      2          6           0        0.000000    0.000000   -1.080871
 ---------------------------------------------------------------------

 SCF Done:  E(UB3LYP) =  -435.837516550     A.U. after   13 cycles

 The electronic state is 2-SG.
 Alpha  occ. eigenvalues --  -89.24751 -10.65067  -8.33030  -6.29289  -6.28822
 Alpha  occ. eigenvalues --   -6.28822  -1.17946  -0.85238  -0.70770  -0.67703
 Alpha  occ. eigenvalues --   -0.67703
 Alpha virt. eigenvalues --   -0.40625  -0.40625  -0.20288  -0.16033  -0.11637
 Alpha virt. eigenvalues --   -0.11637  -0.10201  -0.06836  -0.06836  -0.05827
 Alpha virt. eigenvalues --   -0.05349  -0.05349  -0.00137   0.03414   0.03414

  Beta  occ. eigenvalues --  -89.24768 -10.62799  -8.33049  -6.29056  -6.29056
  Beta  occ. eigenvalues --   -6.28871  -1.16103  -0.81672  -0.66782  -0.66782
  Beta virt. eigenvalues --   -0.51632  -0.38021  -0.38021  -0.19739  -0.15399
  Beta virt. eigenvalues --   -0.11500  -0.11500  -0.08682  -0.07412  -0.07412
  Beta virt. eigenvalues --   -0.04927  -0.04884  -0.04884   0.00450   0.04870

 Mulliken charges and spin densities:
               1          2
     1  S    0.574152  -0.075894
     2  C    0.425848   1.075894
 Sum of Mulliken charges =   1.00000   1.00000

 Dipole moment (field-independent basis, Debye):
    X=              0.0000    Y=              0.0000    Z=             -0.5181  Tot=              0.5181
 Quadrupole moment (field-independent basis, Debye-Ang):
   XX=            -14.9815   YY=            -14.9815   ZZ=             -9.4569
   XY=              0.0000   XZ=              0.0000   YZ=              0.0000

  Exact polarizability:  17.331  -0.000  17.331   0.000   0.000  27.361
 Approx polarizability:  24.968  -0.000  24.968  -0.000  -0.000  72.985

                      1
                     SG
 Frequencies --   1419.5027
 Red. masses --     14.4661
 Frc consts  --     17.1741
 IR Inten    --     17.2284

 - Thermochemistry -
 -------------------
 Temperature   298.150 Kelvin.  Pressure   1.00000 Atm.
 Atom     1 has atomic number 16 and mass  31.97207

 Molecular mass:    43.97207 amu.
 Principal axes and moments of inertia in atomic units:
                           1         2         3
     Eigenvalues --     0.00000  68.82182  68.82182
           X            0.00000  -0.00000   1.00000
           Y            0.00000   1.00000   0.00000
           Z            1.00000   0.00000   0.00000
 This molecule is a prolate symmetric top.
 Rotational symmetry number  1.
 Rotational temperature (Kelvin)      1.25852
 Rotational constant (GHZ):          26.223385
 Zero-point vibrational energy       8490.5 (Joules/Mol)
                                    2.02928 (Kcal/Mol)
 Vibrational temperatures:   2042.35
          (Kelvin)

 Zero-point correction=                           0.003234 (Hartree/Particle)
 Thermal correction to Energy=                    0.005601
 Thermal correction to Enthalpy=                  0.006545
 Thermal correction to Gibbs Free Energy=        -0.017931
 Sum of electronic and zero-point Energies=           -435.834283
 Sum of electronic and thermal Energies=              -435.831915
 Sum of electronic and thermal Enthalpies=            -435.830971
 Sum of electronic and thermal Free Energies=         -435.855448

                     E (Thermal)             CV                S
                      KCal/Mol        Cal/Mol-Kelvin    Cal/Mol-Kelvin
 Total                    3.515              5.067             51.516
 Electronic               0.000              0.000              1.377
 Translational            0.889              2.981             37.269
 Rotational               0.592              1.987             12.853
 Vibrational              2.034              0.099              0.017

 Optimization completed.
    -- Stationary point found.
 Normal termination of Gaussian 09 at Wed Aug  3 20:49:42 2016.
