 Gaussian 09, Revision E.01,
 Gaussian 09:  EM64L-G09RevE.01 30-Nov-2015

 ------------------------------
 #p b3lyp/6-311++G(3df,2p) freq
 ------------------------------

 ---------
 b3lyp opt
 ---------
 Symbolic Z-matrix:
 Charge =  2 Multiplicity = 3

                         Standard orientation:
 ---------------------------------------------------------------------
 Center     Atomic      Atomic             Coordinates (Angstroms)
 Number     Number       Type             X           Y           Z
 ---------------------------------------------------------------------
      1         16           0        0.000000    0.000000    0.434542
      2          6           0        0.000000    0.000000   -1.158780
 ---------------------------------------------------------------------

 SCF Done:  E(UB3LYP) =  -435.053038032     A.U. after   14 cycles

 Unable to determine electronic state:  an orbital has unidentified symmetry.
 Alpha  occ. eigenvalues --  -89.66789 -11.06124  -8.73773  -6.70735  -6.69882
 Alpha  occ. eigenvalues --   -6.69132  -1.53530  -1.21339  -1.04618  -1.04050
 Alpha  occ. eigenvalues --   -1.00573
 Alpha virt. eigenvalues --   -0.78411  -0.75762  -0.54717  -0.38901  -0.37128
 Alpha virt. eigenvalues --   -0.36956  -0.32685  -0.31228  -0.29042  -0.28570
 Alpha virt. eigenvalues --   -0.27787  -0.26225  -0.21602  -0.21132  -0.16168

  Beta  occ. eigenvalues --  -89.66314 -11.03277  -8.73329  -6.69328  -6.69179
  Beta  occ. eigenvalues --   -6.69158  -1.48191  -1.15430  -0.98704
  Beta virt. eigenvalues --   -0.89712  -0.84016  -0.72001  -0.69593  -0.50919
  Beta virt. eigenvalues --   -0.37225  -0.35293  -0.35019  -0.30770  -0.30387
  Beta virt. eigenvalues --   -0.27028  -0.26346  -0.25805  -0.25005  -0.20827

 Mulliken charges and spin densities:
               1          2
     1  S    1.100931   0.695455
     2  C    0.899069   1.304545
 Sum of Mulliken charges =   2.00000   2.00000

 Dipole moment (field-independent basis, Debye):
    X=              0.0000    Y=              0.0000    Z=             -1.5737  Tot=              1.5737
 Quadrupole moment (field-independent basis, Debye-Ang):
   XX=            -11.2160   YY=            -13.0320   ZZ=             -3.4118
   XY=              0.0000   XZ=              0.0000   YZ=              0.0000

  Exact polarizability:  12.329   0.000  13.876  -0.000   0.000  24.178
 Approx polarizability:  19.283  -0.000  19.127  -0.000  -0.000  66.082

                      1
                     SG
 Frequencies --   1088.0843
 Red. masses --     14.4661
 Frc consts  --     10.0908
 IR Inten    --     32.8333

 - Thermochemistry -
 -------------------
 Temperature   298.150 Kelvin.  Pressure   1.00000 Atm.
 Atom     1 has atomic number 16 and mass  31.97207

 Molecular mass:    43.97207 amu.
 Principal axes and moments of inertia in atomic units:
                           1         2         3
     Eigenvalues --     0.00000  79.10063  79.10063
           X            0.00000  -0.00000   1.00000
           Y            0.00000   1.00000   0.00000
           Z            1.00000   0.00000   0.00000
 This molecule is a prolate symmetric top.
 Rotational symmetry number  1.
 Rotational temperature (Kelvin)      1.09498
 Rotational constant (GHZ):          22.815763
 Zero-point vibrational energy       6508.2 (Joules/Mol)
                                    1.55549 (Kcal/Mol)
 Vibrational temperatures:   1565.51
          (Kelvin)

 Zero-point correction=                           0.002479 (Hartree/Particle)
 Thermal correction to Energy=                    0.004865
 Thermal correction to Enthalpy=                  0.005810
 Thermal correction to Gibbs Free Energy=        -0.019205
 Sum of electronic and zero-point Energies=           -435.050559
 Sum of electronic and thermal Energies=              -435.048173
 Sum of electronic and thermal Enthalpies=            -435.047228
 Sum of electronic and thermal Free Energies=         -435.072243

                     E (Thermal)             CV                S
                      KCal/Mol        Cal/Mol-Kelvin    Cal/Mol-Kelvin
 Total                    3.053              5.258             52.647
 Electronic               0.000              0.000              2.183
 Translational            0.889              2.981             37.269
 Rotational               0.592              1.987             13.129
 Vibrational              1.572              0.290              0.065

 Optimization completed.
    -- Stationary point found.
 Normal termination of Gaussian 09 at Wed Aug  3 20:49:42 2016.
