 Gaussian 09, Revision E.01,
 Gaussian 09:  EM64L-G09RevE.01 30-Nov-2015

 ------------------------------
 #p b3lyp/6-311++G(3df,2p) freq
 ------------------------------

 ---------
 b3lyp opt
 ---------
 Symbolic Z-matrix:
 Charge =  1 Multiplicity = 2

                         Standard orientation:
 ---------------------------------------------------------------------
 Center     Atomic      Atomic             Coordinates (Angstroms)
 Number     Number       Type             X           Y           Z
 ---------------------------------------------------------------------
      1         16           0        1.538283   -0.473493   -0.088486
      2         16           0       -0.129507    0.773366    0.091538
      3          6           0       -1.512359   -0.178664   -0.030525
      4          6           0       -2.542949   -0.798933    0.020159
      5          1           0        1.911756   -0.209768    1.180915
      6          1           0       -0.120332    1.277382   -1.167546
 ---------------------------------------------------------------------

 SCF Done:  E(UB3LYP) =  -873.366863477     A.U. after   26 cycles

 The electronic state is 2-A.
 Alpha  occ. eigenvalues --  -89.20893 -89.11252 -10.47663 -10.42586  -8.28707
 Alpha  occ. eigenvalues --   -8.19661  -6.24928  -6.24813  -6.24382  -6.16164
 Alpha  occ. eigenvalues --   -6.15609  -6.15014  -1.11290  -0.99791  -0.94295
 Alpha  occ. eigenvalues --   -0.77562  -0.69790  -0.67206  -0.61380  -0.59221
 Alpha  occ. eigenvalues --   -0.53837  -0.52096  -0.50019
 Alpha virt. eigenvalues --   -0.30972  -0.25560  -0.22014  -0.20473  -0.18687
 Alpha virt. eigenvalues --   -0.17650  -0.11818  -0.10911  -0.10317  -0.09629
 Alpha virt. eigenvalues --   -0.07540  -0.06907  -0.06191  -0.05919  -0.05377

  Beta  occ. eigenvalues --  -89.20874 -89.11260 -10.45319 -10.42567  -8.28692
  Beta  occ. eigenvalues --   -8.19669  -6.24891  -6.24793  -6.24363  -6.16204
  Beta  occ. eigenvalues --   -6.15616  -6.15003  -1.11335  -0.98462  -0.93374
  Beta  occ. eigenvalues --   -0.77226  -0.69857  -0.67232  -0.59247  -0.52688
  Beta  occ. eigenvalues --   -0.50814  -0.49809
  Beta virt. eigenvalues --   -0.39629  -0.30300  -0.24854  -0.21503  -0.19970
  Beta virt. eigenvalues --   -0.17526  -0.16360  -0.11682  -0.10719  -0.10275
  Beta virt. eigenvalues --   -0.09493  -0.07557  -0.06800  -0.05947  -0.05666

 Mulliken charges and spin densities:
               1          2
     1  S    0.075299  -0.009762
     2  S   -0.546851   0.024135
     3  C    0.397576  -0.134189
     4  C    0.616403   1.127368
     5  H    0.212997   0.000272
     6  H    0.244575  -0.007824
 Sum of Mulliken charges =   1.00000   1.00000

 Dipole moment (field-independent basis, Debye):
    X=             -0.0567    Y=              1.0215    Z=             -0.0787  Tot=              1.0261
 Quadrupole moment (field-independent basis, Debye-Ang):
   XX=            -20.6336   YY=            -30.8464   ZZ=            -31.6432
   XY=              0.6698   XZ=              2.3043   YZ=             -1.7603

  Exact polarizability:  88.315   1.827  49.570  -0.066  -1.172  43.089
 Approx polarizability: 155.512   7.631  86.365  -1.568  -2.417  68.144

                      1                      2                      3
                      A                      A                      A
 Frequencies --    123.5299               170.6087               223.5603
 Red. masses --     13.6801                 2.2093                 1.8387
 Frc consts  --      0.1230                 0.0379                 0.0541
 IR Inten    --      0.7844                 7.1137                15.8680

                      4                      5                      6
                      A                      A                      A
 Frequencies --    317.5798               459.3337               706.0652
 Red. masses --      6.5572                21.1380                 2.7942
 Frc consts  --      0.3897                 2.6277                 0.8207
 IR Inten    --      0.7575                 8.0114                37.6133

                      7                      8                      9
                      A                      A                      A
 Frequencies --    744.4290               933.3323              1019.7460
 Red. masses --      1.6084                 1.1087                 1.0477
 Frc consts  --      0.5252                 0.5690                 0.6419
 IR Inten    --     28.6338                 1.5415                11.2296

                     10                     11                     12
                      A                      A                      A
 Frequencies --   2181.0322              2573.6636              2644.6580
 Red. masses --     11.8916                 1.0397                 1.0392
 Frc consts  --     33.3283                 4.0574                 4.2824
 IR Inten    --     62.0942                49.9969                43.0714

 - Thermochemistry -
 -------------------
 Temperature   298.150 Kelvin.  Pressure   1.00000 Atm.
 Atom     1 has atomic number 16 and mass  31.97207

 Molecular mass:    89.95979 amu.
 Principal axes and moments of inertia in atomic units:
                           1         2         3
     Eigenvalues --   140.30609 671.80208 789.31484
           X            0.99991  -0.00286   0.01321
           Y            0.00356   0.99861  -0.05262
           Z           -0.01304   0.05267   0.99853
 This molecule is an asymmetric top.
 Rotational symmetry number  1.
 Rotational temperatures (Kelvin)      0.61732     0.12893     0.10973
 Rotational constants (GHZ):          12.86289     2.68642     2.28647
 Zero-point vibrational energy      72359.3 (Joules/Mol)
                                   17.29430 (Kcal/Mol)
 Warning -- explicit consideration of   5 degrees of freedom as
           vibrations may cause significant error
 Vibrational temperatures:    177.73   245.47   321.65   456.93   660.88
          (Kelvin)           1015.87  1071.07  1342.86  1467.19  3138.01
                             3702.92  3805.07

 Zero-point correction=                           0.027560 (Hartree/Particle)
 Thermal correction to Energy=                    0.033159
 Thermal correction to Enthalpy=                  0.034103
 Thermal correction to Gibbs Free Energy=        -0.002411
 Sum of electronic and zero-point Energies=           -873.339303
 Sum of electronic and thermal Energies=              -873.333704
 Sum of electronic and thermal Enthalpies=            -873.332760
 Sum of electronic and thermal Free Energies=         -873.369275

                     E (Thermal)             CV                S
                      KCal/Mol        Cal/Mol-Kelvin    Cal/Mol-Kelvin
 Total                   20.808             16.940             76.852
 Electronic               0.000              0.000              1.377
 Translational            0.889              2.981             39.403
 Rotational               0.889              2.981             25.812
 Vibrational             19.030             10.978             10.260
 Vibration     1          0.610              1.929              3.044
 Vibration     2          0.626              1.879              2.429
 Vibration     3          0.649              1.805              1.930
 Vibration     4          0.704              1.640              1.323
 Vibration     5          0.817              1.340              0.768

 Normal termination of Gaussian 09 at Wed Aug  3 20:13:48 2016.
