 Gaussian 09, Revision E.01,
 Gaussian 09:  EM64L-G09RevE.01 30-Nov-2015

 ------------------------------
 #p b3lyp/6-311++G(3df,2p) freq
 ------------------------------

 ---------
 b3lyp opt
 ---------
 Symbolic Z-matrix:
 Charge =  1 Multiplicity = 2

                         Standard orientation:
 ---------------------------------------------------------------------
 Center     Atomic      Atomic             Coordinates (Angstroms)
 Number     Number       Type             X           Y           Z
 ---------------------------------------------------------------------
      1         16           0       -0.412372    0.847045    0.000255
      2         16           0        1.711673   -0.454979   -0.001063
      3          6           0       -1.569798   -0.197390   -0.000296
      4          6           0       -2.658830   -0.937672   -0.000107
      5          1           0        2.286980    0.260392    0.991288
      6          1           0        2.295974    0.276924   -0.975953
 ---------------------------------------------------------------------

 SCF Done:  E(UB3LYP) =  -873.390651210     A.U. after   22 cycles

 The electronic state is 2-A.
 Alpha  occ. eigenvalues --  -89.16703 -89.15015 -10.45439 -10.44091  -8.24762
 Alpha  occ. eigenvalues --   -8.23464  -6.21088  -6.20655  -6.20602  -6.19599
 Alpha  occ. eigenvalues --   -6.19399  -6.19189  -1.08209  -1.01828  -0.95056
 Alpha  occ. eigenvalues --   -0.72569  -0.70831  -0.65519  -0.60798  -0.59957
 Alpha  occ. eigenvalues --   -0.51290  -0.50263  -0.47946
 Alpha virt. eigenvalues --   -0.37280  -0.22970  -0.21873  -0.21268  -0.19034
 Alpha virt. eigenvalues --   -0.17152  -0.12770  -0.11362  -0.11235  -0.10046
 Alpha virt. eigenvalues --   -0.07932  -0.07518  -0.06979  -0.06376  -0.05761

  Beta  occ. eigenvalues --  -89.16477 -89.15053 -10.44691 -10.43764  -8.24560
  Beta  occ. eigenvalues --   -8.23499  -6.20967  -6.20492  -6.19933  -6.19622
  Beta  occ. eigenvalues --   -6.19481  -6.19243  -1.07303  -1.01771  -0.92303
  Beta  occ. eigenvalues --   -0.71609  -0.70785  -0.65358  -0.59803  -0.57263
  Beta  occ. eigenvalues --   -0.50864  -0.48871
  Beta virt. eigenvalues --   -0.37515  -0.36653  -0.22940  -0.21731  -0.18479
  Beta virt. eigenvalues --   -0.17162  -0.16692  -0.12617  -0.11205  -0.11199
  Beta virt. eigenvalues --   -0.09958  -0.07902  -0.07106  -0.06546  -0.06203

 Mulliken charges and spin densities:
               1          2
     1  S   -0.230826   0.374268
     2  S    0.094428  -0.049719
     3  C    0.545372   0.224257
     4  C    0.123462   0.445744
     5  H    0.233802   0.002769
     6  H    0.233762   0.002681
 Sum of Mulliken charges =   1.00000   1.00000

 Dipole moment (field-independent basis, Debye):
    X=              4.7860    Y=              1.5776    Z=              0.0106  Tot=              5.0394
 Quadrupole moment (field-independent basis, Debye-Ang):
   XX=            -22.6481   YY=            -33.1988   ZZ=            -32.3259
   XY=             -1.7787   XZ=              0.0201   YZ=             -0.0174

  Exact polarizability: 121.425   8.661  54.916   0.020  -0.005  43.521
 Approx polarizability: 273.915  31.672 107.655  -0.009  -0.011  68.723

                      1                      2                      3
                      A                      A                      A
 Frequencies --     36.6610               100.8793               177.5054
 Red. masses --      1.0867                12.9811                16.5136
 Frc consts  --      0.0009                 0.0778                 0.3066
 IR Inten    --     15.2521                 0.9693                42.8613

                      4                      5                      6
                      A                      A                      A
 Frequencies --    201.3408               314.2657               541.0226
 Red. masses --     12.2418                 7.5611                 1.0288
 Frc consts  --      0.2924                 0.4400                 0.1774
 IR Inten    --     10.4422                 4.3322                 2.7937

                      7                      8                      9
                      A                      A                      A
 Frequencies --    577.4395               859.1381              1193.6115
 Red. masses --      1.1629                15.1680                 1.0386
 Frc consts  --      0.2285                 6.5964                 0.8718
 IR Inten    --     18.7018                 5.2840                 1.5586

                     10                     11                     12
                      A                      A                      A
 Frequencies --   1724.9363              2625.4910              2638.4961
 Red. masses --     12.1772                 1.0357                 1.0408
 Frc consts  --     21.3473                 4.2063                 4.2689
 IR Inten    --    685.2908               108.7450                46.3254

 - Thermochemistry -
 -------------------
 Temperature   298.150 Kelvin.  Pressure   1.00000 Atm.
 Atom     1 has atomic number 16 and mass  31.97207

 Molecular mass:    89.95979 amu.
 Principal axes and moments of inertia in atomic units:
                           1         2         3
     Eigenvalues --   152.34426 806.42494 944.83984
           X            0.99998   0.00665   0.00012
           Y           -0.00665   0.99998  -0.00030
           Z           -0.00012   0.00030   1.00000
 This molecule is an asymmetric top.
 Rotational symmetry number  1.
 Rotational temperatures (Kelvin)      0.56854     0.10740     0.09167
 Rotational constants (GHZ):          11.84647     2.23795     1.91010
 Zero-point vibrational energy      65739.5 (Joules/Mol)
                                   15.71212 (Kcal/Mol)
 Warning -- explicit consideration of   7 degrees of freedom as
           vibrations may cause significant error
 Vibrational temperatures:     52.75   145.14   255.39   289.68   452.16
          (Kelvin)            778.41   830.81  1236.11  1717.34  2481.80
                             3777.49  3796.20

 Zero-point correction=                           0.025039 (Hartree/Particle)
 Thermal correction to Energy=                    0.031476
 Thermal correction to Enthalpy=                  0.032420
 Thermal correction to Gibbs Free Energy=        -0.007008
 Sum of electronic and zero-point Energies=           -873.365612
 Sum of electronic and thermal Energies=              -873.359175
 Sum of electronic and thermal Enthalpies=            -873.358231
 Sum of electronic and thermal Free Energies=         -873.397659

                     E (Thermal)             CV                S
                      KCal/Mol        Cal/Mol-Kelvin    Cal/Mol-Kelvin
 Total                   19.751             18.289             82.983
 Electronic               0.000              0.000              1.377
 Translational            0.889              2.981             39.403
 Rotational               0.889              2.981             26.254
 Vibrational             17.974             12.327             15.949
 Vibration     1          0.594              1.982              5.432
 Vibration     2          0.604              1.948              3.437
 Vibration     3          0.628              1.870              2.354
 Vibration     4          0.638              1.838              2.121
 Vibration     5          0.702              1.646              1.340
 Vibration     6          0.896              1.159              0.563
 Vibration     7          0.934              1.080              0.490

 Normal termination of Gaussian 09 at Wed Aug  3 21:07:37 2016.
