 Gaussian 09, Revision E.01,
 Gaussian 09:  EM64L-G09RevE.01 30-Nov-2015

 ------------------------------
 #p b3lyp/6-311++G(3df,2p) freq
 ------------------------------

 ---------
 b3lyp opt
 ---------
 Symbolic Z-matrix:
 Charge =  1 Multiplicity = 3

                         Standard orientation:
 ---------------------------------------------------------------------
 Center     Atomic      Atomic             Coordinates (Angstroms)
 Number     Number       Type             X           Y           Z
 ---------------------------------------------------------------------
      1         16           0       -0.039579   -0.919428    0.000000
      2          6           0       -0.000000    0.705879   -0.000000
      3          6           0       -0.112306    1.933327   -0.000000
      4          1           0        1.307098   -1.124393    0.000000
 ---------------------------------------------------------------------

 SCF Done:  E(UB3LYP) =  -474.516954281     A.U. after   23 cycles

 The electronic state is 3-A".
 Alpha  occ. eigenvalues --  -89.20236 -10.55249 -10.50554  -8.28395  -6.24645
 Alpha  occ. eigenvalues --   -6.24568  -6.24118  -1.12471  -1.03924  -0.79658
 Alpha  occ. eigenvalues --   -0.69422  -0.67072  -0.65657  -0.58073  -0.55632
 Alpha virt. eigenvalues --   -0.29025  -0.26166  -0.22054  -0.20595  -0.14404
 Alpha virt. eigenvalues --   -0.11199  -0.10474  -0.10431  -0.07181  -0.07032
 Alpha virt. eigenvalues --   -0.06796  -0.06371  -0.04332  -0.01650  -0.00398

  Beta  occ. eigenvalues --  -89.19869 -10.52133 -10.50481  -8.28062  -6.24326
  Beta  occ. eigenvalues --   -6.23912  -6.23550  -1.10999  -0.99493  -0.78662
  Beta  occ. eigenvalues --   -0.68248  -0.61281  -0.55983
  Beta virt. eigenvalues --   -0.44198  -0.43584  -0.26909  -0.20973  -0.20412
  Beta virt. eigenvalues --   -0.19824  -0.13553  -0.10813  -0.10015  -0.09845
  Beta virt. eigenvalues --   -0.06897  -0.06028  -0.06021  -0.05567  -0.04167

 Mulliken charges and spin densities:
               1          2
     1  S    0.065792   0.576836
     2  C    0.335540  -0.100688
     3  C    0.361412   1.547333
     4  H    0.237257  -0.023481
 Sum of Mulliken charges =   1.00000   2.00000

 Dipole moment (field-independent basis, Debye):
    X=              0.9607    Y=              0.2629    Z=             -0.0000  Tot=              0.9961
 Quadrupole moment (field-independent basis, Debye-Ang):
   XX=            -19.5729   YY=             -9.0071   ZZ=            -21.4678
   XY=             -2.2720   XZ=              0.0000   YZ=              0.0000

  Exact polarizability:  28.637  -3.313  57.808  -0.000   0.000  22.658
 Approx polarizability:  40.757  -7.134 115.228   0.000  -0.000  33.165

                      1                      2                      3
                     A'                     A"                     A'
 Frequencies --    227.8308               360.4544               806.8450
 Red. masses --      7.4281                 9.1546                15.6185
 Frc consts  --      0.2272                 0.7008                 5.9906
 IR Inten    --      2.1701                 8.9295                 0.3366

                      4                      5                      6
                     A'                     A'                     A'
 Frequencies --    972.2476              2002.4441              2551.4843
 Red. masses --      1.1168                11.9422                 1.0393
 Frc consts  --      0.6220                28.2135                 3.9865
 IR Inten    --      3.8665                70.6141                62.2991

 - Thermochemistry -
 -------------------
 Temperature   298.150 Kelvin.  Pressure   1.00000 Atm.
 Atom     1 has atomic number 16 and mass  31.97207

 Molecular mass:    56.97990 amu.
 Principal axes and moments of inertia in atomic units:
                           1         2         3
     Eigenvalues --     6.37538 282.89816 289.27354
           X           -0.03744   0.99930  -0.00000
           Y            0.99930   0.03744   0.00000
           Z           -0.00000   0.00000   1.00000
 This molecule is an asymmetric top.
 Rotational symmetry number  1.
 Rotational temperatures (Kelvin)     13.58567     0.30617     0.29942
 Rotational constants (GHZ):         283.07985     6.37947     6.23887
 Zero-point vibrational energy      41398.6 (Joules/Mol)
                                    9.89450 (Kcal/Mol)
 Warning -- explicit consideration of   2 degrees of freedom as
           vibrations may cause significant error
 Vibrational temperatures:    327.80   518.61  1160.87  1398.85  2881.07
          (Kelvin)           3671.01

 Zero-point correction=                           0.015768 (Hartree/Particle)
 Thermal correction to Energy=                    0.019587
 Thermal correction to Enthalpy=                  0.020531
 Thermal correction to Gibbs Free Energy=        -0.010083
 Sum of electronic and zero-point Energies=           -474.501186
 Sum of electronic and thermal Energies=              -474.497367
 Sum of electronic and thermal Enthalpies=            -474.496423
 Sum of electronic and thermal Free Energies=         -474.527037

                     E (Thermal)             CV                S
                      KCal/Mol        Cal/Mol-Kelvin    Cal/Mol-Kelvin
 Total                   12.291             10.375             64.432
 Electronic               0.000              0.000              2.183
 Translational            0.889              2.981             38.041
 Rotational               0.889              2.981             20.884
 Vibrational             10.513              4.414              3.324
 Vibration     1          0.651              1.799              1.896
 Vibration     2          0.735              1.554              1.120

 Optimization completed.
    -- Stationary point found.
 Normal termination of Gaussian 09 at Wed Aug  3 23:05:11 2016.
