 Gaussian 09, Revision E.01,
 Gaussian 09:  EM64L-G09RevE.01 30-Nov-2015

 ------------------------------
 #p b3lyp/6-311++G(3df,2p) freq
 ------------------------------

 ---------
 b3lyp opt
 ---------
 Symbolic Z-matrix:
 Charge =  2 Multiplicity = 2

                         Standard orientation:
 ---------------------------------------------------------------------
 Center     Atomic      Atomic             Coordinates (Angstroms)
 Number     Number       Type             X           Y           Z
 ---------------------------------------------------------------------
      1         16           0       -1.818894   -0.051245   -0.000329
      2         16           0        1.137979   -0.541032    0.000248
      3          6           0        2.183721    0.746676   -0.000924
      4          6           0       -0.338691    0.558325    0.000806
      5          1           0       -0.175539    1.646436    0.002015
 ---------------------------------------------------------------------

 SCF Done:  E(UB3LYP) =  -872.213901619     A.U. after   23 cycles

 The electronic state is 2-A.
 Alpha  occ. eigenvalues --  -89.42298 -89.41496 -10.81269 -10.76997  -8.50138
 Alpha  occ. eigenvalues --   -8.49710  -6.46906  -6.46013  -6.45984  -6.45928
 Alpha  occ. eigenvalues --   -6.45536  -6.45506  -1.36447  -1.29960  -1.09767
 Alpha  occ. eigenvalues --   -1.04125  -0.91608  -0.91243  -0.85683  -0.79187
 Alpha  occ. eigenvalues --   -0.78876  -0.78190
 Alpha virt. eigenvalues --   -0.61693  -0.59500  -0.55009  -0.47073  -0.37991
 Alpha virt. eigenvalues --   -0.37135  -0.32434  -0.31576  -0.26769  -0.26294
 Alpha virt. eigenvalues --   -0.25960  -0.25191  -0.23749  -0.22012  -0.21216

  Beta  occ. eigenvalues --  -89.41628 -89.41411 -10.81305 -10.77196  -8.49637
  Beta  occ. eigenvalues --   -8.49526  -6.45838  -6.45577  -6.45452  -6.45440
  Beta  occ. eigenvalues --   -6.45414  -6.44941  -1.35731  -1.28213  -1.08331
  Beta  occ. eigenvalues --   -1.03188  -0.90206  -0.89664  -0.85551  -0.78985
  Beta  occ. eigenvalues --   -0.78415
  Beta virt. eigenvalues --   -0.65212  -0.61306  -0.59328  -0.55030  -0.46478
  Beta virt. eigenvalues --   -0.37403  -0.35782  -0.31973  -0.31253  -0.26235
  Beta virt. eigenvalues --   -0.26041  -0.24775  -0.24411  -0.23567  -0.20701

 Mulliken charges and spin densities:
               1          2
     1  S    0.469261   0.990593
     2  S    0.308107   0.109131
     3  C    0.576618  -0.001773
     4  C    0.341815  -0.140364
     5  H    0.304199   0.042413
 Sum of Mulliken charges =   2.00000   1.00000

 Dipole moment (field-independent basis, Debye):
    X=              0.0297    Y=              0.9011    Z=              0.0008  Tot=              0.9016
 Quadrupole moment (field-independent basis, Debye-Ang):
   XX=             -2.4460   YY=            -24.4768   ZZ=            -30.9541
   XY=             -0.5432   XZ=              0.0001   YZ=              0.0039

  Exact polarizability:  83.161   8.184  41.046  -0.003  -0.002  30.369
 Approx polarizability: 176.163  31.341  81.965  -0.004  -0.009  50.084

                      1                      2                      3
                      A                      A                      A
 Frequencies --     95.6831               139.2375               257.1623
 Red. masses --      3.8723                13.1942                16.2870
 Frc consts  --      0.0209                 0.1507                 0.6346
 IR Inten    --      2.4921                 6.7196                 0.3603

                      4                      5                      6
                      A                      A                      A
 Frequencies --    528.1790               744.8461               929.4512
 Red. masses --     10.1782                 1.4592                13.7542
 Frc consts  --      1.6730                 0.4770                 7.0007
 IR Inten    --     39.9226                31.1125               201.1004

                      7                      8                      9
                      A                      A                      A
 Frequencies --   1018.3564              1186.9166              3002.6867
 Red. masses --      3.7682                 1.2834                 1.0884
 Frc consts  --      2.3024                 1.0653                 5.7815
 IR Inten    --      6.2493                 0.5315               123.1633

 - Thermochemistry -
 -------------------
 Temperature   298.150 Kelvin.  Pressure   1.00000 Atm.
 Atom     1 has atomic number 16 and mass  31.97207

 Molecular mass:    88.95197 amu.
 Principal axes and moments of inertia in atomic units:
                           1         2         3
     Eigenvalues --    80.61970 734.96346 815.58297
           X            1.00000  -0.00166  -0.00000
           Y            0.00166   1.00000   0.00015
           Z            0.00000  -0.00015   1.00000
 This molecule is an asymmetric top.
 Rotational symmetry number  1.
 Rotational temperatures (Kelvin)      1.07435     0.11785     0.10620
 Rotational constants (GHZ):          22.38586     2.45555     2.21282
 Zero-point vibrational energy      47267.6 (Joules/Mol)
                                   11.29722 (Kcal/Mol)
 Warning -- explicit consideration of   4 degrees of freedom as
           vibrations may cause significant error
 Vibrational temperatures:    137.67   200.33   370.00   759.93  1071.67
          (Kelvin)           1337.27  1465.19  1707.71  4320.19

 Zero-point correction=                           0.018003 (Hartree/Particle)
 Thermal correction to Energy=                    0.023118
 Thermal correction to Enthalpy=                  0.024062
 Thermal correction to Gibbs Free Energy=        -0.011701
 Sum of electronic and zero-point Energies=           -872.195898
 Sum of electronic and thermal Energies=              -872.190784
 Sum of electronic and thermal Enthalpies=            -872.189840
 Sum of electronic and thermal Free Energies=         -872.225602

                     E (Thermal)             CV                S
                      KCal/Mol        Cal/Mol-Kelvin    Cal/Mol-Kelvin
 Total                   14.507             14.545             75.269
 Electronic               0.000              0.000              1.377
 Translational            0.889              2.981             39.369
 Rotational               0.889              2.981             25.383
 Vibrational             12.729              8.583              9.139
 Vibration     1          0.603              1.952              3.540
 Vibration     2          0.615              1.914              2.814
 Vibration     3          0.667              1.751              1.681
 Vibration     4          0.883              1.188              0.591

 Normal termination of Gaussian 09 at Wed Aug  3 20:13:25 2016.
