 Gaussian 09, Revision E.01,
 Gaussian 09:  EM64L-G09RevE.01 30-Nov-2015

 ------------------------------
 #p b3lyp/6-311++G(3df,2p) freq
 ------------------------------

 ---------
 b3lyp opt
 ---------
 Symbolic Z-matrix:
 Charge =  2 Multiplicity = 4

                         Standard orientation:
 ---------------------------------------------------------------------
 Center     Atomic      Atomic             Coordinates (Angstroms)
 Number     Number       Type             X           Y           Z
 ---------------------------------------------------------------------
      1         16           0        0.000000    1.332205    0.048477
      2         16           0       -0.000000   -1.332205    0.048477
      3          6           0        0.000000   -0.000000    1.157674
      4          6           0       -0.000000    0.000000   -1.057489
      5          1           0       -0.000000    0.000000   -2.152376
 ---------------------------------------------------------------------

 SCF Done:  E(UB3LYP) =  -872.204730613     A.U. after   15 cycles

 The electronic state is 4-B2.
 Alpha  occ. eigenvalues --  -89.46301 -89.46301 -10.79271 -10.76459  -8.53960
 Alpha  occ. eigenvalues --   -8.53958  -6.50424  -6.50424  -6.50077  -6.50076
 Alpha  occ. eigenvalues --   -6.49597  -6.49596  -1.44901  -1.27497  -1.18260
 Alpha  occ. eigenvalues --   -1.01672  -0.97144  -0.97131  -0.93615  -0.84291
 Alpha  occ. eigenvalues --   -0.80443  -0.80116  -0.74108
 Alpha virt. eigenvalues --   -0.58702  -0.54556  -0.44215  -0.42779  -0.38263
 Alpha virt. eigenvalues --   -0.33932  -0.30113  -0.27964  -0.27120  -0.26491
 Alpha virt. eigenvalues --   -0.24832  -0.24194  -0.23602  -0.22727  -0.21935

  Beta  occ. eigenvalues --  -89.45925 -89.45925 -10.76604 -10.75591  -8.53601
  Beta  occ. eigenvalues --   -8.53600  -6.49759  -6.49758  -6.49423  -6.49422
  Beta  occ. eigenvalues --   -6.49304  -6.49304  -1.41882  -1.24621  -1.13994
  Beta  occ. eigenvalues --   -0.98484  -0.95134  -0.94379  -0.86636  -0.82976
  Beta virt. eigenvalues --   -0.70164  -0.61808  -0.60615  -0.52516  -0.50621
  Beta virt. eigenvalues --   -0.42023  -0.40719  -0.36353  -0.33085  -0.28918
  Beta virt. eigenvalues --   -0.27175  -0.26334  -0.23988  -0.23813  -0.23103

 Mulliken charges and spin densities:
               1          2
     1  S    0.318709   0.595856
     2  S    0.318709   0.595856
     3  C    0.613575   1.335152
     4  C    0.430535   0.460294
     5  H    0.318472   0.012842
 Sum of Mulliken charges =   2.00000   3.00000

 Dipole moment (field-independent basis, Debye):
    X=             -0.0000    Y=              0.0000    Z=             -1.1801  Tot=              1.1801
 Quadrupole moment (field-independent basis, Debye-Ang):
   XX=            -30.0165   YY=            -14.1906   ZZ=            -20.0059
   XY=              0.0000   XZ=             -0.0000   YZ=             -0.0000

  Exact polarizability:  28.275   0.000  56.689  -0.000  -0.000  44.784
 Approx polarizability:  46.515   0.000 132.091   0.000   0.000 102.275

                      1                      2                      3
                     B1                     A1                     A1
 Frequencies --    242.4494               528.5389               599.8792
 Red. masses --     12.3647                23.1287                11.2128
 Frc consts  --      0.4282                 3.8068                 2.3773
 IR Inten    --      0.8948                 0.0687                 4.7450

                      4                      5                      6
                     B2                     B1                     A1
 Frequencies --    674.0831               687.3147               908.7582
 Red. masses --      6.4575                 1.1859                 8.3336
 Frc consts  --      1.7288                 0.3301                 4.0549
 IR Inten    --     16.1642                42.7724                 0.9537

                      7                      8                      9
                     B2                     B2                     A1
 Frequencies --    923.5620              1108.7159              3082.8405
 Red. masses --      7.0644                 1.2561                 1.0955
 Frc consts  --      3.5503                 0.9097                 6.1343
 IR Inten    --      2.4705                29.5203               246.9170

 - Thermochemistry -
 -------------------
 Temperature   298.150 Kelvin.  Pressure   1.00000 Atm.
 Atom     1 has atomic number 16 and mass  31.97207

 Molecular mass:    88.95197 amu.
 Principal axes and moments of inertia in atomic units:
                           1         2         3
     Eigenvalues --   122.38048 405.26668 527.64716
           X            0.00000   0.00000   1.00000
           Y            1.00000   0.00000   0.00000
           Z           -0.00000   1.00000   0.00000
 This molecule is an asymmetric top.
 Rotational symmetry number  2.
 Rotational temperatures (Kelvin)      0.70774     0.21372     0.16415
 Rotational constants (GHZ):          14.74697     4.45322     3.42036
 Zero-point vibrational energy      52373.4 (Joules/Mol)
                                   12.51753 (Kcal/Mol)
 Warning -- explicit consideration of   3 degrees of freedom as
           vibrations may cause significant error
 Vibrational temperatures:    348.83   760.45   863.09   969.85   988.89
          (Kelvin)           1307.50  1328.80  1595.19  4435.51

 Zero-point correction=                           0.019948 (Hartree/Particle)
 Thermal correction to Energy=                    0.024009
 Thermal correction to Enthalpy=                  0.024953
 Thermal correction to Gibbs Free Energy=        -0.007987
 Sum of electronic and zero-point Energies=           -872.184783
 Sum of electronic and thermal Energies=              -872.180722
 Sum of electronic and thermal Enthalpies=            -872.179778
 Sum of electronic and thermal Free Energies=         -872.212717

                     E (Thermal)             CV                S
                      KCal/Mol        Cal/Mol-Kelvin    Cal/Mol-Kelvin
 Total                   15.066             12.919             69.327
 Electronic               0.000              0.000              2.755
 Translational            0.889              2.981             39.369
 Rotational               0.889              2.981             23.396
 Vibrational             13.288              6.957              3.807
 Vibration     1          0.659              1.775              1.785
 Vibration     2          0.883              1.187              0.590
 Vibration     3          0.958              1.032              0.450

 Optimization completed.
    -- Stationary point found.
 Normal termination of Gaussian 09 at Wed Aug  3 23:02:46 2016.
