 Gaussian 09, Revision E.01,
 Gaussian 09:  EM64L-G09RevE.01 30-Nov-2015

 ------------------------------
 #p b3lyp/6-311++G(3df,2p) freq
 ------------------------------

 ---------
 b3lyp opt
 ---------
 Symbolic Z-matrix:
 Charge =  2 Multiplicity = 4

                         Standard orientation:
 ---------------------------------------------------------------------
 Center     Atomic      Atomic             Coordinates (Angstroms)
 Number     Number       Type             X           Y           Z
 ---------------------------------------------------------------------
      1         16           0        1.329255   -0.447331   -0.010203
      2         16           0       -1.851900    0.094662   -0.109018
      3          6           0       -0.301957   -0.092074    0.119307
      4          6           0        2.068700    1.006831   -0.005027
      5          1           0       -2.238153    0.154169    1.221855
 ---------------------------------------------------------------------

 SCF Done:  E(UB3LYP) =  -872.145569795     A.U. after   19 cycles

 The electronic state is 4-A.
 Alpha  occ. eigenvalues --  -89.43412 -89.40718 -10.77802 -10.76733  -8.51094
 Alpha  occ. eigenvalues --   -8.48736  -6.47425  -6.47062  -6.46732  -6.44881
 Alpha  occ. eigenvalues --   -6.44745  -6.44500  -1.36884  -1.30794  -1.14266
 Alpha  occ. eigenvalues --   -1.00802  -0.93398  -0.89506  -0.86326  -0.83473
 Alpha  occ. eigenvalues --   -0.80344  -0.73356  -0.71809
 Alpha virt. eigenvalues --   -0.58570  -0.56251  -0.43593  -0.41652  -0.37063
 Alpha virt. eigenvalues --   -0.32220  -0.31501  -0.26943  -0.25858  -0.25518
 Alpha virt. eigenvalues --   -0.24599  -0.23685  -0.22587  -0.20751  -0.19335

  Beta  occ. eigenvalues --  -89.43428 -89.40692 -10.75450 -10.73677  -8.51074
  Beta  occ. eigenvalues --   -8.48702  -6.47323  -6.47095  -6.46814  -6.44869
  Beta  occ. eigenvalues --   -6.44699  -6.44436  -1.34451  -1.29238  -1.08701
  Beta  occ. eigenvalues --   -0.98146  -0.89955  -0.86986  -0.81557  -0.80951
  Beta virt. eigenvalues --   -0.64375  -0.58939  -0.57169  -0.53981  -0.49343
  Beta virt. eigenvalues --   -0.40926  -0.40455  -0.34198  -0.31559  -0.30963
  Beta virt. eigenvalues --   -0.26514  -0.25434  -0.25077  -0.23997  -0.23078

 Mulliken charges and spin densities:
               1          2
     1  S    0.342697   0.060252
     2  S    0.377982   0.050095
     3  C    0.582512   0.648957
     4  C    0.407062   2.161121
     5  H    0.289748   0.079575
 Sum of Mulliken charges =   2.00000   3.00000

 Dipole moment (field-independent basis, Debye):
    X=             -0.5778    Y=              0.9370    Z=              1.0470  Tot=              1.5192
 Quadrupole moment (field-independent basis, Debye-Ang):
   XX=              4.6579   YY=            -26.3307   ZZ=            -28.4005
   XY=              1.8053   XZ=             -3.0042   YZ=              0.2609

  Exact polarizability:  90.853   5.872  38.512  -2.640  -0.036  32.761
 Approx polarizability: 186.681  18.642  76.011  -2.982  -0.580  53.672

                      1                      2                      3
                      A                      A                      A
 Frequencies --    155.1057               171.2640               350.5165
 Red. masses --     13.5390                 7.4276                 1.4041
 Frc consts  --      0.1919                 0.1284                 0.1016
 IR Inten    --      0.5381                 3.8350                20.0496

                      4                      5                      6
                      A                      A                      A
 Frequencies --    423.7972               536.9293               883.7198
 Red. masses --      5.1721                 8.6165                 2.3524
 Frc consts  --      0.5473                 1.4636                 1.0824
 IR Inten    --     15.1838                18.6668                 8.7859

                      7                      8                      9
                      A                      A                      A
 Frequencies --    898.2346              1288.6962              2353.2618
 Red. masses --      1.9526                10.7321                 1.0402
 Frc consts  --      0.9282                10.5011                 3.3941
 IR Inten    --     10.7535                 1.2779               217.2588

 - Thermochemistry -
 -------------------
 Temperature   298.150 Kelvin.  Pressure   1.00000 Atm.
 Atom     1 has atomic number 16 and mass  31.97207

 Molecular mass:    88.95197 amu.
 Principal axes and moments of inertia in atomic units:
                           1         2         3
     Eigenvalues --    74.92930 805.71491 866.31307
           X            0.99992  -0.00164  -0.01238
           Y            0.00178   0.99993   0.01139
           Z            0.01236  -0.01141   0.99986
 This molecule is an asymmetric top.
 Rotational symmetry number  1.
 Rotational temperatures (Kelvin)      1.15594     0.10750     0.09998
 Rotational constants (GHZ):          24.08592     2.23993     2.08324
 Zero-point vibrational energy      42237.3 (Joules/Mol)
                                   10.09496 (Kcal/Mol)
 Warning -- explicit consideration of   5 degrees of freedom as
           vibrations may cause significant error
 Vibrational temperatures:    223.16   246.41   504.31   609.75   772.52
          (Kelvin)           1271.47  1292.36  1854.14  3385.81

 Zero-point correction=                           0.016087 (Hartree/Particle)
 Thermal correction to Energy=                    0.021131
 Thermal correction to Enthalpy=                  0.022075
 Thermal correction to Gibbs Free Energy=        -0.013821
 Sum of electronic and zero-point Energies=           -872.129482
 Sum of electronic and thermal Energies=              -872.124439
 Sum of electronic and thermal Enthalpies=            -872.123495
 Sum of electronic and thermal Free Energies=         -872.159391

                     E (Thermal)             CV                S
                      KCal/Mol        Cal/Mol-Kelvin    Cal/Mol-Kelvin
 Total                   13.260             15.079             75.549
 Electronic               0.000              0.000              2.755
 Translational            0.889              2.981             39.369
 Rotational               0.889              2.981             25.462
 Vibrational             11.482              9.118              7.964
 Vibration     1          0.620              1.897              2.609
 Vibration     2          0.626              1.878              2.422
 Vibration     3          0.727              1.574              1.164
 Vibration     4          0.786              1.418              0.879
 Vibration     5          0.892              1.168              0.572

 Optimization completed.
    -- Stationary point found.
 Normal termination of Gaussian 09 at Wed Aug  3 20:17:58 2016.
