 Gaussian 09, Revision E.01,
 Gaussian 09:  EM64L-G09RevE.01 30-Nov-2015

 ------------------------------
 #p b3lyp/6-311++G(3df,2p) freq
 ------------------------------

 ---------
 b3lyp opt
 ---------
 Symbolic Z-matrix:
 Charge =  2 Multiplicity = 2

                         Standard orientation:
 ---------------------------------------------------------------------
 Center     Atomic      Atomic             Coordinates (Angstroms)
 Number     Number       Type             X           Y           Z
 ---------------------------------------------------------------------
      1         16           0        0.062007   -0.425601    0.000000
      2          6           0        0.062007    1.129837    0.000000
      3          1           0       -1.364154    0.030601    0.000000
 ---------------------------------------------------------------------

 SCF Done:  E(UB3LYP) =  -435.727986933     A.U. after   15 cycles

 The electronic state is 2-A'.
 Alpha  occ. eigenvalues --  -89.60087 -11.02564  -8.67659  -6.63978  -6.63691
 Alpha  occ. eigenvalues --   -6.63330  -1.51417  -1.18013  -1.07388  -1.01798
 Alpha  occ. eigenvalues --   -0.98204
 Alpha virt. eigenvalues --   -0.75576  -0.72329  -0.62080  -0.47221  -0.37672
 Alpha virt. eigenvalues --   -0.36898  -0.32328  -0.30193  -0.29602  -0.28327
 Alpha virt. eigenvalues --   -0.25781  -0.25123  -0.21673  -0.20460  -0.19803

  Beta  occ. eigenvalues --  -89.60050 -11.00253  -8.67630  -6.63731  -6.63591
  Beta  occ. eigenvalues --   -6.63495  -1.49759  -1.14235  -1.06912  -0.97168
  Beta virt. eigenvalues --   -0.82251  -0.72125  -0.69416  -0.61999  -0.45631
  Beta virt. eigenvalues --   -0.37350  -0.37185  -0.31893  -0.30067  -0.28572
  Beta virt. eigenvalues --   -0.26944  -0.24396  -0.24141  -0.21338  -0.20069

 Mulliken charges and spin densities:
               1          2
     1  S    0.878736   0.009214
     2  C    0.749452   1.007576
     3  H    0.371812  -0.016790
 Sum of Mulliken charges =   2.00000   1.00000

 Dipole moment (field-independent basis, Debye):
    X=             -1.4627    Y=              1.5128    Z=              0.0000  Tot=              2.1043
 Quadrupole moment (field-independent basis, Debye-Ang):
   XX=             -8.8188   YY=             -5.2542   ZZ=            -13.9612
   XY=              0.1124   XZ=              0.0000   YZ=              0.0000

  Exact polarizability:  18.009   0.318  24.423  -0.000  -0.000  14.975
 Approx polarizability:  30.838   1.398  64.215  -0.000  -0.000  21.388

                      1                      2                      3
                     A'                     A'                     A'
 Frequencies --    243.5235              1179.8104              1779.3535
 Red. masses --      1.1408                 9.5797                 1.0504
 Frc consts  --      0.0399                 7.8564                 1.9594
 IR Inten    --      5.0491                69.8511               452.1786

 - Thermochemistry -
 -------------------
 Temperature   298.150 Kelvin.  Pressure   1.00000 Atm.
 Atom     1 has atomic number 16 and mass  31.97207

 Molecular mass:    44.97990 amu.
 Principal axes and moments of inertia in atomic units:
                           1         2         3
     Eigenvalues --     7.15577  75.38775  82.54352
           X           -0.00233   1.00000   0.00000
           Y            1.00000   0.00233   0.00000
           Z           -0.00000   0.00000   1.00000
 This molecule is an asymmetric top.
 Rotational symmetry number  1.
 Rotational temperatures (Kelvin)     12.10406     1.14891     1.04931
 Rotational constants (GHZ):         252.20797    23.93945    21.86412
 Zero-point vibrational energy      19156.3 (Joules/Mol)
                                    4.57847 (Kcal/Mol)
 Warning -- explicit consideration of   1 degrees of freedom as
           vibrations may cause significant error
 Vibrational temperatures:    350.38  1697.48  2560.09
          (Kelvin)

 Zero-point correction=                           0.007296 (Hartree/Particle)
 Thermal correction to Energy=                    0.010644
 Thermal correction to Enthalpy=                  0.011588
 Thermal correction to Gibbs Free Energy=        -0.016434
 Sum of electronic and zero-point Energies=           -435.720691
 Sum of electronic and thermal Energies=              -435.717343
 Sum of electronic and thermal Enthalpies=            -435.716399
 Sum of electronic and thermal Free Energies=         -435.744421

                     E (Thermal)             CV                S
                      KCal/Mol        Cal/Mol-Kelvin    Cal/Mol-Kelvin
 Total                    6.679              7.981             58.978
 Electronic               0.000              0.000              1.377
 Translational            0.889              2.981             37.337
 Rotational               0.889              2.981             18.438
 Vibrational              4.902              2.019              1.825
 Vibration     1          0.659              1.773              1.777

 Optimization completed.
    -- Stationary point found.
 Normal termination of Gaussian 09 at Wed Aug  3 20:30:05 2016.
