 Gaussian 09, Revision D.01,
 Gaussian 09:  EM64L-G09RevD.01 24-Apr-2013

 ----------------------------------------------
 #p ccsd(t,maxcyc=200)/6-311++G(3df,2p) scf(qc)
 ----------------------------------------------

 -------------
 ccsd(t) iener
 -------------
 Symbolic Z-matrix:
 Charge =  0 Multiplicity = 2

                         Standard orientation:
 ---------------------------------------------------------------------
 Center     Atomic      Atomic             Coordinates (Angstroms)
 Number     Number       Type             X           Y           Z
 ---------------------------------------------------------------------
      1          6           0        0.170494    1.876377    0.000000
      2          6           0        0.000000    0.542178    0.000000
      3          6           0       -0.132737   -0.685151    0.000000
      4          6           0       -0.254966   -1.993454    0.000000
      5          6           0       -0.169689   -3.273026    0.000000
      6          7           0        0.331627    3.028352    0.000000
 ---------------------------------------------------------------------

 SCF Done:  E(UHF) =  -243.641455506     a.u. after   35 cycles
 E2 =    -0.7843371197D+00 EUMP2 =    -0.24442579262535D+03
 CCSD(T)
 CCSD(T)= -0.24456017104D+03

 The electronic state is 2-A'.
 Alpha  occ. eigenvalues --  -15.64188 -11.34652 -11.31961 -11.31719 -11.31623
 Alpha  occ. eigenvalues --  -11.31066  -1.30044  -1.16879  -1.11010  -0.94064
 Alpha  occ. eigenvalues --   -0.85693  -0.63801  -0.61274  -0.60925  -0.55207
 Alpha  occ. eigenvalues --   -0.53525  -0.49917  -0.45253  -0.43871
 Alpha virt. eigenvalues --    0.03336   0.05030   0.05388   0.08107   0.08901
 Alpha virt. eigenvalues --    0.09142   0.10161   0.11016   0.11729   0.12060
 Alpha virt. eigenvalues --    0.14750   0.14833   0.17419   0.20065   0.21062

  Beta  occ. eigenvalues --  -15.61008 -11.34397 -11.33353 -11.32574 -11.31586
  Beta  occ. eigenvalues --  -11.29367  -1.24843  -1.15462  -1.03921  -0.95391
  Beta  occ. eigenvalues --   -0.85600  -0.58698  -0.58465  -0.56648  -0.51366
  Beta  occ. eigenvalues --   -0.50866  -0.48201  -0.40477
  Beta virt. eigenvalues --   -0.04586   0.04417   0.05409   0.07013   0.08237
  Beta virt. eigenvalues --    0.09149   0.09215   0.10257   0.11850   0.12148
  Beta virt. eigenvalues --    0.13512   0.14165   0.14529   0.17520   0.21322

 Mulliken charges and spin densities:
               1          2
     1  C    0.533705  -1.232543
     2  C    0.512247   1.269281
     3  C   -0.242224  -0.825722
     4  C    0.945448   1.109197
     5  C   -0.667958  -0.423563
     6  N   -1.081218   1.103349
 Sum of Mulliken charges =   0.00000   1.00000

 Dipole moment (field-independent basis, Debye):
    X=             -0.5122    Y=             -0.2205    Z=              0.0000  Tot=              0.5577
 Quadrupole moment (field-independent basis, Debye-Ang):
   XX=            -32.0767   YY=            -51.6234   ZZ=            -33.7414
   XY=             -0.3859   XZ=              0.0000   YZ=              0.0000

 44.4737891\CCSD=-244.5039996\CCSD(T)=-244.560171\S2=1.862617\S2-1=1.64
 Normal termination of Gaussian 09 at Tue Sep 18 04:10:06 2018.
