 Gaussian 09, Revision E.01,
 Gaussian 09:  EM64L-G09RevE.01 30-Nov-2015

 -----------------------------------------------------
 #p ccsd(t)/6-311+G(3df) scf(MaxCyc=300) guess(Huckel)
 -----------------------------------------------------

 -------------
 ccsd(t) iener
 -------------
 Symbolic Z-matrix:
 Charge =  2 Multiplicity = 3

                         Standard orientation:
 ---------------------------------------------------------------------
 Center     Atomic      Atomic             Coordinates (Angstroms)
 Number     Number       Type             X           Y           Z
 ---------------------------------------------------------------------
      1          6           0        0.000000    0.000000    0.000000
 ---------------------------------------------------------------------

 SCF Done:  E(UHF) =  -36.2347842342     A.U. after    9 cycles
 E2 =    -0.3164808502D-02 EUMP2 =    -0.36237949042692D+02
 CCSD(T)
 CCSD(T)= -0.36239405707D+02

 Unable to determine electronic state:  an orbital has unidentified symmetry.
 Alpha  occ. eigenvalues --  -12.63883  -1.81968  -1.52214
 Alpha virt. eigenvalues --   -0.90123  -0.90123  -0.36454  -0.29629  -0.28714
 Alpha virt. eigenvalues --   -0.28714  -0.16242  -0.16242  -0.16230  -0.16230
 Alpha virt. eigenvalues --   -0.16195  -0.00226   0.02149   0.02149   0.06485

  Beta  occ. eigenvalues --  -12.52990
  Beta virt. eigenvalues --   -1.03501  -0.74161  -0.74161  -0.66897  -0.33792
  Beta virt. eigenvalues --   -0.27599  -0.27599  -0.26278  -0.14879  -0.14879
  Beta virt. eigenvalues --   -0.13144  -0.13144  -0.12532   0.04752   0.04752

 Mulliken charges and spin densities:
               1          2
     1  C    2.000000   2.000000
 Sum of Mulliken charges =   2.00000   2.00000

 Dipole moment (field-independent basis, Debye):
    X=              0.0000    Y=              0.0000    Z=              0.0000  Tot=              0.0000
 Quadrupole moment (field-independent basis, Debye-Ang):
   XX=             -2.7969   YY=             -1.5757   ZZ=             -1.5757
   XY=             -0.0000   XZ=              0.0000   YZ=              0.0000

 392066\CCSD=-36.2394057\CCSD(T)=-36.2394057\S2=2.000013\S2-1=0.\S2A=2.
 Normal termination of Gaussian 09 at Fri Jun 17 12:36:12 2016.
