 Gaussian 09, Revision E.01,
 Gaussian 09:  EM64L-G09RevE.01 30-Nov-2015

 -----------------------------------------------------
 #p ccsd(t)/6-311+G(3df) scf(MaxCyc=300) guess(Huckel)
 -----------------------------------------------------

 -------------
 ccsd(t) iener
 -------------
 Symbolic Z-matrix:
 Charge =  2 Multiplicity = 1

                         Standard orientation:
 ---------------------------------------------------------------------
 Center     Atomic      Atomic             Coordinates (Angstroms)
 Number     Number       Type             X           Y           Z
 ---------------------------------------------------------------------
      1          6           0        0.000000    0.000000    0.000000
 ---------------------------------------------------------------------

 SCF Done:  E(RHF) =  -36.4050795704     A.U. after    6 cycles
 E2 =    -0.4296637794D-01 EUMP2 =    -0.36448045948308D+02
 CCSD(T)
 CCSD(T)= -0.36478325189D+02

 The electronic state is 1-A1G.
 Alpha  occ. eigenvalues --  -12.65594  -1.69366
 Alpha virt. eigenvalues --   -0.86486  -0.86486  -0.86486  -0.35923  -0.28317
 Alpha virt. eigenvalues --   -0.28317  -0.28317  -0.14947  -0.14947  -0.14947
 Alpha virt. eigenvalues --   -0.14947  -0.14947   0.02947   0.02947   0.02947

 Mulliken charges:
               1
     1  C    2.000000
 Sum of Mulliken charges =   2.00000

 Dipole moment (field-independent basis, Debye):
    X=              0.0000    Y=              0.0000    Z=              0.0000  Tot=              0.0000
 Quadrupole moment (field-independent basis, Debye-Ang):
   XX=             -2.0803   YY=             -2.0803   ZZ=             -2.0803
   XY=              0.0000   XZ=              0.0000   YZ=             -0.0000

 P4SDQ=-36.4715604\CCSD=-36.4783252\CCSD(T)=-36.4783252\RMSD=4.971e-10\
 Normal termination of Gaussian 09 at Fri Jun 17 12:36:12 2016.
