 Gaussian 09, Revision E.01,
 Gaussian 09:  EM64L-G09RevE.01 30-Nov-2015

 -----------------------------------------------------
 #p ccsd(t)/6-311+G(3df) scf(MaxCyc=300) guess(Huckel)
 -----------------------------------------------------

 -------------
 ccsd(t) iener
 -------------
 Symbolic Z-matrix:
 Charge =  2 Multiplicity = 3

                         Standard orientation:
 ---------------------------------------------------------------------
 Center     Atomic      Atomic             Coordinates (Angstroms)
 Number     Number       Type             X           Y           Z
 ---------------------------------------------------------------------
      1          6           0        0.000000    0.000000    0.750824
      2          6           0        0.000000    0.000000   -0.750824
 ---------------------------------------------------------------------

 SCF Done:  E(UHF) =  -74.2592427527     A.U. after   12 cycles
 E2 =    -0.2116615752D+00 EUMP2 =    -0.74470904327924D+02
 CCSD(T)
 CCSD(T)= -0.74524305109D+02

 The electronic state is 3-SGG.
 Alpha  occ. eigenvalues --  -12.25327 -12.25248  -1.81169  -1.32617  -1.19538
 Alpha  occ. eigenvalues --   -1.19538
 Alpha virt. eigenvalues --   -0.80377  -0.65698  -0.65698  -0.30533  -0.28975
 Alpha virt. eigenvalues --   -0.25145  -0.25145  -0.20756  -0.19347  -0.18013
 Alpha virt. eigenvalues --   -0.18013  -0.14092  -0.14092  -0.10830   0.00466

  Beta  occ. eigenvalues --  -12.22920 -12.22905  -1.64583  -1.22519
  Beta virt. eigenvalues --   -0.78734  -0.68144  -0.68144  -0.48415  -0.48415
  Beta virt. eigenvalues --   -0.29475  -0.26406  -0.23679  -0.23679  -0.20313
  Beta virt. eigenvalues --   -0.17118  -0.17031  -0.17031  -0.10372  -0.09964

 Mulliken charges and spin densities:
               1          2
     1  C    1.000000   1.000000
     2  C    1.000000   1.000000
 Sum of Mulliken charges =   2.00000   2.00000

 Dipole moment (field-independent basis, Debye):
    X=              0.0000    Y=              0.0000    Z=             -0.0000  Tot=              0.0000
 Quadrupole moment (field-independent basis, Debye-Ang):
   XX=             -7.3689   YY=             -7.3689   ZZ=              1.4836
   XY=             -0.0000   XZ=             -0.0000   YZ=              0.0000

 -74.4921725\MP4SDQ=-74.5010385\CCSD=-74.5022791\CCSD(T)=-74.5243051\S2
 Normal termination of Gaussian 09 at Thu Jun 16 18:21:45 2016.
