 Gaussian 09, Revision E.01,
 Gaussian 09:  EM64L-G09RevE.01 30-Nov-2015

 -----------------------------------------------------
 #p ccsd(t)/6-311+G(3df) scf(MaxCyc=300) guess(Huckel)
 -----------------------------------------------------

 -------------
 ccsd(t) iener
 -------------
 Symbolic Z-matrix:
 Charge =  2 Multiplicity = 1

                         Standard orientation:
 ---------------------------------------------------------------------
 Center     Atomic      Atomic             Coordinates (Angstroms)
 Number     Number       Type             X           Y           Z
 ---------------------------------------------------------------------
      1          6           0        0.000000    0.000000    1.064612
      2          6           0        0.000000    0.000000   -1.064612
 ---------------------------------------------------------------------

 SCF Done:  E(RHF) =  -74.1868388345     A.U. after    9 cycles
 E2 =    -0.2159958936D+00 EUMP2 =    -0.74402834728161D+02
 CCSD(T)
 CCSD(T)= -0.74509275402D+02

 Unable to determine electronic state:  an orbital has unidentified symmetry.
 Alpha  occ. eigenvalues --  -12.20070 -12.20060  -1.49313  -1.34493  -0.97099
 Alpha virt. eigenvalues --   -0.68807  -0.66578  -0.63197  -0.55936  -0.46628
 Alpha virt. eigenvalues --   -0.28342  -0.22521  -0.22243  -0.22042  -0.18832
 Alpha virt. eigenvalues --   -0.17259  -0.16963  -0.11408  -0.07779  -0.07748

 Mulliken charges:
               1
     1  C    1.000000
     2  C    1.000000
 Sum of Mulliken charges =   2.00000

 Dipole moment (field-independent basis, Debye):
    X=              0.0000    Y=              0.0000    Z=             -0.0000  Tot=              0.0000
 Quadrupole moment (field-independent basis, Debye-Ang):
   XX=            -10.1139   YY=             -6.4348   ZZ=              8.3222
   XY=             -0.0000   XZ=             -0.0000   YZ=              0.0000

 =-74.4719887\MP4SDQ=-74.479689\CCSD=-74.4806291\CCSD(T)=-74.5092754\RM
 Normal termination of Gaussian 09 at Thu Jun 16 18:21:39 2016.
