 Gaussian 09, Revision E.01,
 Gaussian 09:  EM64L-G09RevE.01 30-Nov-2015

 -----------------------------------------------------
 #p ccsd(t)/6-311+G(3df) scf(MaxCyc=300) guess(Huckel)
 -----------------------------------------------------

 -------------
 ccsd(t) iener
 -------------
 Symbolic Z-matrix:
 Charge =  2 Multiplicity = 3

                         Standard orientation:
 ---------------------------------------------------------------------
 Center     Atomic      Atomic             Coordinates (Angstroms)
 Number     Number       Type             X           Y           Z
 ---------------------------------------------------------------------
      1          6           0        0.000000    0.000000    0.917553
      2          6           0        0.000000    0.000000   -0.917553
 ---------------------------------------------------------------------

 SCF Done:  E(UHF) =  -74.2481702880     A.U. after   12 cycles
 E2 =    -0.1879871536D+00 EUMP2 =    -0.74436157441599D+02
 CCSD(T)
 CCSD(T)= -0.74500591742D+02

 The electronic state is 3-SGG.
 Alpha  occ. eigenvalues --  -12.23077 -12.23044  -1.65340  -1.37445  -1.08679
 Alpha  occ. eigenvalues --   -1.08679
 Alpha virt. eigenvalues --   -0.74222  -0.69757  -0.69757  -0.41665  -0.29609
 Alpha virt. eigenvalues --   -0.23843  -0.23843  -0.22189  -0.19804  -0.17829
 Alpha virt. eigenvalues --   -0.17829  -0.11643  -0.11643  -0.11271  -0.03007

  Beta  occ. eigenvalues --  -12.20780 -12.20779  -1.50194  -1.26482
  Beta virt. eigenvalues --   -0.72582  -0.62203  -0.62203  -0.50674  -0.50674
  Beta virt. eigenvalues --   -0.37492  -0.28510  -0.22344  -0.22344  -0.21901
  Beta virt. eigenvalues --   -0.19391  -0.16889  -0.16889  -0.10991  -0.07806

 Mulliken charges and spin densities:
               1          2
     1  C    1.000000   1.000000
     2  C    1.000000   1.000000
 Sum of Mulliken charges =   2.00000   2.00000

 Dipole moment (field-independent basis, Debye):
    X=              0.0000    Y=             -0.0000    Z=             -0.0000  Tot=              0.0000
 Quadrupole moment (field-independent basis, Debye-Ang):
   XX=             -7.9134   YY=             -7.9134   ZZ=              5.1031
   XY=             -0.0000   XZ=             -0.0000   YZ=              0.0000

 -74.4706363\MP4SDQ=-74.4810814\CCSD=-74.4803776\CCSD(T)=-74.5005917\S2
 Normal termination of Gaussian 09 at Thu Jun 16 18:21:49 2016.
