 Gaussian 09, Revision E.01,
 Gaussian 09:  EM64L-G09RevE.01 30-Nov-2015

 ----------------------------------------------------------------
 #p ccsd(t,maxcyc=200)/6-311+G(3df) scf(MaxCyc=300) guess(Huckel)
 ----------------------------------------------------------------

 -------------
 ccsd(t) iener
 -------------
 Symbolic Z-matrix:
 Charge =  2 Multiplicity = 3

                         Standard orientation:
 ---------------------------------------------------------------------
 Center     Atomic      Atomic             Coordinates (Angstroms)
 Number     Number       Type             X           Y           Z
 ---------------------------------------------------------------------
      1          6           0        0.674177    0.000328    0.000242
      2          6           0       -0.596581    0.002042   -0.000214
      3          6           0        1.966769   -0.000959    0.000705
      4          6           0       -2.044365   -0.001410   -0.000733
 ---------------------------------------------------------------------

 SCF Done:  E(UHF) =  -150.209563736     A.U. after   34 cycles
 E2 =    -0.3980314022D+00 EUMP2 =    -0.15060759513776D+03
 CCSD(T)
 CCSD(T)= -0.15069624502D+03

 The electronic state is 3-A.
 Alpha  occ. eigenvalues --  -11.98409 -11.94330 -11.93876 -11.86615  -1.66887
 Alpha  occ. eigenvalues --   -1.59065  -1.45107  -1.15573  -1.05386  -1.05386
 Alpha  occ. eigenvalues --   -0.96757  -0.96757
 Alpha virt. eigenvalues --   -0.55081  -0.50181  -0.50181  -0.26615  -0.22408
 Alpha virt. eigenvalues --   -0.22407  -0.21121  -0.20345  -0.20345  -0.16491
 Alpha virt. eigenvalues --   -0.15216  -0.15216  -0.13937  -0.12995  -0.10385

  Beta  occ. eigenvalues --  -12.00225 -11.94913 -11.87625 -11.85987  -1.68266
  Beta  occ. eigenvalues --   -1.51661  -1.35369  -1.18502  -1.02579  -1.02579
  Beta virt. eigenvalues --   -0.54410  -0.54410  -0.45613  -0.34513  -0.34513
  Beta virt. eigenvalues --   -0.26558  -0.20299  -0.20041  -0.20040  -0.19293
  Beta virt. eigenvalues --   -0.19293  -0.16374  -0.13137  -0.11838  -0.11838

 Mulliken charges and spin densities:
               1          2
     1  C    0.570991  -0.153831
     2  C    0.472859  -0.024271
     3  C    0.530197  -0.104929
     4  C    0.425953   2.283032
 Sum of Mulliken charges =   2.00000   2.00000

 Dipole moment (field-independent basis, Debye):
    X=              1.0251    Y=             -0.0032    Z=              0.0004  Tot=              1.0251
 Quadrupole moment (field-independent basis, Debye-Ang):
   XX=             16.1301   YY=            -17.3335   ZZ=            -17.3335
   XY=             -0.0035   XZ=              0.0120   YZ=             -0.0000

 CCSD=-150.659217\CCSD(T)=-150.696245\S2=3.445263\S2-1=3.409465\S2A=3.1
 Normal termination of Gaussian 09 at Mon Oct 31 01:00:41 2016.
