 Gaussian 09, Revision E.01,
 Gaussian 09:  EM64L-G09RevE.01 30-Nov-2015

 -----------------------------------------------------
 #p ccsd(t)/6-311+G(3df) scf(MaxCyc=300) guess(Huckel)
 -----------------------------------------------------

 -------------
 ccsd(t) iener
 -------------
 Symbolic Z-matrix:
 Charge =  2 Multiplicity = 1

                         Standard orientation:
 ---------------------------------------------------------------------
 Center     Atomic      Atomic             Coordinates (Angstroms)
 Number     Number       Type             X           Y           Z
 ---------------------------------------------------------------------
      1          6           0        0.968904   -0.317446    0.000006
      2          6           0       -0.317446   -0.968875   -0.000006
      3          6           0        0.317455    0.968885   -0.000006
      4          6           0       -0.968912    0.317436    0.000006
 ---------------------------------------------------------------------

 SCF Done:  E(RHF) =  -150.066756634     A.U. after   14 cycles
 E2 =    -0.6735597888D+00 EUMP2 =    -0.15074031642278D+03
 CCSD(T)
 CCSD(T)= -0.15075527763D+03

 The electronic state is 1-A.
 Alpha  occ. eigenvalues --  -12.02689 -12.02582 -12.02581 -12.02509  -1.89148
 Alpha  occ. eigenvalues --   -1.47766  -1.47764  -1.21502  -1.09842  -1.05388
 Alpha  occ. eigenvalues --   -0.97481
 Alpha virt. eigenvalues --   -0.61607  -0.61605  -0.55906  -0.55905  -0.29631
 Alpha virt. eigenvalues --   -0.26429  -0.24717  -0.24716  -0.23135  -0.19989
 Alpha virt. eigenvalues --   -0.18421  -0.16390  -0.16268  -0.16267  -0.16083

 Mulliken charges:
               1
     1  C    0.499957
     2  C    0.500072
     3  C    0.500031
     4  C    0.499940
 Sum of Mulliken charges =   2.00000

 Dipole moment (field-independent basis, Debye):
    X=              0.0000    Y=             -0.0002    Z=              0.0000  Tot=              0.0002
 Quadrupole moment (field-independent basis, Debye-Ang):
   XX=            -10.8087   YY=            -10.8096   ZZ=            -16.7943
   XY=             -0.0001   XZ=              0.0000   YZ=              0.0000

 D=-150.6849485\CCSD(T)=-150.7552776\RMSD=8.264e-09\PG=C01 [X(C4)]\\@
 Normal termination of Gaussian 09 at Thu Jun 16 19:51:49 2016.
