 Gaussian 09, Revision E.01,
 Gaussian 09:  EM64L-G09RevE.01 30-Nov-2015

 -----------------------------------------------------
 #p ccsd(t)/6-311+G(3df) scf(MaxCyc=300) guess(Huckel)
 -----------------------------------------------------

 -------------
 ccsd(t) iener
 -------------
 Symbolic Z-matrix:
 Charge =  2 Multiplicity = 1

                         Standard orientation:
 ---------------------------------------------------------------------
 Center     Atomic      Atomic             Coordinates (Angstroms)
 Number     Number       Type             X           Y           Z
 ---------------------------------------------------------------------
      1          6           0       -0.790487    0.127505   -0.389859
      2          6           0       -0.118235   -0.401950    0.785364
      3          6           0        0.509419   -0.511463   -0.521221
      4          6           0        0.399303    0.785907    0.125716
 ---------------------------------------------------------------------

 SCF Done:  E(RHF) =  -149.792012024     A.U. after   31 cycles
 E2 =    -0.6092751576D+00 EUMP2 =    -0.15040128718188D+03
 CCSD(T)
 CCSD(T)= -0.15046354281D+03

 The electronic state is 1-A.
 Alpha  occ. eigenvalues --  -12.01849 -12.01683 -12.01678 -12.01670  -2.00315
 Alpha  occ. eigenvalues --   -1.37387  -1.37371  -1.37353  -1.05030  -1.00469
 Alpha  occ. eigenvalues --   -1.00440
 Alpha virt. eigenvalues --   -0.64137  -0.64129  -0.64116  -0.25706  -0.25702
 Alpha virt. eigenvalues --   -0.25697  -0.24022  -0.23557  -0.23545  -0.23538
 Alpha virt. eigenvalues --   -0.17303  -0.17300  -0.16851  -0.16849  -0.16848

 Mulliken charges:
               1
     1  C    0.499545
     2  C    0.500601
     3  C    0.500012
     4  C    0.499842
 Sum of Mulliken charges =   2.00000

 Dipole moment (field-independent basis, Debye):
    X=              0.0002    Y=             -0.0004    Z=              0.0006  Tot=              0.0007
 Quadrupole moment (field-independent basis, Debye-Ang):
   XX=            -12.0541   YY=            -12.0607   ZZ=            -12.0680
   XY=             -0.0000   XZ=              0.0002   YZ=              0.0002

 -150.4026974\CCSD(T)=-150.4635428\RMSD=1.678e-09\PG=C01 [X(C4)]\\@
 Normal termination of Gaussian 09 at Thu Jun 16 19:46:34 2016.
