 Gaussian 09, Revision E.01,
 Gaussian 09:  EM64L-G09RevE.01 30-Nov-2015

 -----------------------------------------------------
 #p ccsd(t)/6-311+G(3df) scf(MaxCyc=300) guess(Huckel)
 -----------------------------------------------------

 -------------
 ccsd(t) iener
 -------------
 Symbolic Z-matrix:
 Charge =  2 Multiplicity = 1

                         Standard orientation:
 ---------------------------------------------------------------------
 Center     Atomic      Atomic             Coordinates (Angstroms)
 Number     Number       Type             X           Y           Z
 ---------------------------------------------------------------------
      1          6           0        0.000000    0.000000   -2.069064
      2          6           0       -0.000000   -0.000000    2.069221
      3          6           0       -0.000000   -0.000000    0.618840
      4          6           0        0.000000    0.000000   -0.618998
 ---------------------------------------------------------------------

 SCF Done:  E(RHF) =  -149.845238632     A.U. after   23 cycles
 E2 =    -0.8568536252D+00 EUMP2 =    -0.15070209225762D+03
 CCSD(T)
 CCSD(T)= -0.15069707985D+03

 Unable to determine electronic state:  an orbital has unidentified symmetry.
 Alpha  occ. eigenvalues --  -12.02909 -12.02906 -11.90078 -11.89815  -1.65300
 Alpha  occ. eigenvalues --   -1.50921  -1.40342  -1.02766  -1.00138  -0.93432
 Alpha  occ. eigenvalues --   -0.88957
 Alpha virt. eigenvalues --   -0.77834  -0.56861  -0.51768  -0.44157  -0.26146
 Alpha virt. eigenvalues --   -0.23749  -0.22198  -0.21625  -0.19914  -0.19656
 Alpha virt. eigenvalues --   -0.16716  -0.14736  -0.14542  -0.14217  -0.12938

 Mulliken charges:
               1
     1  C    0.299205
     2  C    0.299611
     3  C    0.700433
     4  C    0.700750
 Sum of Mulliken charges =   2.00000

 Dipole moment (field-independent basis, Debye):
    X=             -0.0000    Y=             -0.0000    Z=              0.0012  Tot=              0.0012
 Quadrupole moment (field-independent basis, Debye-Ang):
   XX=            -20.0040   YY=            -16.5510   ZZ=             20.1518
   XY=             -0.0000   XZ=             -0.0000   YZ=             -0.0000

 614\CCSD(T)=-150.6970798\RMSD=1.911e-09\PG=C*V [C*(C1C1C1C1)]\\@
 Normal termination of Gaussian 09 at Thu Jun 16 19:45:09 2016.
