 Gaussian 09, Revision E.01,
 Gaussian 09:  EM64L-G09RevE.01 30-Nov-2015

 -----------------------------------------------------
 #p ccsd(t)/6-311+G(3df) scf(MaxCyc=300) guess(Huckel)
 -----------------------------------------------------

 -------------
 ccsd(t) iener
 -------------
 Symbolic Z-matrix:
 Charge =  2 Multiplicity = 3

                         Standard orientation:
 ---------------------------------------------------------------------
 Center     Atomic      Atomic             Coordinates (Angstroms)
 Number     Number       Type             X           Y           Z
 ---------------------------------------------------------------------
      1          6           0       -0.985074    0.676439   -0.002347
      2          6           0        0.250628   -0.000141    0.008646
      3          6           0        1.719694    0.000021   -0.003950
      4          6           0       -0.985248   -0.676319   -0.002349
 ---------------------------------------------------------------------

 SCF Done:  E(UHF) =  -150.203688622     A.U. after   55 cycles
 E2 =    -0.3929014219D+00 EUMP2 =    -0.15059659004363D+03
 CCSD(T)
 CCSD(T)= -0.15066014797D+03

 The electronic state is 3-A.
 Alpha  occ. eigenvalues --  -12.05256 -11.91995 -11.91754 -11.89123  -1.80044
 Alpha  occ. eigenvalues --   -1.59719  -1.28036  -1.24580  -1.13902  -1.13343
 Alpha  occ. eigenvalues --   -1.02085  -1.01363
 Alpha virt. eigenvalues --   -0.56947  -0.45180  -0.39785  -0.33850  -0.25999
 Alpha virt. eigenvalues --   -0.21864  -0.21737  -0.21592  -0.19951  -0.17534
 Alpha virt. eigenvalues --   -0.16310  -0.16274  -0.14393  -0.13399  -0.12428

  Beta  occ. eigenvalues --  -11.98578 -11.92931 -11.91800 -11.87656  -1.79421
  Beta  occ. eigenvalues --   -1.47084  -1.25770  -1.15431  -1.04627  -1.02512
  Beta virt. eigenvalues --   -0.54444  -0.50312  -0.50268  -0.42455  -0.34198
  Beta virt. eigenvalues --   -0.28328  -0.25192  -0.21373  -0.20273  -0.19864
  Beta virt. eigenvalues --   -0.18614  -0.17320  -0.15966  -0.15130  -0.12861

 Mulliken charges and spin densities:
               1          2
     1  C    0.443540   1.374160
     2  C    0.430179  -0.121586
     3  C    0.685026   1.779404
     4  C    0.441256  -1.031978
 Sum of Mulliken charges =   2.00000   2.00000

 Dipole moment (field-independent basis, Debye):
    X=              3.0015    Y=             -0.0495    Z=             -0.0135  Tot=              3.0019
 Quadrupole moment (field-independent basis, Debye-Ang):
   XX=              3.1211   YY=            -13.1947   ZZ=            -17.1978
   XY=              0.1999   XZ=             -0.0149   YZ=             -0.0020

 823\CCSD(T)=-150.660148\S2=3.074705\S2-1=3.052593\S2A=2.186672\RMSD=3.
 Normal termination of Gaussian 09 at Fri Jun 17 01:32:16 2016.
