 Gaussian 09, Revision E.01,
 Gaussian 09:  EM64L-G09RevE.01 30-Nov-2015

 -----------------------------------------------------
 #p ccsd(t)/6-311+G(3df) scf(MaxCyc=300) guess(Huckel)
 -----------------------------------------------------

 -------------
 ccsd(t) iener
 -------------
 Symbolic Z-matrix:
 Charge =  2 Multiplicity = 1

                         Standard orientation:
 ---------------------------------------------------------------------
 Center     Atomic      Atomic             Coordinates (Angstroms)
 Number     Number       Type             X           Y           Z
 ---------------------------------------------------------------------
      1          6           0       -1.383298    0.385749    0.000015
      2          6           0       -0.000021    0.000075   -0.000044
      3          6           0        0.357527   -1.390739    0.000015
      4          6           0        1.025792    1.004914    0.000015
 ---------------------------------------------------------------------

 SCF Done:  E(RHF) =  -150.146732811     A.U. after   13 cycles
 E2 =    -0.4183428097D+00 EUMP2 =    -0.15056507562068D+03
 CCSD(T)
 CCSD(T)= -0.15066757650D+03

 The electronic state is 1-A.
 Alpha  occ. eigenvalues --  -12.00782 -12.00780 -12.00777 -11.83477  -1.72200
 Alpha  occ. eigenvalues --   -1.44858  -1.44853  -1.08929  -1.03378  -1.03377
 Alpha  occ. eigenvalues --   -1.02653
 Alpha virt. eigenvalues --   -0.54194  -0.54190  -0.52048  -0.52046  -0.43194
 Alpha virt. eigenvalues --   -0.29662  -0.26614  -0.19929  -0.19720  -0.19720
 Alpha virt. eigenvalues --   -0.18003  -0.16214  -0.16213  -0.15347  -0.15227

 Mulliken charges:
               1
     1  C    0.245368
     2  C    1.264424
     3  C    0.245075
     4  C    0.245133
 Sum of Mulliken charges =   2.00000

 Dipole moment (field-independent basis, Debye):
    X=             -0.0006    Y=             -0.0000    Z=             -0.0000  Tot=              0.0006
 Quadrupole moment (field-independent basis, Debye-Ang):
   XX=            -10.2506   YY=            -10.2514   ZZ=            -17.3481
   XY=             -0.0007   XZ=             -0.0000   YZ=              0.0000

 D=-150.6336264\CCSD(T)=-150.6675765\RMSD=6.096e-09\PG=C01 [X(C4)]\\@
 Normal termination of Gaussian 09 at Thu Jun 16 19:52:50 2016.
