 Gaussian 09, Revision E.01,
 Gaussian 09:  EM64L-G09RevE.01 30-Nov-2015

 -----------------------------------------------------
 #p ccsd(t)/6-311+G(3df) scf(MaxCyc=300) guess(Huckel)
 -----------------------------------------------------

 -------------
 ccsd(t) iener
 -------------
 Symbolic Z-matrix:
 Charge =  2 Multiplicity = 3

                         Standard orientation:
 ---------------------------------------------------------------------
 Center     Atomic      Atomic             Coordinates (Angstroms)
 Number     Number       Type             X           Y           Z
 ---------------------------------------------------------------------
      1          6           0        0.000114   -0.796571    0.000154
      2          6           0       -0.000173    0.796622    0.000154
      3          6           0       -1.147011   -0.000125   -0.000154
      4          6           0        1.147069    0.000075   -0.000154
 ---------------------------------------------------------------------

 SCF Done:  E(UHF) =  -150.054827577     A.U. after   43 cycles
 E2 =    -0.5440239429D+00 EUMP2 =    -0.15059885151994D+03
 CCSD(T)
 CCSD(T)= -0.15066324909D+03

 The electronic state is 3-A.
 Alpha  occ. eigenvalues --  -12.02516 -12.02504 -12.01278 -12.01230  -1.93597
 Alpha  occ. eigenvalues --   -1.59524  -1.39933  -1.21769  -1.19793  -1.13896
 Alpha  occ. eigenvalues --   -1.01971  -1.00966
 Alpha virt. eigenvalues --   -0.73402  -0.51422  -0.48485  -0.39030  -0.26191
 Alpha virt. eigenvalues --   -0.24606  -0.23276  -0.22349  -0.20394  -0.18931
 Alpha virt. eigenvalues --   -0.16935  -0.16827  -0.15483  -0.13765  -0.12352

  Beta  occ. eigenvalues --  -12.00386 -12.00319 -11.98759 -11.98754  -1.93442
  Beta  occ. eigenvalues --   -1.52727  -1.35104  -1.20105  -1.11026  -1.01084
  Beta virt. eigenvalues --   -0.59575  -0.59144  -0.49631  -0.49119  -0.40437
  Beta virt. eigenvalues --   -0.25622  -0.25489  -0.24071  -0.20897  -0.20677
  Beta virt. eigenvalues --   -0.20009  -0.18939  -0.16125  -0.15633  -0.15627

 Mulliken charges and spin densities:
               1          2
     1  C    0.782643   0.025595
     2  C    0.782590   0.025922
     3  C    0.217413   0.975318
     4  C    0.217354   0.973165
 Sum of Mulliken charges =   2.00000   2.00000

 Dipole moment (field-independent basis, Debye):
    X=             -0.0013    Y=             -0.0011    Z=             -0.0004  Tot=              0.0018
 Quadrupole moment (field-independent basis, Debye-Ang):
   XX=             -4.8457   YY=            -13.2069   ZZ=            -17.2496
   XY=              0.0002   XZ=              0.0000   YZ=             -0.0000

 83\CCSD(T)=-150.6632491\S2=2.141236\S2-1=2.067906\S2A=2.009189\RMSD=7.
 Normal termination of Gaussian 09 at Fri Jun 17 01:37:05 2016.
