 Gaussian 09, Revision E.01,
 Gaussian 09:  EM64L-G09RevE.01 30-Nov-2015

 -----------------------------------------------------
 #p ccsd(t)/6-311+G(3df) scf(MaxCyc=300) guess(Huckel)
 -----------------------------------------------------

 -------------
 ccsd(t) iener
 -------------
 Symbolic Z-matrix:
 Charge =  2 Multiplicity = 1

                         Standard orientation:
 ---------------------------------------------------------------------
 Center     Atomic      Atomic             Coordinates (Angstroms)
 Number     Number       Type             X           Y           Z
 ---------------------------------------------------------------------
      1          6           0        0.749299    0.721232    0.000556
      2          6           0       -0.747174    0.721422   -0.000554
      3          6           0       -1.379480   -0.394022    0.000296
      4          6           0        1.378268   -0.395810   -0.000306
      5          6           0       -0.000914   -0.652822    0.000009
 ---------------------------------------------------------------------

 SCF Done:  E(RHF) =  -187.941902343     A.U. after   22 cycles
 E2 =    -0.7552079165D+00 EUMP2 =    -0.18869711025941D+03
 CCSD(T)
 CCSD(T)= -0.18875123992D+03

 The electronic state is 1-A.
 Alpha  occ. eigenvalues --  -12.03551 -11.97956 -11.97895 -11.90147 -11.90141
 Alpha  occ. eigenvalues --   -1.94808  -1.71819  -1.42993  -1.29747  -1.20937
 Alpha  occ. eigenvalues --   -1.17852  -1.11290  -0.95355  -0.93732
 Alpha virt. eigenvalues --   -0.61006  -0.53052  -0.52436  -0.34408  -0.30140
 Alpha virt. eigenvalues --   -0.29533  -0.26872  -0.22494  -0.21104  -0.19770
 Alpha virt. eigenvalues --   -0.19680  -0.17210  -0.17183  -0.16005  -0.15621

 Mulliken charges:
               1
     1  C    0.352243
     2  C    0.350381
     3  C    0.252685
     4  C    0.250869
     5  C    0.793822
 Sum of Mulliken charges =   2.00000

 Dipole moment (field-independent basis, Debye):
    X=              0.0048    Y=              1.5102    Z=              0.0000  Tot=              1.5102
 Quadrupole moment (field-independent basis, Debye-Ang):
   XX=            -11.9508   YY=            -14.6673   ZZ=            -22.4823
   XY=              0.0015   XZ=              0.0061   YZ=             -0.0001

 .6566072\MP4SDQ=-188.6772527\CCSD=-188.6785744\CCSD(T)=-188.7512399\RM
 Normal termination of Gaussian 09 at Fri Jun 17 01:18:48 2016.
