 Gaussian 09, Revision E.01,
 Gaussian 09:  EM64L-G09RevE.01 30-Nov-2015

 -----------------------------------------------------
 #p ccsd(t)/6-311+G(3df) scf(MaxCyc=300) guess(Huckel)
 -----------------------------------------------------

 -------------
 ccsd(t) iener
 -------------
 Symbolic Z-matrix:
 Charge =  2 Multiplicity = 1

                         Standard orientation:
 ---------------------------------------------------------------------
 Center     Atomic      Atomic             Coordinates (Angstroms)
 Number     Number       Type             X           Y           Z
 ---------------------------------------------------------------------
      1          6           0       -1.009654   -0.508742   -0.053115
      2          6           0        0.496603    0.999560   -0.382958
      3          6           0        1.109310   -0.187577    0.348196
      4          6           0        0.181003   -1.082848   -0.189305
      5          6           0       -0.777262    0.779606    0.277182
 ---------------------------------------------------------------------

 SCF Done:  E(RHF) =  -187.916484925     A.U. after   23 cycles
 E2 =    -0.7068976003D+00 EUMP2 =    -0.18862338252497D+03
 CCSD(T)
 CCSD(T)= -0.18870162531D+03

 The electronic state is 1-A.
 Alpha  occ. eigenvalues --  -11.96686 -11.96103 -11.94809 -11.92846 -11.92679
 Alpha  occ. eigenvalues --   -1.85358  -1.54033  -1.53098  -1.29782  -1.17888
 Alpha  occ. eigenvalues --   -1.13241  -1.03278  -0.93952  -0.93414
 Alpha virt. eigenvalues --   -0.58223  -0.56913  -0.47659  -0.46996  -0.40671
 Alpha virt. eigenvalues --   -0.32848  -0.23233  -0.21839  -0.20120  -0.19867
 Alpha virt. eigenvalues --   -0.17957  -0.17147  -0.16838  -0.15794  -0.15507

 Mulliken charges:
               1
     1  C    0.185902
     2  C    0.355105
     3  C    0.224657
     4  C    0.679743
     5  C    0.554593
 Sum of Mulliken charges =   2.00000

 Dipole moment (field-independent basis, Debye):
    X=             -1.5920    Y=             -1.4220    Z=             -0.1697  Tot=              2.1413
 Quadrupole moment (field-independent basis, Debye-Ang):
   XX=            -12.1972   YY=            -12.1067   ZZ=            -24.0529
   XY=             -0.1744   XZ=             -0.2216   YZ=              0.9484

 8.6049098\MP4SDQ=-188.6287021\CCSD=-188.6308422\CCSD(T)=-188.7016253\R
 Normal termination of Gaussian 09 at Fri Jun 17 01:29:03 2016.
