 Gaussian 09, Revision E.01,
 Gaussian 09:  EM64L-G09RevE.01 30-Nov-2015

 ----------------------------------------------------------------
 #p ccsd(t,maxcyc=200)/6-311+G(3df) scf(MaxCyc=300) guess(Huckel)
 ----------------------------------------------------------------

 -------------
 ccsd(t) iener
 -------------
 Symbolic Z-matrix:
 Charge =  2 Multiplicity = 1

                         Standard orientation:
 ---------------------------------------------------------------------
 Center     Atomic      Atomic             Coordinates (Angstroms)
 Number     Number       Type             X           Y           Z
 ---------------------------------------------------------------------
      1          6           0        2.638785    0.432245    0.000000
      2          6           0        0.000000    0.005418   -0.000000
      3          6           0       -1.235785   -0.335777    0.000000
      4          6           0        1.235667    0.350265   -0.000000
      5          6           0       -2.638667   -0.452150    0.000000
 ---------------------------------------------------------------------

 SCF Done:  E(RHF) =  -188.071159650     A.U. after   30 cycles
 E2 =    -0.5889069881D+00 EUMP2 =    -0.18866006663814D+03
 CCSD(T)
 CCSD(T)= -0.18875904280D+03

 The electronic state is 1-A'.
 Alpha  occ. eigenvalues --  -11.92296 -11.92175 -11.84499 -11.83594 -11.83565
 Alpha  occ. eigenvalues --   -1.63522  -1.55351  -1.45514  -1.36053  -1.01368
 Alpha  occ. eigenvalues --   -0.99111  -0.98629  -0.97105  -0.88840
 Alpha virt. eigenvalues --   -0.58031  -0.49323  -0.45563  -0.34122  -0.31783
 Alpha virt. eigenvalues --   -0.25534  -0.21115  -0.19650  -0.19530  -0.15445
 Alpha virt. eigenvalues --   -0.14544  -0.14249  -0.14202  -0.14106  -0.11961

 Mulliken charges:
               1
     1  C    0.153427
     2  C    0.006963
     3  C    0.850647
     4  C    0.845718
     5  C    0.143246
 Sum of Mulliken charges =   2.00000

 Dipole moment (field-independent basis, Debye):
    X=             -0.0288    Y=              0.0249    Z=             -0.0000  Tot=              0.0381
 Quadrupole moment (field-independent basis, Debye-Ang):
   XX=             13.2462   YY=            -18.4890   ZZ=            -23.7734
   XY=              8.0399   XZ=             -0.0000   YZ=             -0.0000

 8.7053645\CCSD=-188.7113015\CCSD(T)=-188.7590428\RMSD=3.561e-09\PG=CS
 Normal termination of Gaussian 09 at Mon Oct 31 00:02:38 2016.
