 Gaussian 09, Revision E.01,
 Gaussian 09:  EM64L-G09RevE.01 30-Nov-2015

 ----------------------------------------------------------------
 #p ccsd(t,maxcyc=200)/6-311+G(3df) scf(MaxCyc=300) guess(Huckel)
 ----------------------------------------------------------------

 -------------
 ccsd(t) iener
 -------------
 Symbolic Z-matrix:
 Charge =  2 Multiplicity = 3

                         Standard orientation:
 ---------------------------------------------------------------------
 Center     Atomic      Atomic             Coordinates (Angstroms)
 Number     Number       Type             X           Y           Z
 ---------------------------------------------------------------------
      1          6           0        0.358595    0.740451    0.000057
      2          6           0        1.506937    0.000022   -0.000031
      3          6           0       -1.112613    0.710498   -0.000043
      4          6           0       -1.111210   -0.711007    0.000019
      5          6           0        0.358291   -0.739965   -0.000002
 ---------------------------------------------------------------------

 SCF Done:  E(UHF) =  -188.023765954     A.U. after   31 cycles
 E2 =    -0.6004034503D+00 EUMP2 =    -0.18862416940440D+03
 CCSD(T)
 CCSD(T)= -0.18871335036D+03

 The electronic state is 3-A.
 Alpha  occ. eigenvalues --  -11.96972 -11.96915 -11.94670 -11.91046 -11.90919
 Alpha  occ. eigenvalues --   -1.88121  -1.66339  -1.42515  -1.27817  -1.22013
 Alpha  occ. eigenvalues --   -1.16138  -1.13355  -1.07633  -1.01144  -0.92072
 Alpha virt. eigenvalues --   -0.54509  -0.51549  -0.38859  -0.31864  -0.29491
 Alpha virt. eigenvalues --   -0.27745  -0.22179  -0.21783  -0.21445  -0.20045
 Alpha virt. eigenvalues --   -0.18758  -0.16728  -0.15610  -0.15308  -0.15240

  Beta  occ. eigenvalues --  -11.98246 -11.98142 -11.89804 -11.87631 -11.87522
  Beta  occ. eigenvalues --   -1.89262  -1.60639  -1.41370  -1.20307  -1.19483
  Beta  occ. eigenvalues --   -1.13105  -1.11007  -0.87084
  Beta virt. eigenvalues --   -0.52507  -0.49979  -0.43520  -0.43382  -0.33891
  Beta virt. eigenvalues --   -0.31630  -0.27051  -0.26881  -0.21490  -0.20672
  Beta virt. eigenvalues --   -0.20426  -0.19094  -0.16889  -0.15410  -0.15390

 Mulliken charges and spin densities:
               1          2
     1  C    0.250188  -0.716569
     2  C    0.853505   1.535756
     3  C    0.321325   0.947146
     4  C    0.322218   0.949964
     5  C    0.252764  -0.716297
 Sum of Mulliken charges =   2.00000   2.00000

 Dipole moment (field-independent basis, Debye):
    X=              1.2375    Y=              0.0031    Z=              0.0001  Tot=              1.2375
 Quadrupole moment (field-independent basis, Debye-Ang):
   XX=             -9.3617   YY=            -14.3443   ZZ=            -22.7710
   XY=             -0.0075   XZ=              0.0000   YZ=              0.0002

 75575\MP4SDQ=-188.6479474\CCSD=-188.6619373\CCSD(T)=-188.7133504\S2=2.
 Normal termination of Gaussian 09 at Mon Oct 31 01:22:29 2016.
