 Gaussian 09, Revision E.01,
 Gaussian 09:  EM64L-G09RevE.01 30-Nov-2015

 -----------------------------------------------------
 #p ccsd(t)/6-311+G(3df) scf(MaxCyc=300) guess(Huckel)
 -----------------------------------------------------

 -------------
 ccsd(t) iener
 -------------
 Symbolic Z-matrix:
 Charge =  2 Multiplicity = 3

                         Standard orientation:
 ---------------------------------------------------------------------
 Center     Atomic      Atomic             Coordinates (Angstroms)
 Number     Number       Type             X           Y           Z
 ---------------------------------------------------------------------
      1          6           0       -0.000000    0.000000   -1.943209
      2          6           0        0.000000   -0.000000    0.640018
      3          6           0       -0.000000    0.000000   -0.664226
      4          6           0        0.000000   -0.000000    1.894408
      5          6           0       -0.000000    0.000000   -3.205784
      6          6           0        0.000000   -0.000000    3.278793
 ---------------------------------------------------------------------

 SCF Done:  E(UHF) =  -226.054659040     A.U. after   36 cycles
 E2 =    -0.6615765049D+00 EUMP2 =    -0.22671623554518D+03
 CCSD(T)
 CCSD(T)= -0.22683945973D+03

 Unable to determine electronic state:  an orbital has unidentified symmetry.
 Alpha  occ. eigenvalues --  -11.84944 -11.83774 -11.81189 -11.80085 -11.77537
 Alpha  occ. eigenvalues --  -11.75680  -1.61407  -1.57131  -1.49008  -1.39199
 Alpha  occ. eigenvalues --   -1.30468  -1.09552  -1.01718  -0.98458  -0.94148
 Alpha  occ. eigenvalues --   -0.93391  -0.92106  -0.84715
 Alpha virt. eigenvalues --   -0.48993  -0.42920  -0.37985  -0.24122  -0.23735
 Alpha virt. eigenvalues --   -0.20480  -0.19190  -0.18048  -0.18044  -0.14872
 Alpha virt. eigenvalues --   -0.14128  -0.13916  -0.11856  -0.09612  -0.09240

  Beta  occ. eigenvalues --  -11.84459 -11.80655 -11.79530 -11.78489 -11.76639
  Beta  occ. eigenvalues --  -11.76576  -1.60516  -1.55666  -1.43410  -1.35685
  Beta  occ. eigenvalues --   -1.28947  -0.98494  -0.97934  -0.92626  -0.90391
  Beta  occ. eigenvalues --   -0.88792
  Beta virt. eigenvalues --   -0.47398  -0.45922  -0.37953  -0.34623  -0.32011
  Beta virt. eigenvalues --   -0.23638  -0.20035  -0.19187  -0.18660  -0.16500
  Beta virt. eigenvalues --   -0.16247  -0.13787  -0.13304  -0.13276  -0.11451

 Mulliken charges and spin densities:
               1          2
     1  C    0.902714  -0.339436
     2  C   -0.096786  -0.181062
     3  C   -0.350199   0.126001
     4  C    1.261060  -0.124420
     5  C    0.344923   2.298751
     6  C   -0.061711   0.220166
 Sum of Mulliken charges =   2.00000   2.00000

 Dipole moment (field-independent basis, Debye):
    X=             -0.0000    Y=              0.0000    Z=             -1.8323  Tot=              1.8323
 Quadrupole moment (field-independent basis, Debye-Ang):
   XX=            -26.5586   YY=            -28.2045   ZZ=             32.6472
   XY=             -0.0000   XZ=              0.0000   YZ=             -0.0000

 CCSD(T)=-226.8394597\S2=3.215332\S2-1=3.048213\S2A=3.005658\RMSD=7.315
 Normal termination of Gaussian 09 at Mon Jun 20 17:58:49 2016.
