 Gaussian 09, Revision E.01,
 Gaussian 09:  EM64L-G09RevE.01 30-Nov-2015

 -----------------------------------------------------
 #p ccsd(t)/6-311+G(3df) scf(MaxCyc=300) guess(Huckel)
 -----------------------------------------------------

 -------------
 ccsd(t) iener
 -------------
 Symbolic Z-matrix:
 Charge =  2 Multiplicity = 3

                         Standard orientation:
 ---------------------------------------------------------------------
 Center     Atomic      Atomic             Coordinates (Angstroms)
 Number     Number       Type             X           Y           Z
 ---------------------------------------------------------------------
      1          6           0       -0.692260    0.809586    0.000240
      2          6           0       -0.692264   -0.809589   -0.000312
      3          6           0        0.692240   -0.809520    0.000231
      4          6           0        0.692249    0.809524   -0.000321
      5          6           0        1.751551   -0.000005    0.000085
      6          6           0       -1.751515    0.000004    0.000078
 ---------------------------------------------------------------------

 SCF Done:  E(UHF) =  -225.923784342     A.U. after   30 cycles
 E2 =    -0.8040536668D+00 EUMP2 =    -0.22672783800880D+03
 CCSD(T)
 CCSD(T)= -0.22679705887D+03

 The electronic state is 3-A.
 Alpha  occ. eigenvalues --  -11.90633 -11.90586 -11.90490 -11.90451 -11.88471
 Alpha  occ. eigenvalues --  -11.88469  -1.87419  -1.72105  -1.49073  -1.47034
 Alpha  occ. eigenvalues --   -1.24033  -1.17991  -1.17902  -1.12542  -1.09867
 Alpha  occ. eigenvalues --   -0.96622  -0.92095  -0.90816
 Alpha virt. eigenvalues --   -0.49851  -0.42295  -0.38686  -0.37722  -0.30704
 Alpha virt. eigenvalues --   -0.25372  -0.21917  -0.21335  -0.19764  -0.18807
 Alpha virt. eigenvalues --   -0.18446  -0.17457  -0.15664  -0.15038  -0.13984

  Beta  occ. eigenvalues --  -11.90045 -11.89981 -11.89940 -11.89883 -11.85543
  Beta  occ. eigenvalues --  -11.85542  -1.85806  -1.71344  -1.44170  -1.42880
  Beta  occ. eigenvalues --   -1.23061  -1.16474  -1.08298  -1.08243  -0.93606
  Beta  occ. eigenvalues --   -0.88853
  Beta virt. eigenvalues --   -0.51526  -0.45942  -0.44963  -0.38014  -0.36524
  Beta virt. eigenvalues --   -0.30553  -0.28585  -0.24924  -0.21057  -0.19891
  Beta virt. eigenvalues --   -0.18736  -0.18339  -0.17222  -0.16809  -0.14862

 Mulliken charges and spin densities:
               1          2
     1  C    0.330033   0.064715
     2  C    0.330005   0.064723
     3  C    0.330029   0.064716
     4  C    0.329995   0.064717
     5  C    0.340023   0.870530
     6  C    0.339916   0.870599
 Sum of Mulliken charges =   2.00000   2.00000

 Dipole moment (field-independent basis, Debye):
    X=             -0.0001    Y=              0.0000    Z=             -0.0000  Tot=              0.0001
 Quadrupole moment (field-independent basis, Debye-Ang):
   XX=            -11.5474   YY=            -19.0886   ZZ=            -27.6212
   XY=              0.0000   XZ=              0.0000   YZ=             -0.0000

 Normal termination of Gaussian 09 at Wed Jun 22 03:22:55 2016.
