 Gaussian 09, Revision E.01,
 Gaussian 09:  EM64L-G09RevE.01 30-Nov-2015

 ---------------------------------------
 #p ccsd(t)/6-311+G(3df) scf(MaxCyc=300)
 ---------------------------------------

 -------------
 ccsd(t) iener
 -------------
 Symbolic Z-matrix:
 Charge =  1 Multiplicity = 2

                         Standard orientation:
 ---------------------------------------------------------------------
 Center     Atomic      Atomic             Coordinates (Angstroms)
 Number     Number       Type             X           Y           Z
 ---------------------------------------------------------------------
      1          6           0        1.160503    0.000136    0.000405
      2          6           0       -1.160510    0.000522    0.000426
      3          6           0       -0.000024   -0.819479    0.000143
      4          6           0        2.516750   -0.000381   -0.000553
      5          6           0        0.000077    0.819727    0.000142
      6          6           0       -2.516795   -0.000526   -0.000562
 ---------------------------------------------------------------------

 SCF Done:  E(UHF) =  -226.439543298     A.U. after   43 cycles
 E2 =    -0.8125440893D+00 EUMP2 =    -0.22725208738683D+03
 CCSD(T)
 CCSD(T)= -0.22733837387D+03

 The electronic state is 2-A.
 Alpha  occ. eigenvalues --  -11.65126 -11.65073 -11.62505 -11.62504 -11.55223
 Alpha  occ. eigenvalues --  -11.55217  -1.57258  -1.34395  -1.25422  -1.06226
 Alpha  occ. eigenvalues --   -1.06080  -0.87243  -0.83283  -0.76384  -0.73451
 Alpha  occ. eigenvalues --   -0.72594  -0.64129  -0.55262
 Alpha virt. eigenvalues --   -0.28967  -0.27909  -0.18740  -0.15496  -0.09766
 Alpha virt. eigenvalues --   -0.07430  -0.05457  -0.04485  -0.02391  -0.02200
 Alpha virt. eigenvalues --   -0.01645  -0.01252   0.00152   0.00676   0.01023

  Beta  occ. eigenvalues --  -11.64826 -11.64771 -11.61887 -11.61886 -11.54892
  Beta  occ. eigenvalues --  -11.54886  -1.57976  -1.31689  -1.21525  -1.06084
  Beta  occ. eigenvalues --   -1.04248  -0.85400  -0.83343  -0.74197  -0.72230
  Beta  occ. eigenvalues --   -0.67083  -0.63440
  Beta virt. eigenvalues --   -0.26745  -0.23186  -0.18265  -0.16243  -0.12310
  Beta virt. eigenvalues --   -0.09312  -0.07102  -0.05433  -0.04348  -0.02377
  Beta virt. eigenvalues --   -0.01170  -0.00609  -0.00206   0.00209   0.00876

 Mulliken charges and spin densities:
               1          2
     1  C   -0.174174   0.166138
     2  C   -0.174364   0.166156
     3  C    1.318085  -0.123288
     4  C   -0.645325   0.456484
     5  C    1.320986  -0.121955
     6  C   -0.645209   0.456466
 Sum of Mulliken charges =   1.00000   1.00000

 Dipole moment (field-independent basis, Debye):
    X=             -0.0000    Y=              0.0026    Z=              0.0001  Tot=              0.0026
 Quadrupole moment (field-independent basis, Debye-Ang):
   XX=            -22.9517   YY=            -30.4640   ZZ=            -30.1148
   XY=             -0.0007   XZ=             -0.0000   YZ=             -0.0000

 0=-227.2624441\MP4SDQ=-227.268278\CCSD=-227.2690074\CCSD(T)=-227.33837
 Normal termination of Gaussian 09 at Thu Nov  3 06:07:22 2016.
