 Gaussian 09, Revision E.01,
 Gaussian 09:  EM64L-G09RevE.01 30-Nov-2015

 ---------------------------------------
 #p ccsd(t)/6-311+G(3df) scf(MaxCyc=300)
 ---------------------------------------

 -------------
 ccsd(t) iener
 -------------
 Symbolic Z-matrix:
 Charge =  1 Multiplicity = 4

                         Standard orientation:
 ---------------------------------------------------------------------
 Center     Atomic      Atomic             Coordinates (Angstroms)
 Number     Number       Type             X           Y           Z
 ---------------------------------------------------------------------
      1          6           0        0.000000    0.830252    0.624072
      2          6           0        0.000000    0.000000    1.650815
      3          6           0        0.000000    1.176246   -0.731190
      4          6           0       -0.000000   -0.830252    0.624072
      5          6           0       -0.000000   -0.000000   -1.436578
      6          6           0       -0.000000   -1.176246   -0.731190
 ---------------------------------------------------------------------

 SCF Done:  E(UHF) =  -226.547797855     A.U. after   27 cycles
 E2 =    -0.7486934753D+00 EUMP2 =    -0.22729649133055D+03
 CCSD(T)
 CCSD(T)= -0.22739170981D+03

 The electronic state is 4-B1.
 Alpha  occ. eigenvalues --  -11.62480 -11.62433 -11.59332 -11.59331 -11.55937
 Alpha  occ. eigenvalues --  -11.54578  -1.56221  -1.39435  -1.31802  -1.09845
 Alpha  occ. eigenvalues --   -1.03419  -0.91794  -0.90564  -0.87937  -0.75382
 Alpha  occ. eigenvalues --   -0.69328  -0.68782  -0.68183  -0.66653
 Alpha virt. eigenvalues --   -0.18652  -0.15623  -0.11540  -0.08978  -0.07869
 Alpha virt. eigenvalues --   -0.05098  -0.04111  -0.03410  -0.03045  -0.01352
 Alpha virt. eigenvalues --   -0.01202  -0.00976  -0.00672   0.01942   0.03263

  Beta  occ. eigenvalues --  -11.62029 -11.61979 -11.58868 -11.54836 -11.54831
  Beta  occ. eigenvalues --  -11.52593  -1.52469  -1.33790  -1.19909  -1.04579
  Beta  occ. eigenvalues --   -0.99866  -0.88467  -0.86542  -0.79709  -0.64545
  Beta  occ. eigenvalues --   -0.63937
  Beta virt. eigenvalues --   -0.26629  -0.20065  -0.19266  -0.11242  -0.11050
  Beta virt. eigenvalues --   -0.07436  -0.05552  -0.04867  -0.04181  -0.03316
  Beta virt. eigenvalues --   -0.02773  -0.02267  -0.00320  -0.00166   0.00249

 Mulliken charges and spin densities:
               1          2
     1  C    0.152899   0.111270
     2  C    0.489201  -0.596454
     3  C    0.214511   1.454444
     4  C    0.152899   0.111270
     5  C   -0.224022   0.465026
     6  C    0.214511   1.454444
 Sum of Mulliken charges =   1.00000   3.00000

 Dipole moment (field-independent basis, Debye):
    X=             -0.0000    Y=             -0.0000    Z=              0.4527  Tot=              0.4527
 Quadrupole moment (field-independent basis, Debye-Ang):
   XX=            -30.4226   YY=            -24.0619   ZZ=            -25.8962
   XY=              0.0000   XZ=              0.0000   YZ=             -0.0000

 3301256\CCSD(T)=-227.3917098\S2=4.688934\S2-1=4.586925\S2A=3.923856\RM
 Normal termination of Gaussian 09 at Wed Nov  2 04:05:56 2016.
