 Gaussian 09, Revision E.01,
 Gaussian 09:  EM64L-G09RevE.01 30-Nov-2015

 -----------------------------------------------------
 #p ccsd(t)/6-311+G(3df) scf(MaxCyc=300) guess(Huckel)
 -----------------------------------------------------

 -------------
 ccsd(t) iener
 -------------
 Symbolic Z-matrix:
 Charge =  2 Multiplicity = 1

                         Standard orientation:
 ---------------------------------------------------------------------
 Center     Atomic      Atomic             Coordinates (Angstroms)
 Number     Number       Type             X           Y           Z
 ---------------------------------------------------------------------
      1          6           0        0.780272    0.767202   -0.332200
      2          6           0       -0.786201   -0.094262    0.827349
      3          6           0       -0.781862    0.763866   -0.337980
      4          6           0        0.786748   -0.671060   -0.492429
      5          6           0        0.775884   -0.090844    0.833550
      6          6           0       -0.774841   -0.674903   -0.498291
 ---------------------------------------------------------------------

 SCF Done:  E(RHF) =  -225.710598307     A.U. after   19 cycles
 E2 =    -0.9538627361D+00 EUMP2 =    -0.22666446104276D+03
 CCSD(T)
 CCSD(T)= -0.22670342016D+03

 The electronic state is 1-A.
 Alpha  occ. eigenvalues --  -11.92467 -11.92428 -11.92318 -11.92313 -11.92262
 Alpha  occ. eigenvalues --  -11.92259  -1.95839  -1.66476  -1.42944  -1.42934
 Alpha  occ. eigenvalues --   -1.21585  -1.08832  -1.08825  -1.06274  -1.02952
 Alpha  occ. eigenvalues --   -1.02942  -0.89094
 Alpha virt. eigenvalues --   -0.52316  -0.52310  -0.51921  -0.51918  -0.31936
 Alpha virt. eigenvalues --   -0.26387  -0.23623  -0.23621  -0.22056  -0.18955
 Alpha virt. eigenvalues --   -0.18387  -0.16630  -0.16630  -0.15980  -0.15980

 Mulliken charges:
               1
     1  C    0.335251
     2  C    0.326011
     3  C    0.331062
     4  C    0.324087
     5  C    0.340697
     6  C    0.342892
 Sum of Mulliken charges =   2.00000

 Dipole moment (field-independent basis, Debye):
    X=             -0.0000    Y=             -0.0013    Z=             -0.0012  Tot=              0.0018
 Quadrupole moment (field-independent basis, Debye-Ang):
   XX=            -17.4181   YY=            -22.7577   ZZ=            -22.7607
   XY=              0.0223   XZ=              0.0366   YZ=              0.0025

 6.6159812\CCSD(T)=-226.7034202\RMSD=9.200e-09\PG=C01 [X(C6)]\\@
 Normal termination of Gaussian 09 at Mon Jun 20 05:59:48 2016.
