 Gaussian 09, Revision E.01,
 Gaussian 09:  EM64L-G09RevE.01 30-Nov-2015

 ---------------------------------------
 #p ccsd(t)/6-311+G(3df) scf(MaxCyc=300)
 ---------------------------------------

 -------------
 ccsd(t) iener
 -------------
 Symbolic Z-matrix:
 Charge =  1 Multiplicity = 2

                         Standard orientation:
 ---------------------------------------------------------------------
 Center     Atomic      Atomic             Coordinates (Angstroms)
 Number     Number       Type             X           Y           Z
 ---------------------------------------------------------------------
      1          6           0       -0.765299   -0.685754   -0.000000
      2          6           0        0.765299   -0.685682   -0.000000
      3          6           0        0.765299    0.685754   -0.000000
      4          6           0       -0.765299    0.685682   -0.000000
      5          6           0       -0.000039    1.821506    0.000000
      6          6           0        0.000039   -1.821506    0.000000
 ---------------------------------------------------------------------

 SCF Done:  E(UHF) =  -226.463931842     A.U. after   17 cycles
 E2 =    -0.8641433002D+00 EUMP2 =    -0.22732807514175D+03
 CCSD(T)
 CCSD(T)= -0.22738588506D+03

 The electronic state is 2-BG.
 Alpha  occ. eigenvalues --  -11.66403 -11.66343 -11.66249 -11.66198 -11.57382
 Alpha  occ. eigenvalues --  -11.57382  -1.65770  -1.47535  -1.25409  -1.23056
 Alpha  occ. eigenvalues --   -0.96213  -0.95902  -0.89294  -0.87342  -0.75059
 Alpha  occ. eigenvalues --   -0.71389  -0.67837  -0.61381
 Alpha virt. eigenvalues --   -0.28956  -0.15709  -0.14442  -0.14378  -0.08623
 Alpha virt. eigenvalues --   -0.05965  -0.05742  -0.04558  -0.03791  -0.03164
 Alpha virt. eigenvalues --   -0.02656  -0.02623  -0.01408  -0.00692   0.02500

  Beta  occ. eigenvalues --  -11.65549 -11.65476 -11.65413 -11.65360 -11.57828
  Beta  occ. eigenvalues --  -11.57828  -1.63206  -1.47379  -1.22716  -1.19629
  Beta  occ. eigenvalues --   -0.94245  -0.88947  -0.86090  -0.85857  -0.75865
  Beta  occ. eigenvalues --   -0.69221  -0.61651
  Beta virt. eigenvalues --   -0.27914  -0.27085  -0.16026  -0.13649  -0.08479
  Beta virt. eigenvalues --   -0.05619  -0.05381  -0.05034  -0.04460  -0.03665
  Beta virt. eigenvalues --   -0.02852  -0.02295  -0.01634  -0.00692  -0.00512

 Mulliken charges and spin densities:
               1          2
     1  C    0.398005   0.295960
     2  C    0.398227   0.296018
     3  C    0.398005   0.295960
     4  C    0.398227   0.296018
     5  C   -0.296232  -0.091978
     6  C   -0.296232  -0.091978
 Sum of Mulliken charges =   1.00000   1.00000

 Dipole moment (field-independent basis, Debye):
    X=             -0.0000    Y=              0.0000    Z=             -0.0000  Tot=              0.0000
 Quadrupole moment (field-independent basis, Debye-Ang):
   XX=            -23.8378   YY=            -34.0670   ZZ=            -30.3175
   XY=              0.0006   XZ=             -0.0000   YZ=              0.0000

 7\PMP3-0=-227.3131933\MP4SDQ=-227.317563\CCSD=-227.3177645\CCSD(T)=-22
 Normal termination of Gaussian 09 at Wed Nov  2 15:31:41 2016.
