 Gaussian 09, Revision E.01,
 Gaussian 09:  EM64L-G09RevE.01 30-Nov-2015

 -----------------------------------------------------
 #p ccsd(t)/6-311+G(3df) scf(MaxCyc=300) guess(Huckel)
 -----------------------------------------------------

 -------------
 ccsd(t) iener
 -------------
 Symbolic Z-matrix:
 Charge =  2 Multiplicity = 3

                         Standard orientation:
 ---------------------------------------------------------------------
 Center     Atomic      Atomic             Coordinates (Angstroms)
 Number     Number       Type             X           Y           Z
 ---------------------------------------------------------------------
      1          6           0        2.290432   -0.235407   -0.022251
      2          6           0       -1.262203    0.593548   -0.032099
      3          6           0        0.910951   -0.011584    0.005192
      4          6           0       -0.025776    1.109468    0.028056
      5          6           0       -1.635553   -0.679792   -0.009064
      6          6           0       -0.277851   -0.776232    0.030166
 ---------------------------------------------------------------------

 SCF Done:  E(UHF) =  -225.935954777     A.U. after   39 cycles
 E2 =    -0.6981761809D+00 EUMP2 =    -0.22663413095787D+03
 CCSD(T)
 CCSD(T)= -0.22674702324D+03

 The electronic state is 3-A.
 Alpha  occ. eigenvalues --  -11.92870 -11.88156 -11.87777 -11.84752 -11.84562
 Alpha  occ. eigenvalues --  -11.79046  -1.83075  -1.61009  -1.49306  -1.36865
 Alpha  occ. eigenvalues --   -1.20731  -1.19234  -1.13712  -1.11282  -1.00415
 Alpha  occ. eigenvalues --   -0.96053  -0.92555  -0.85593
 Alpha virt. eigenvalues --   -0.47650  -0.45972  -0.38832  -0.33178  -0.28800
 Alpha virt. eigenvalues --   -0.23859  -0.23110  -0.19975  -0.19235  -0.17944
 Alpha virt. eigenvalues --   -0.17695  -0.15507  -0.15156  -0.15003  -0.13758

  Beta  occ. eigenvalues --  -11.92523 -11.87867 -11.86784 -11.83325 -11.80050
  Beta  occ. eigenvalues --  -11.79533  -1.80560  -1.57967  -1.43417  -1.36787
  Beta  occ. eigenvalues --   -1.18875  -1.15981  -1.05112  -1.02037  -0.95484
  Beta  occ. eigenvalues --   -0.88747
  Beta virt. eigenvalues --   -0.47093  -0.43429  -0.41166  -0.41040  -0.38333
  Beta virt. eigenvalues --   -0.34385  -0.23465  -0.21117  -0.21016  -0.18824
  Beta virt. eigenvalues --   -0.17964  -0.16685  -0.16295  -0.15129  -0.14424

 Mulliken charges and spin densities:
               1          2
     1  C   -0.067496  -0.033601
     2  C    0.200493  -1.156985
     3  C    0.470012  -0.171423
     4  C    0.373425   1.856419
     5  C    0.219465   1.533612
     6  C    0.804103  -0.028022
 Sum of Mulliken charges =   2.00000   2.00000

 Dipole moment (field-independent basis, Debye):
    X=             -0.2363    Y=             -0.5193    Z=             -0.0036  Tot=              0.5705
 Quadrupole moment (field-independent basis, Debye-Ang):
   XX=             -4.5394   YY=            -19.6493   ZZ=            -28.2117
   XY=             -0.0960   XZ=              0.0378   YZ=             -0.0342

 CCSD(T)=-226.7470232\S2=3.113076\S2-1=2.972386\S2A=2.821706\RMSD=9.822
 Normal termination of Gaussian 09 at Wed Jun 22 11:07:01 2016.
