 Gaussian 09, Revision E.01,
 Gaussian 09:  EM64L-G09RevE.01 30-Nov-2015

 ---------------------------------------
 #p ccsd(t)/6-311+G(3df) scf(MaxCyc=300)
 ---------------------------------------

 -------------
 ccsd(t) iener
 -------------
 Symbolic Z-matrix:
 Charge =  1 Multiplicity = 4

                         Standard orientation:
 ---------------------------------------------------------------------
 Center     Atomic      Atomic             Coordinates (Angstroms)
 Number     Number       Type             X           Y           Z
 ---------------------------------------------------------------------
      1          6           0        0.866107   -0.000229    0.000000
      2          6           0       -0.443161   -0.000863    0.000004
      3          6           0       -3.032861    0.000735   -0.000006
      4          6           0        2.156166    0.658733   -0.000002
      5          6           0        2.156876   -0.657925   -0.000002
      6          6           0       -1.703127   -0.000451    0.000005
 ---------------------------------------------------------------------

 SCF Done:  E(UHF) =  -226.555924642     A.U. after   31 cycles
 E2 =    -0.7378268473D+00 EUMP2 =    -0.22729375148926D+03
 CCSD(T)
 CCSD(T)= -0.22738725992D+03

 The electronic state is 4-A.
 Alpha  occ. eigenvalues --  -11.61929 -11.61706 -11.60513 -11.55231 -11.53792
 Alpha  occ. eigenvalues --  -11.52076  -1.52516  -1.35173  -1.26266  -1.11151
 Alpha  occ. eigenvalues --   -1.01167  -0.93466  -0.82868  -0.80840  -0.74503
 Alpha  occ. eigenvalues --   -0.72369  -0.70044  -0.66867  -0.58491
 Alpha virt. eigenvalues --   -0.19985  -0.14786  -0.13764  -0.07758  -0.05605
 Alpha virt. eigenvalues --   -0.05430  -0.04483  -0.01771  -0.01542  -0.00979
 Alpha virt. eigenvalues --   -0.00755  -0.00553   0.01795   0.02397   0.02440

  Beta  occ. eigenvalues --  -11.59531 -11.58662 -11.58522 -11.54618 -11.53791
  Beta  occ. eigenvalues --  -11.51312  -1.47667  -1.33820  -1.18819  -1.08326
  Beta  occ. eigenvalues --   -0.86223  -0.85549  -0.77339  -0.67843  -0.66691
  Beta  occ. eigenvalues --   -0.65759
  Beta virt. eigenvalues --   -0.24153  -0.22997  -0.22132  -0.14474  -0.07396
  Beta virt. eigenvalues --   -0.06737  -0.06601  -0.04850  -0.04282  -0.04069
  Beta virt. eigenvalues --   -0.00962  -0.00471  -0.00208   0.01137   0.01451

 Mulliken charges and spin densities:
               1          2
     1  C    0.377302  -0.169183
     2  C   -0.331424  -0.174356
     3  C   -0.406089   0.494601
     4  C    0.058876   1.151391
     5  C    0.059289   1.151368
     6  C    1.242046   0.546180
 Sum of Mulliken charges =   1.00000   3.00000

 Dipole moment (field-independent basis, Debye):
    X=              3.5346    Y=             -0.0006    Z=              0.0000  Tot=              3.5346
 Quadrupole moment (field-independent basis, Debye-Ang):
   XX=            -14.6875   YY=            -27.7331   ZZ=            -30.8123
   XY=              0.0037   XZ=             -0.0001   YZ=              0.0000

 -0=-227.326673\MP4SDQ=-227.326916\CCSD=-227.3332512\CCSD(T)=-227.38725
 Normal termination of Gaussian 09 at Thu Nov  3 17:07:25 2016.
