 Gaussian 09, Revision E.01,
 Gaussian 09:  EM64L-G09RevE.01 30-Nov-2015

 -----------------------------------------------------
 #p ccsd(t)/6-311+G(3df) scf(MaxCyc=300) guess(Huckel)
 -----------------------------------------------------

 -------------
 ccsd(t) iener
 -------------
 Symbolic Z-matrix:
 Charge =  2 Multiplicity = 1

                         Standard orientation:
 ---------------------------------------------------------------------
 Center     Atomic      Atomic             Coordinates (Angstroms)
 Number     Number       Type             X           Y           Z
 ---------------------------------------------------------------------
      1          6           0        0.677626   -0.952910    0.000120
      2          6           0        0.677964    0.952854    0.000128
      3          6           0       -0.677926   -0.952814   -0.000120
      4          6           0       -0.677590    0.952871   -0.000128
      5          6           0       -1.550956    0.000181    0.000108
      6          6           0        1.550883   -0.000183   -0.000108
 ---------------------------------------------------------------------

 SCF Done:  E(RHF) =  -225.908634727     A.U. after   15 cycles
 E2 =    -0.8688189910D+00 EUMP2 =    -0.22677745371750D+03
 CCSD(T)
 CCSD(T)= -0.22683452009D+03

 The electronic state is 1-A.
 Alpha  occ. eigenvalues --  -11.89606 -11.89587 -11.89468 -11.89447 -11.83920
 Alpha  occ. eigenvalues --  -11.83917  -1.80885  -1.65615  -1.52042  -1.38766
 Alpha  occ. eigenvalues --   -1.29915  -1.21975  -1.12547  -1.05058  -0.92964
 Alpha  occ. eigenvalues --   -0.91135  -0.90447
 Alpha virt. eigenvalues --   -0.49679  -0.49035  -0.47002  -0.37620  -0.36442
 Alpha virt. eigenvalues --   -0.35497  -0.24179  -0.20412  -0.19047  -0.18630
 Alpha virt. eigenvalues --   -0.18367  -0.16324  -0.15784  -0.15508  -0.14811

 Mulliken charges:
               1
     1  C    0.445177
     2  C    0.444825
     3  C    0.444770
     4  C    0.445104
     5  C    0.110242
     6  C    0.109883
 Sum of Mulliken charges =   2.00000

 Dipole moment (field-independent basis, Debye):
    X=              0.0004    Y=              0.0000    Z=              0.0000  Tot=              0.0004
 Quadrupole moment (field-independent basis, Debye-Ang):
   XX=            -13.6352   YY=            -12.8730   ZZ=            -29.1669
   XY=              0.0014   XZ=              0.0005   YZ=             -0.0000

 627301\CCSD(T)=-226.8345201\RMSD=8.617e-09\PG=C01 [X(C6)]\\@
 Normal termination of Gaussian 09 at Mon Jun 20 05:36:27 2016.
