 Gaussian 09, Revision E.01,
 Gaussian 09:  EM64L-G09RevE.01 30-Nov-2015

 -----------------------------------------------------
 #p ccsd(t)/6-311+G(3df) scf(MaxCyc=300) guess(Huckel)
 -----------------------------------------------------

 -------------
 ccsd(t) iener
 -------------
 Symbolic Z-matrix:
 Charge =  2 Multiplicity = 3

                         Standard orientation:
 ---------------------------------------------------------------------
 Center     Atomic      Atomic             Coordinates (Angstroms)
 Number     Number       Type             X           Y           Z
 ---------------------------------------------------------------------
      1          6           0       -0.103436    1.062342   -0.001818
      2          6           0        1.151459    0.641905    0.000154
      3          6           0        0.806209   -0.877415   -0.002554
      4          6           0       -0.306020   -0.508284    0.937796
      5          6           0       -0.310811   -0.508941   -0.935183
      6          6           0       -1.237401    0.190393    0.001605
 ---------------------------------------------------------------------

 SCF Done:  E(UHF) =  -225.835793125     A.U. after   38 cycles
 E2 =    -0.7826728409D+00 EUMP2 =    -0.22661846596604D+03
 CCSD(T)
 CCSD(T)= -0.22670718434D+03

 The electronic state is 3-A.
 Alpha  occ. eigenvalues --  -11.93420 -11.92197 -11.92024 -11.92021 -11.90631
 Alpha  occ. eigenvalues --  -11.88367  -1.92507  -1.60961  -1.54271  -1.38851
 Alpha  occ. eigenvalues --   -1.24630  -1.20907  -1.12885  -1.12699  -1.04632
 Alpha  occ. eigenvalues --   -1.00762  -0.96579  -0.93346
 Alpha virt. eigenvalues --   -0.48969  -0.46246  -0.41429  -0.38502  -0.31140
 Alpha virt. eigenvalues --   -0.25449  -0.23036  -0.22230  -0.19770  -0.18343
 Alpha virt. eigenvalues --   -0.17367  -0.16852  -0.16759  -0.16414  -0.15636

  Beta  occ. eigenvalues --  -11.92387 -11.92363 -11.90633 -11.89345 -11.88672
  Beta  occ. eigenvalues --  -11.86705  -1.90797  -1.53681  -1.52073  -1.39185
  Beta  occ. eigenvalues --   -1.19728  -1.13713  -1.10608  -1.02233  -0.96968
  Beta  occ. eigenvalues --   -0.93953
  Beta virt. eigenvalues --   -0.47820  -0.47094  -0.45643  -0.41051  -0.38685
  Beta virt. eigenvalues --   -0.38643  -0.32820  -0.23395  -0.22439  -0.20601
  Beta virt. eigenvalues --   -0.18590  -0.16830  -0.16530  -0.16366  -0.15888

 Mulliken charges and spin densities:
               1          2
     1  C    0.650635  -1.182922
     2  C    0.053225   1.441635
     3  C    0.586581   0.929896
     4  C    0.107470  -0.211796
     5  C    0.105743  -0.214820
     6  C    0.496346   1.238008
 Sum of Mulliken charges =   2.00000   2.00000

 Dipole moment (field-independent basis, Debye):
    X=             -0.2069    Y=              0.3494    Z=             -0.0052  Tot=              0.4061
 Quadrupole moment (field-independent basis, Debye-Ang):
   XX=            -18.8274   YY=            -19.1382   ZZ=            -25.1306
   XY=              0.0944   XZ=              0.0034   YZ=              0.0057

 \CCSD(T)=-226.7071843\S2=2.668425\S2-1=2.544756\S2A=2.16768\RMSD=8.586
 Normal termination of Gaussian 09 at Thu Jun 23 13:23:34 2016.
