 Gaussian 09, Revision E.01,
 Gaussian 09:  EM64L-G09RevE.01 30-Nov-2015

 ---------------------------------------
 #p ccsd(t)/6-311+G(3df) scf(MaxCyc=300)
 ---------------------------------------

 -------------
 ccsd(t) iener
 -------------
 Symbolic Z-matrix:
 Charge =  1 Multiplicity = 2

                         Standard orientation:
 ---------------------------------------------------------------------
 Center     Atomic      Atomic             Coordinates (Angstroms)
 Number     Number       Type             X           Y           Z
 ---------------------------------------------------------------------
      1          6           0       -1.686724   -0.000006    0.000023
      2          6           0        0.663422   -0.854568    0.000036
      3          6           0       -0.663424    0.854576   -0.000021
      4          6           0        0.663411    0.854566    0.000021
      5          6           0       -0.663413   -0.854574   -0.000036
      6          6           0        1.686728    0.000006   -0.000022
 ---------------------------------------------------------------------

 SCF Done:  E(UHF) =  -226.498713356     A.U. after   29 cycles
 E2 =    -0.8622363319D+00 EUMP2 =    -0.22736094968783D+03
 CCSD(T)
 CCSD(T)= -0.22741604366D+03

 The electronic state is 2-A.
 Alpha  occ. eigenvalues --  -11.60619 -11.60592 -11.60388 -11.60349 -11.60214
 Alpha  occ. eigenvalues --  -11.60191  -1.57570  -1.42470  -1.22900  -1.18584
 Alpha  occ. eigenvalues --   -0.98480  -0.92649  -0.88193  -0.86245  -0.83232
 Alpha  occ. eigenvalues --   -0.68725  -0.64789  -0.62299
 Alpha virt. eigenvalues --   -0.23138  -0.18535  -0.17740  -0.08869  -0.07416
 Alpha virt. eigenvalues --   -0.05983  -0.04527  -0.04502  -0.03365  -0.02482
 Alpha virt. eigenvalues --   -0.01612  -0.01376  -0.01056  -0.00258   0.02674

  Beta  occ. eigenvalues --  -11.60505 -11.60467 -11.60342 -11.60304 -11.57674
  Beta  occ. eigenvalues --  -11.57673  -1.57819  -1.41530  -1.23237  -1.14928
  Beta  occ. eigenvalues --   -0.98367  -0.91192  -0.88293  -0.81421  -0.66709
  Beta  occ. eigenvalues --   -0.63321  -0.61228
  Beta virt. eigenvalues --   -0.23059  -0.20474  -0.18237  -0.13028  -0.10044
  Beta virt. eigenvalues --   -0.07141  -0.06894  -0.04423  -0.04188  -0.03347
  Beta virt. eigenvalues --   -0.02473  -0.01346  -0.00990  -0.00361  -0.00295

 Mulliken charges and spin densities:
               1          2
     1  C    0.021049   0.827914
     2  C    0.239456  -0.163991
     3  C    0.239452  -0.163947
     4  C    0.239495  -0.163978
     5  C    0.239491  -0.163938
     6  C    0.021058   0.827940
 Sum of Mulliken charges =   1.00000   1.00000

 Dipole moment (field-independent basis, Debye):
    X=              0.0000    Y=             -0.0000    Z=              0.0000  Tot=              0.0000
 Quadrupole moment (field-independent basis, Debye-Ang):
   XX=            -23.6856   YY=            -23.8629   ZZ=            -31.6605
   XY=             -0.0000   XZ=              0.0000   YZ=              0.0000

 PMP3-0=-227.3515437\MP4SDQ=-227.3448376\CCSD=-227.3487574\CCSD(T)=-227
 Normal termination of Gaussian 09 at Wed Nov  2 22:53:55 2016.
