 Gaussian 09, Revision E.01,
 Gaussian 09:  EM64L-G09RevE.01 30-Nov-2015

 -----------------------------------------------------
 #p ccsd(t)/6-311+G(3df) scf(MaxCyc=300) guess(Huckel)
 -----------------------------------------------------

 -------------
 ccsd(t) iener
 -------------
 Symbolic Z-matrix:
 Charge =  2 Multiplicity = 3

                         Standard orientation:
 ---------------------------------------------------------------------
 Center     Atomic      Atomic             Coordinates (Angstroms)
 Number     Number       Type             X           Y           Z
 ---------------------------------------------------------------------
      1          6           0        0.746013   -1.183333    0.000062
      2          6           0        1.320244   -0.000132   -0.000082
      3          6           0        0.746095    1.183728    0.000040
      4          6           0       -0.632890   -0.918462   -0.000015
      5          6           0       -1.545929   -0.000227   -0.000020
      6          6           0       -0.633533    0.918427    0.000015
 ---------------------------------------------------------------------

 SCF Done:  E(UHF) =  -225.989869516     A.U. after   30 cycles
 E2 =    -0.6582295046D+00 EUMP2 =    -0.22664809902062D+03
 CCSD(T)
 CCSD(T)= -0.22678373631D+03

 The electronic state is 3-A.
 Alpha  occ. eigenvalues --  -11.88344 -11.84963 -11.84728 -11.84707 -11.84502
 Alpha  occ. eigenvalues --  -11.84462  -1.79283  -1.65716  -1.57170  -1.30610
 Alpha  occ. eigenvalues --   -1.29300  -1.19858  -1.15542  -1.10448  -1.04211
 Alpha  occ. eigenvalues --   -0.99699  -0.96391  -0.91987
 Alpha virt. eigenvalues --   -0.48898  -0.39753  -0.34335  -0.32546  -0.30462
 Alpha virt. eigenvalues --   -0.24033  -0.20169  -0.19135  -0.18930  -0.18201
 Alpha virt. eigenvalues --   -0.18152  -0.15937  -0.15451  -0.15285  -0.14783

  Beta  occ. eigenvalues --  -11.90380 -11.87348 -11.87324 -11.80090 -11.79680
  Beta  occ. eigenvalues --  -11.79672  -1.77084  -1.60153  -1.50554  -1.31909
  Beta  occ. eigenvalues --   -1.30758  -1.16995  -1.11968  -0.98819  -0.96916
  Beta  occ. eigenvalues --   -0.90738
  Beta virt. eigenvalues --   -0.54131  -0.45187  -0.38884  -0.35461  -0.32080
  Beta virt. eigenvalues --   -0.31699  -0.31402  -0.23745  -0.20679  -0.18873
  Beta virt. eigenvalues --   -0.17894  -0.17822  -0.15383  -0.15065  -0.14560

 Mulliken charges and spin densities:
               1          2
     1  C    0.288156   1.957217
     2  C    0.425362  -1.010870
     3  C    0.287466   1.958038
     4  C    0.207025  -1.398172
     5  C    0.585548   1.891296
     6  C    0.206442  -1.397509
 Sum of Mulliken charges =   2.00000   2.00000

 Dipole moment (field-independent basis, Debye):
    X=              0.7722    Y=              0.0005    Z=              0.0003  Tot=              0.7722
 Quadrupole moment (field-independent basis, Debye-Ang):
   XX=             -9.4226   YY=            -15.7441   ZZ=            -28.6899
   XY=             -0.0022   XZ=              0.0003   YZ=              0.0000

 Normal termination of Gaussian 09 at Thu Jun 23 13:10:27 2016.
