 Gaussian 09, Revision E.01,
 Gaussian 09:  EM64L-G09RevE.01 30-Nov-2015

 ---------------------------------------
 #p ccsd(t)/6-311+G(3df) scf(MaxCyc=300)
 ---------------------------------------

 -------------
 ccsd(t) iener
 -------------
 Symbolic Z-matrix:
 Charge =  1 Multiplicity = 2

                         Standard orientation:
 ---------------------------------------------------------------------
 Center     Atomic      Atomic             Coordinates (Angstroms)
 Number     Number       Type             X           Y           Z
 ---------------------------------------------------------------------
      1          6           0        1.150188    0.009626   -0.625936
      2          6           0        0.185053    0.292882    0.721122
      3          6           0       -1.083133   -0.014037    0.019135
      4          6           0       -0.004544   -0.869819   -0.541967
      5          6           0       -2.388244    0.286425   -0.066629
      6          6           0        0.942986   -0.967368    0.574598
      7          6           0        1.197694    1.262292   -0.080323
 ---------------------------------------------------------------------

 SCF Done:  E(UHF) =  -264.238028524     A.U. after   49 cycles
 E2 =    -0.9461771580D+00 EUMP2 =    -0.26518420568160D+03
 CCSD(T)
 CCSD(T)= -0.26528628982D+03

 The electronic state is 2-A.
 Alpha  occ. eigenvalues --  -11.63428 -11.63298 -11.63075 -11.59678 -11.59415
 Alpha  occ. eigenvalues --  -11.57352 -11.54076  -1.66157  -1.33440  -1.28618
 Alpha  occ. eigenvalues --   -1.15705  -1.13038  -0.93050  -0.86391  -0.83632
 Alpha  occ. eigenvalues --   -0.81494  -0.75588  -0.72228  -0.69719  -0.68385
 Alpha  occ. eigenvalues --   -0.63645
 Alpha virt. eigenvalues --   -0.24623  -0.19114  -0.15327  -0.13362  -0.09057
 Alpha virt. eigenvalues --   -0.07365  -0.06153  -0.05564  -0.04450  -0.02045
 Alpha virt. eigenvalues --   -0.01817  -0.01675  -0.00890  -0.00865   0.00614

  Beta  occ. eigenvalues --  -11.63094 -11.62318 -11.60154 -11.60060 -11.59438
  Beta  occ. eigenvalues --  -11.56482 -11.54992  -1.65887  -1.34080  -1.27196
  Beta  occ. eigenvalues --   -1.14410  -1.09397  -0.91962  -0.83669  -0.82580
  Beta  occ. eigenvalues --   -0.75888  -0.73603  -0.69271  -0.66460  -0.65018
  Beta virt. eigenvalues --   -0.24714  -0.22692  -0.15724  -0.15239  -0.12997
  Beta virt. eigenvalues --   -0.07400  -0.06867  -0.05848  -0.04607  -0.03785
  Beta virt. eigenvalues --   -0.01742  -0.01633  -0.01186  -0.00805   0.00343

 Mulliken charges and spin densities:
               1          2
     1  C    0.474414  -0.125673
     2  C    0.195467  -0.054642
     3  C    0.518147  -0.415498
     4  C    0.247762   0.274735
     5  C    0.026745   0.362219
     6  C   -0.123897   0.883625
     7  C   -0.338639   0.075235
 Sum of Mulliken charges =   1.00000   1.00000

 Dipole moment (field-independent basis, Debye):
    X=              1.2144    Y=             -1.0207    Z=             -0.2404  Tot=              1.6045
 Quadrupole moment (field-independent basis, Debye-Ang):
   XX=            -32.6951   YY=            -34.8614   ZZ=            -33.1645
   XY=             -0.7900   XZ=             -0.5876   YZ=              0.8748

 22909\CCSD=-265.2146992\CCSD(T)=-265.2862898\S2=1.272313\S2-1=1.197111
 Normal termination of Gaussian 09 at Sun Nov  6 08:26:48 2016.
