 Gaussian 09, Revision E.01,
 Gaussian 09:  EM64L-G09RevE.01 30-Nov-2015

 ---------------------------------------
 #p ccsd(t)/6-311+G(3df) scf(MaxCyc=300)
 ---------------------------------------

 -------------
 ccsd(t) iener
 -------------
 Symbolic Z-matrix:
 Charge =  1 Multiplicity = 4

                         Standard orientation:
 ---------------------------------------------------------------------
 Center     Atomic      Atomic             Coordinates (Angstroms)
 Number     Number       Type             X           Y           Z
 ---------------------------------------------------------------------
      1          6           0        0.692108    1.135944   -0.057843
      2          6           0       -0.692025    1.135904   -0.057838
      3          6           0       -0.000027   -0.413902    0.566049
      4          6           0       -1.299558   -0.153396    0.013165
      5          6           0       -2.468857   -0.775531   -0.238363
      6          6           0        2.468815   -0.775572   -0.238383
      7          6           0        1.299544   -0.153447    0.013213
 ---------------------------------------------------------------------

 SCF Done:  E(UHF) =  -264.288783013     A.U. after   41 cycles
 E2 =    -0.8558834136D+00 EUMP2 =    -0.26514466642664D+03
 CCSD(T)
 CCSD(T)= -0.26527008201D+03

 The electronic state is 4-A.
 Alpha  occ. eigenvalues --  -11.62332 -11.60739 -11.60601 -11.58124 -11.58123
 Alpha  occ. eigenvalues --  -11.54302 -11.54299  -1.55558  -1.35449  -1.27989
 Alpha  occ. eigenvalues --   -1.16792  -1.14707  -0.95147  -0.92517  -0.89252
 Alpha  occ. eigenvalues --   -0.78309  -0.72538  -0.71105  -0.70685  -0.67645
 Alpha  occ. eigenvalues --   -0.64221  -0.62852
 Alpha virt. eigenvalues --   -0.21412  -0.20906  -0.16716  -0.13104  -0.07891
 Alpha virt. eigenvalues --   -0.05248  -0.04399  -0.03736  -0.02726  -0.02576
 Alpha virt. eigenvalues --   -0.01503  -0.01074  -0.00661  -0.00324   0.00201

  Beta  occ. eigenvalues --  -11.60232 -11.57894 -11.57781 -11.56842 -11.56842
  Beta  occ. eigenvalues --  -11.54858 -11.54854  -1.52259  -1.34352  -1.22762
  Beta  occ. eigenvalues --   -1.09923  -1.08425  -0.91462  -0.87371  -0.79815
  Beta  occ. eigenvalues --   -0.70854  -0.69542  -0.65918  -0.62610
  Beta virt. eigenvalues --   -0.24083  -0.19405  -0.19128  -0.16080  -0.13001
  Beta virt. eigenvalues --   -0.11441  -0.10624  -0.07213  -0.05018  -0.03153
  Beta virt. eigenvalues --   -0.02271  -0.01924  -0.00509  -0.00290  -0.00015

 Mulliken charges and spin densities:
               1          2
     1  C   -0.124730   0.964425
     2  C   -0.124603   0.964528
     3  C   -0.457341   0.802208
     4  C    1.046636  -0.371146
     5  C   -0.193236   0.505554
     6  C   -0.193245   0.505486
     7  C    1.046519  -0.371055
 Sum of Mulliken charges =   1.00000   3.00000

 Dipole moment (field-independent basis, Debye):
    X=             -0.0001    Y=              0.6818    Z=              0.2647  Tot=              0.7314
 Quadrupole moment (field-independent basis, Debye-Ang):
   XX=            -30.9633   YY=            -32.9834   ZZ=            -36.6932
   XY=             -0.0000   XZ=              0.0003   YZ=             -1.2139

 5\CCSD=-265.2068087\CCSD(T)=-265.270082\S2=4.097709\S2-1=3.98877\S2A=3
 Normal termination of Gaussian 09 at Thu Nov  3 04:30:59 2016.
