 Gaussian 09, Revision E.01,
 Gaussian 09:  EM64L-G09RevE.01 30-Nov-2015

 -----------------------------------------------------
 #p ccsd(t)/6-311+G(3df) scf(MaxCyc=300) guess(Huckel)
 -----------------------------------------------------

 -------------
 ccsd(t) iener
 -------------
 Symbolic Z-matrix:
 Charge =  2 Multiplicity = 1

                         Standard orientation:
 ---------------------------------------------------------------------
 Center     Atomic      Atomic             Coordinates (Angstroms)
 Number     Number       Type             X           Y           Z
 ---------------------------------------------------------------------
      1          6           0       -0.607912   -0.878623    0.042442
      2          6           0       -0.607613    0.878885    0.043004
      3          6           0        0.184794   -0.000801    0.957038
      4          6           0        0.704960    0.742716   -0.595273
      5          6           0        1.581783   -0.000262    0.284386
      6          6           0        0.704899   -0.741972   -0.596334
      7          6           0       -1.960912    0.000057   -0.135262
 ---------------------------------------------------------------------

 SCF Done:  E(RHF) =  -263.591881213     A.U. after   39 cycles
 E2 =    -0.1038851600D+01 EUMP2 =    -0.26463073281235D+03
 CCSD(T)
 CCSD(T)= -0.26470203918D+03

 The electronic state is 1-A.
 Alpha  occ. eigenvalues --  -11.91523 -11.91397 -11.91326 -11.88733 -11.88701
 Alpha  occ. eigenvalues --  -11.88321 -11.83691  -1.95016  -1.65468  -1.49752
 Alpha  occ. eigenvalues --   -1.41179  -1.36610  -1.15291  -1.14493  -1.04617
 Alpha  occ. eigenvalues --   -1.04115  -1.00675  -0.97605  -0.96609  -0.85296
 Alpha virt. eigenvalues --   -0.52218  -0.47265  -0.46841  -0.39972  -0.38652
 Alpha virt. eigenvalues --   -0.24702  -0.23943  -0.23135  -0.21817  -0.20842
 Alpha virt. eigenvalues --   -0.18810  -0.17048  -0.16711  -0.16631  -0.14703

 Mulliken charges:
               1
     1  C    0.169386
     2  C    0.167624
     3  C    0.417982
     4  C    0.736427
     5  C   -0.254086
     6  C    0.735464
     7  C    0.027203
 Sum of Mulliken charges =   2.00000

 Dipole moment (field-independent basis, Debye):
    X=             -0.7222    Y=              0.0003    Z=             -1.3236  Tot=              1.5078
 Quadrupole moment (field-independent basis, Debye-Ang):
   XX=            -24.4744   YY=            -26.0776   ZZ=            -28.0695
   XY=              0.0049   XZ=             -1.8694   YZ=             -0.0020

 910047\MP4SDQ=-264.6124934\CCSD=-264.612543\CCSD(T)=-264.7020392\RMSD=
 Normal termination of Gaussian 09 at Thu Jun 23 11:46:25 2016.
