 Gaussian 09, Revision E.01,
 Gaussian 09:  EM64L-G09RevE.01 30-Nov-2015

 -----------------------------------------------------
 #p ccsd(t)/6-311+G(3df) scf(MaxCyc=300) guess(Huckel)
 -----------------------------------------------------

 -------------
 ccsd(t) iener
 -------------
 Symbolic Z-matrix:
 Charge =  2 Multiplicity = 1

                         Standard orientation:
 ---------------------------------------------------------------------
 Center     Atomic      Atomic             Coordinates (Angstroms)
 Number     Number       Type             X           Y           Z
 ---------------------------------------------------------------------
      1          6           0       -1.659881    0.000185    0.015474
      2          6           0       -3.070692   -0.000690    0.072314
      3          6           0       -0.545956   -0.843229   -0.020107
      4          6           0       -0.545965    0.843927   -0.019899
      5          6           0        0.638648    0.000291   -0.066723
      6          6           0        1.940007    0.000027   -0.158818
      7          6           0        3.243839   -0.000512    0.177758
 ---------------------------------------------------------------------

 SCF Done:  E(RHF) =  -263.767166276     A.U. after   27 cycles
 E2 =    -0.9038948926D+00 EUMP2 =    -0.26467106116899D+03
 CCSD(T)
 CCSD(T)= -0.26478223498D+03

 The electronic state is 1-A.
 Alpha  occ. eigenvalues --  -11.91529 -11.85725 -11.85678 -11.79511 -11.78249
 Alpha  occ. eigenvalues --  -11.78212 -11.73250  -1.77339  -1.54743  -1.47948
 Alpha  occ. eigenvalues --   -1.36803  -1.26443  -1.23698  -1.07607  -1.02919
 Alpha  occ. eigenvalues --   -0.97974  -0.89137  -0.88281  -0.85187  -0.83296
 Alpha virt. eigenvalues --   -0.50960  -0.45459  -0.38196  -0.37589  -0.36231
 Alpha virt. eigenvalues --   -0.25377  -0.23597  -0.22202  -0.19912  -0.18376
 Alpha virt. eigenvalues --   -0.16147  -0.15680  -0.14366  -0.13838  -0.13458

 Mulliken charges:
               1
     1  C   -0.302754
     2  C   -0.200254
     3  C    1.276195
     4  C    1.277574
     5  C   -0.606196
     6  C    0.537345
     7  C    0.018090
 Sum of Mulliken charges =   2.00000

 Dipole moment (field-independent basis, Debye):
    X=             -3.4608    Y=              0.0000    Z=             -0.3516  Tot=              3.4786
 Quadrupole moment (field-independent basis, Debye-Ang):
   XX=             10.6746   YY=            -32.0958   ZZ=            -31.8773
   XY=             -0.0007   XZ=             -2.1074   YZ=              0.0002

 73658\MP4SDQ=-264.7059567\CCSD=-264.71061\CCSD(T)=-264.782235\RMSD=4.2
 Normal termination of Gaussian 09 at Sat Jun 25 04:26:26 2016.
