 Gaussian 09, Revision E.01,
 Gaussian 09:  EM64L-G09RevE.01 30-Nov-2015

 ---------------------------------------
 #p ccsd(t)/6-311+G(3df) scf(MaxCyc=300)
 ---------------------------------------

 -------------
 ccsd(t) iener
 -------------
 Symbolic Z-matrix:
 Charge =  2 Multiplicity = 1

                         Standard orientation:
 ---------------------------------------------------------------------
 Center     Atomic      Atomic             Coordinates (Angstroms)
 Number     Number       Type             X           Y           Z
 ---------------------------------------------------------------------
      1          6           0        0.000013   -0.000461    1.192576
      2          6           0        0.880397    0.950409   -0.199332
      3          6           0        0.382847   -1.237496   -0.199602
      4          6           0        1.314653   -0.298856   -0.198177
      5          6           0       -1.263300    0.287322   -0.199595
      6          6           0       -0.916196   -0.988945   -0.198071
      7          6           0       -0.398414    1.288026   -0.197799
 ---------------------------------------------------------------------

 SCF Done:  E(RHF) =  -263.647740396     A.U. after   18 cycles
 E2 =    -0.1079599330D+01 EUMP2 =    -0.26472733972594D+03
 CCSD(T)
 CCSD(T)= -0.26478046398D+03

 The electronic state is 1-A.
 Alpha  occ. eigenvalues --  -11.93557 -11.86713 -11.86702 -11.86701 -11.84630
 Alpha  occ. eigenvalues --  -11.84630 -11.84617  -1.83181  -1.59631  -1.59629
 Alpha  occ. eigenvalues --   -1.33389  -1.33387  -1.32170  -1.21525  -1.08732
 Alpha  occ. eigenvalues --   -0.97986  -0.97982  -0.94295  -0.87366  -0.87365
 Alpha virt. eigenvalues --   -0.48375  -0.44138  -0.44136  -0.36687  -0.36686
 Alpha virt. eigenvalues --   -0.35028  -0.35024  -0.34417  -0.21590  -0.18306
 Alpha virt. eigenvalues --   -0.18154  -0.18154  -0.15977  -0.15977  -0.15135

 Mulliken charges:
               1
     1  C    0.259824
     2  C    0.448213
     3  C    0.448462
     4  C    0.132057
     5  C    0.448010
     6  C    0.131779
     7  C    0.131656
 Sum of Mulliken charges =   2.00000

 Dipole moment (field-independent basis, Debye):
    X=             -0.0000    Y=             -0.0000    Z=             -0.9145  Tot=              0.9145
 Quadrupole moment (field-independent basis, Debye-Ang):
   XX=            -22.0724   YY=            -22.0742   ZZ=            -30.3838
   XY=              0.0000   XZ=              0.0002   YZ=             -0.0005

 =-264.6837131\CCSD=-264.6847299\CCSD(T)=-264.780464\RMSD=3.539e-09\PG=
 Normal termination of Gaussian 09 at Fri Jul  8 17:01:26 2016.
