 Gaussian 09, Revision E.01,
 Gaussian 09:  EM64L-G09RevE.01 30-Nov-2015

 ---------------------------------------
 #p ccsd(t)/6-311+G(3df) scf(MaxCyc=300)
 ---------------------------------------

 -------------
 ccsd(t) iener
 -------------
 Symbolic Z-matrix:
 Charge =  1 Multiplicity = 2

                         Standard orientation:
 ---------------------------------------------------------------------
 Center     Atomic      Atomic             Coordinates (Angstroms)
 Number     Number       Type             X           Y           Z
 ---------------------------------------------------------------------
      1          6           0       -0.659025   -1.204980    0.000043
      2          6           0        0.659031   -1.204990   -0.000042
      3          6           0        0.000012    0.279767    0.000008
      4          6           0        1.359162    0.150684   -0.000051
      5          6           0        2.457484    0.914416    0.000037
      6          6           0       -2.457531    0.914366   -0.000037
      7          6           0       -1.359133    0.150737    0.000041
 ---------------------------------------------------------------------

 SCF Done:  E(UHF) =  -264.246805961     A.U. after   33 cycles
 E2 =    -0.9501084570D+00 EUMP2 =    -0.26519691441809D+03
 CCSD(T)
 CCSD(T)= -0.26530013933D+03

 The electronic state is 2-A.
 Alpha  occ. eigenvalues --  -11.68325 -11.60678 -11.60677 -11.58437 -11.58260
 Alpha  occ. eigenvalues --  -11.54829 -11.54826  -1.58245  -1.37745  -1.29321
 Alpha  occ. eigenvalues --   -1.16600  -1.13553  -0.90732  -0.90580  -0.85234
 Alpha  occ. eigenvalues --   -0.81120  -0.73123  -0.71702  -0.68546  -0.59501
 Alpha  occ. eigenvalues --   -0.58211
 Alpha virt. eigenvalues --   -0.24393  -0.23773  -0.17839  -0.16944  -0.09551
 Alpha virt. eigenvalues --   -0.06320  -0.04780  -0.04245  -0.02500  -0.02406
 Alpha virt. eigenvalues --   -0.01428  -0.01400  -0.01036   0.00024   0.02021

  Beta  occ. eigenvalues --  -11.69353 -11.60360 -11.60360 -11.56747 -11.56561
  Beta  occ. eigenvalues --  -11.54512 -11.54509  -1.59315  -1.36832  -1.27625
  Beta  occ. eigenvalues --   -1.15203  -1.12470  -0.90155  -0.86896  -0.85668
  Beta  occ. eigenvalues --   -0.74973  -0.72361  -0.67165  -0.67115  -0.58498
  Beta virt. eigenvalues --   -0.24352  -0.21678  -0.20181  -0.15548  -0.10491
  Beta virt. eigenvalues --   -0.08782  -0.06670  -0.04822  -0.03220  -0.02421
  Beta virt. eigenvalues --   -0.02235  -0.01405  -0.01232  -0.00059   0.00096

 Mulliken charges and spin densities:
               1          2
     1  C   -0.205212   0.364399
     2  C   -0.204928   0.364387
     3  C    0.458525  -0.205374
     4  C    0.780423   0.026434
     5  C   -0.304657   0.211884
     6  C   -0.304562   0.211900
     7  C    0.780411   0.026371
 Sum of Mulliken charges =   1.00000   1.00000

 Dipole moment (field-independent basis, Debye):
    X=              0.0000    Y=              0.5925    Z=              0.0000  Tot=              0.5925
 Quadrupole moment (field-independent basis, Debye-Ang):
   XX=            -26.9039   YY=            -34.9991   ZZ=            -37.1197
   XY=             -0.0005   XZ=             -0.0002   YZ=              0.0001

 9\CCSD=-265.2233333\CCSD(T)=-265.3001393\S2=0.883771\S2-1=0.835431\S2A
 Normal termination of Gaussian 09 at Fri Nov  4 06:35:50 2016.
