 Gaussian 09, Revision E.01,
 Gaussian 09:  EM64L-G09RevE.01 30-Nov-2015

 ---------------------------------------
 #p ccsd(t)/6-311+G(3df) scf(MaxCyc=300)
 ---------------------------------------

 -------------
 ccsd(t) iener
 -------------
 Symbolic Z-matrix:
 Charge =  1 Multiplicity = 2

                         Standard orientation:
 ---------------------------------------------------------------------
 Center     Atomic      Atomic             Coordinates (Angstroms)
 Number     Number       Type             X           Y           Z
 ---------------------------------------------------------------------
      1          6           0        1.696726   -0.000002    0.000022
      2          6           0        3.058196   -0.000157    0.000029
      3          6           0        0.542100   -0.798617   -0.000019
      4          6           0        0.542189    0.798741   -0.000019
      5          6           0       -0.635140    0.000116   -0.000050
      6          6           0       -1.950152    0.000120   -0.000012
      7          6           0       -3.253919   -0.000201    0.000049
 ---------------------------------------------------------------------

 SCF Done:  E(UHF) =  -264.347968336     A.U. after   39 cycles
 E2 =    -0.9012995429D+00 EUMP2 =    -0.26524926787870D+03
 CCSD(T)
 CCSD(T)= -0.26536076212D+03

 The electronic state is 2-A.
 Alpha  occ. eigenvalues --  -11.63813 -11.63743 -11.60441 -11.59706 -11.57763
 Alpha  occ. eigenvalues --  -11.53207 -11.49484  -1.58944  -1.34989  -1.29375
 Alpha  occ. eigenvalues --   -1.16751  -1.05586  -1.04900  -0.87152  -0.84576
 Alpha  occ. eigenvalues --   -0.74415  -0.71863  -0.69980  -0.67153  -0.63580
 Alpha  occ. eigenvalues --   -0.63005
 Alpha virt. eigenvalues --   -0.23396  -0.20473  -0.20160  -0.14064  -0.07566
 Alpha virt. eigenvalues --   -0.05716  -0.05591  -0.04805  -0.03862  -0.02545
 Alpha virt. eigenvalues --   -0.01895  -0.00893  -0.00735  -0.00129   0.00656

  Beta  occ. eigenvalues --  -11.63235 -11.63171 -11.61968 -11.58744 -11.58153
  Beta  occ. eigenvalues --  -11.53317 -11.47682  -1.59096  -1.34400  -1.24194
  Beta  occ. eigenvalues --   -1.15309  -1.04595  -1.03828  -0.87526  -0.86199
  Beta  occ. eigenvalues --   -0.71502  -0.68335  -0.67676  -0.66916  -0.61439
  Beta virt. eigenvalues --   -0.24326  -0.23008  -0.16814  -0.14312  -0.13934
  Beta virt. eigenvalues --   -0.07432  -0.05958  -0.05771  -0.04637  -0.02570
  Beta virt. eigenvalues --   -0.01553  -0.00789  -0.00693   0.00124   0.00985

 Mulliken charges and spin densities:
               1          2
     1  C   -0.107308  -0.455086
     2  C   -0.532782   0.583044
     3  C    1.191755   0.344247
     4  C    1.192331   0.344284
     5  C   -0.969976  -0.575971
     6  C    0.375946   0.882165
     7  C   -0.149966  -0.122683
 Sum of Mulliken charges =   1.00000   1.00000

 Dipole moment (field-independent basis, Debye):
    X=              2.3326    Y=              0.0003    Z=             -0.0001  Tot=              2.3326
 Quadrupole moment (field-independent basis, Debye-Ang):
   XX=            -29.5052   YY=            -35.6401   ZZ=            -35.1595
   XY=              0.0001   XZ=              0.0003   YZ=             -0.0000

 16\CCSD=-265.2946576\CCSD(T)=-265.3607621\S2=1.170099\S2-1=1.067984\S2
 Normal termination of Gaussian 09 at Sat Nov  5 21:29:08 2016.
