 Gaussian 09, Revision E.01,
 Gaussian 09:  EM64L-G09RevE.01 30-Nov-2015

 ---------------------------------------
 #p ccsd(t)/6-311+G(3df) scf(MaxCyc=300)
 ---------------------------------------

 -------------
 ccsd(t) iener
 -------------
 Symbolic Z-matrix:
 Charge =  2 Multiplicity = 1

                         Standard orientation:
 ---------------------------------------------------------------------
 Center     Atomic      Atomic             Coordinates (Angstroms)
 Number     Number       Type             X           Y           Z
 ---------------------------------------------------------------------
      1          6           0       -1.429495   -0.094988    0.000279
      2          6           0        1.260773    0.144335    0.000315
      3          6           0        1.215519    1.534579   -0.000044
      4          6           0       -0.091346   -0.406347    0.000799
      5          6           0       -2.374464    0.937803   -0.000478
      6          6           0        2.429340   -0.619431   -0.000549
      7          6           0       -1.010328   -1.495951   -0.000322
 ---------------------------------------------------------------------

 SCF Done:  E(RHF) =  -263.726772481     A.U. after   19 cycles
 E2 =    -0.8525335794D+00 EUMP2 =    -0.26457930606031D+03
 CCSD(T)
 CCSD(T)= -0.26470661434D+03

 The electronic state is 1-A.
 Alpha  occ. eigenvalues --  -11.89251 -11.88789 -11.88636 -11.80834 -11.74850
 Alpha  occ. eigenvalues --  -11.74183 -11.74040  -1.69102  -1.60792  -1.44396
 Alpha  occ. eigenvalues --   -1.37686  -1.27452  -1.10741  -1.00761  -0.98909
 Alpha  occ. eigenvalues --   -0.97652  -0.94936  -0.91976  -0.88583  -0.81049
 Alpha virt. eigenvalues --   -0.46860  -0.45076  -0.44581  -0.41163  -0.39257
 Alpha virt. eigenvalues --   -0.31483  -0.23506  -0.22330  -0.20512  -0.18225
 Alpha virt. eigenvalues --   -0.16808  -0.15371  -0.15332  -0.14658  -0.13520

 Mulliken charges:
               1
     1  C    0.496367
     2  C    1.778924
     3  C   -0.133321
     4  C    0.091805
     5  C   -0.235591
     6  C    0.210788
     7  C   -0.208971
 Sum of Mulliken charges =   2.00000

 Dipole moment (field-independent basis, Debye):
    X=              1.9398    Y=              2.8786    Z=              0.0007  Tot=              3.4712
 Quadrupole moment (field-independent basis, Debye-Ang):
   XX=             -0.8676   YY=            -30.3986   ZZ=            -32.5005
   XY=             -2.0284   XZ=             -0.0017   YZ=             -0.0017

 =-264.6342833\CCSD=-264.6416201\CCSD(T)=-264.7066143\RMSD=4.201e-09\PG
 Normal termination of Gaussian 09 at Fri Jul  8 17:53:08 2016.
