 Gaussian 09, Revision E.01,
 Gaussian 09:  EM64L-G09RevE.01 30-Nov-2015

 ---------------------------------------
 #p ccsd(t)/6-311+G(3df) scf(MaxCyc=300)
 ---------------------------------------

 -------------
 ccsd(t) iener
 -------------
 Symbolic Z-matrix:
 Charge =  1 Multiplicity = 4

                         Standard orientation:
 ---------------------------------------------------------------------
 Center     Atomic      Atomic             Coordinates (Angstroms)
 Number     Number       Type             X           Y           Z
 ---------------------------------------------------------------------
      1          6           0       -1.702758   -0.000028    0.000219
      2          6           0       -3.022865   -0.000078    0.000670
      3          6           0       -0.540679   -0.808900   -0.000756
      4          6           0       -0.540766    0.808952   -0.000756
      5          6           0        0.618680    0.000085    0.000057
      6          6           0        1.944214    0.000105    0.000221
      7          6           0        3.244176   -0.000136    0.000344
 ---------------------------------------------------------------------

 SCF Done:  E(UHF) =  -264.359132167     A.U. after   38 cycles
 E2 =    -0.8659986110D+00 EUMP2 =    -0.26522513077766D+03
 CCSD(T)
 CCSD(T)= -0.26532497850D+03

 The electronic state is 4-A.
 Alpha  occ. eigenvalues --  -11.61983 -11.61918 -11.58746 -11.58629 -11.58101
 Alpha  occ. eigenvalues --  -11.51776 -11.48423  -1.57227  -1.35416  -1.30567
 Alpha  occ. eigenvalues --   -1.16964  -1.05236  -1.04309  -0.88443  -0.87280
 Alpha  occ. eigenvalues --   -0.83168  -0.72321  -0.69503  -0.69479  -0.66078
 Alpha  occ. eigenvalues --   -0.64190  -0.61579
 Alpha virt. eigenvalues --   -0.19594  -0.19237  -0.15616  -0.07240  -0.05312
 Alpha virt. eigenvalues --   -0.05244  -0.05008  -0.03257  -0.02187  -0.01855
 Alpha virt. eigenvalues --   -0.01682  -0.01234  -0.00861   0.01110   0.01195

  Beta  occ. eigenvalues --  -11.61142 -11.61078 -11.60120 -11.59807 -11.51722
  Beta  occ. eigenvalues --  -11.50329 -11.46749  -1.57179  -1.32205  -1.21490
  Beta  occ. eigenvalues --   -1.11884  -1.03111  -1.00359  -0.86032  -0.85072
  Beta  occ. eigenvalues --   -0.67183  -0.67035  -0.65513  -0.60277
  Beta virt. eigenvalues --   -0.22601  -0.19063  -0.18423  -0.15551  -0.11471
  Beta virt. eigenvalues --   -0.09299  -0.06562  -0.05627  -0.04093  -0.03260
  Beta virt. eigenvalues --   -0.01989  -0.01089  -0.01050  -0.00416   0.01297

 Mulliken charges and spin densities:
               1          2
     1  C   -0.344834  -0.856984
     2  C   -0.179327   2.783756
     3  C    1.132987   0.393861
     4  C    1.133423   0.393975
     5  C   -0.972134  -0.490144
     6  C    0.397707   0.814699
     7  C   -0.167823  -0.039162
 Sum of Mulliken charges =   1.00000   3.00000

 Dipole moment (field-independent basis, Debye):
    X=             -4.5757    Y=              0.0001    Z=             -0.0009  Tot=              4.5757
 Quadrupole moment (field-independent basis, Debye-Ang):
   XX=            -20.2306   YY=            -36.7458   ZZ=            -34.6291
   XY=              0.0006   XZ=             -0.0026   YZ=             -0.0000

 5.2632675\CCSD(T)=-265.3249785\S2=4.252582\S2-1=4.142672\S2A=3.792611\
 Normal termination of Gaussian 09 at Fri Nov  4 11:59:35 2016.
