 Gaussian 09, Revision E.01,
 Gaussian 09:  EM64L-G09RevE.01 30-Nov-2015

 ---------------------------------------
 #p ccsd(t)/6-311+G(3df) scf(MaxCyc=300)
 ---------------------------------------

 -------------
 ccsd(t) iener
 -------------
 Symbolic Z-matrix:
 Charge =  1 Multiplicity = 4

                         Standard orientation:
 ---------------------------------------------------------------------
 Center     Atomic      Atomic             Coordinates (Angstroms)
 Number     Number       Type             X           Y           Z
 ---------------------------------------------------------------------
      1          6           0       -0.947092    1.179012    0.000233
      2          6           0        0.316617   -1.328271   -0.000327
      3          6           0        0.307995    1.329956   -0.000889
      4          6           0        1.472784    0.716682    0.000689
      5          6           0       -0.939354   -1.183915    0.000002
      6          6           0       -1.689126   -0.004597    0.000267
      7          6           0        1.478176   -0.708867    0.000025
 ---------------------------------------------------------------------

 SCF Done:  E(UHF) =  -264.452068833     A.U. after   29 cycles
 E2 =    -0.8263008935D+00 EUMP2 =    -0.26527836972623D+03
 CCSD(T)
 CCSD(T)= -0.26542938376D+03

 The electronic state is 4-A.
 Alpha  occ. eigenvalues --  -11.58618 -11.58506 -11.56612 -11.53771 -11.53765
 Alpha  occ. eigenvalues --  -11.50603 -11.50600  -1.45417  -1.35875  -1.32211
 Alpha  occ. eigenvalues --   -1.16735  -1.13336  -0.98115  -0.96712  -0.86752
 Alpha  occ. eigenvalues --   -0.79389  -0.79309  -0.73542  -0.66407  -0.66319
 Alpha  occ. eigenvalues --   -0.65971  -0.65224
 Alpha virt. eigenvalues --   -0.22520  -0.16505  -0.11920  -0.10754  -0.06983
 Alpha virt. eigenvalues --   -0.04300  -0.03771  -0.03651  -0.01745  -0.01082
 Alpha virt. eigenvalues --   -0.00206  -0.00043   0.00002   0.01970   0.01993

  Beta  occ. eigenvalues --  -11.55330 -11.55250 -11.54883 -11.52964 -11.52960
  Beta  occ. eigenvalues --  -11.50031 -11.50029  -1.42634  -1.32113  -1.27183
  Beta  occ. eigenvalues --   -1.10628  -1.09398  -0.94376  -0.92248  -0.78615
  Beta  occ. eigenvalues --   -0.75229  -0.67485  -0.67242  -0.61941
  Beta virt. eigenvalues --   -0.23683  -0.18964  -0.13733  -0.12423  -0.11478
  Beta virt. eigenvalues --   -0.08197  -0.08111  -0.05854  -0.03703  -0.03273
  Beta virt. eigenvalues --   -0.02433  -0.01225  -0.00227   0.00140   0.00687

 Mulliken charges and spin densities:
               1          2
     1  C    0.245953   1.594595
     2  C    0.331209  -1.788675
     3  C    0.329047  -1.789315
     4  C    0.034718   1.408637
     5  C    0.246267   1.596433
     6  C   -0.219732   0.569973
     7  C    0.032539   1.408352
 Sum of Mulliken charges =   1.00000   3.00000

 Dipole moment (field-independent basis, Debye):
    X=              0.6498    Y=              0.0020    Z=             -0.0005  Tot=              0.6498
 Quadrupole moment (field-independent basis, Debye-Ang):
   XX=            -26.2004   YY=            -28.7946   ZZ=            -36.0751
   XY=              0.0004   XZ=             -0.0009   YZ=              0.0001

 3\CCSD=-265.3604018\CCSD(T)=-265.4293838\S2=5.151538\S2-1=4.925931\S2A
 Normal termination of Gaussian 09 at Fri Nov  4 13:33:05 2016.
