 Gaussian 09, Revision E.01,
 Gaussian 09:  EM64L-G09RevE.01 30-Nov-2015

 ---------------------------------------
 #p ccsd(t)/6-311+G(3df) scf(MaxCyc=300)
 ---------------------------------------

 -------------
 ccsd(t) iener
 -------------
 Symbolic Z-matrix:
 Charge =  1 Multiplicity = 4

                         Standard orientation:
 ---------------------------------------------------------------------
 Center     Atomic      Atomic             Coordinates (Angstroms)
 Number     Number       Type             X           Y           Z
 ---------------------------------------------------------------------
      1          6           0       -1.663240   -0.791181    0.000069
      2          6           0       -0.423088    0.000013   -0.000024
      3          6           0        0.875072    0.000033   -0.000058
      4          6           0       -1.663342    0.791214    0.000069
      5          6           0        2.147177   -0.000029   -0.000010
      6          6           0        3.479601    0.000005    0.000026
      7          6           0       -2.752180   -0.000055   -0.000073
 ---------------------------------------------------------------------

 SCF Done:  E(UHF) =  -264.372693552     A.U. after   33 cycles
 E2 =    -0.8874868632D+00 EUMP2 =    -0.26526018041555D+03
 CCSD(T)
 CCSD(T)= -0.26536467442D+03

 The electronic state is 4-A.
 Alpha  occ. eigenvalues --  -11.62103 -11.61735 -11.61637 -11.61621 -11.51438
 Alpha  occ. eigenvalues --  -11.50967 -11.50440  -1.59196  -1.36022  -1.29263
 Alpha  occ. eigenvalues --   -1.17175  -1.06527  -1.05021  -0.87960  -0.86995
 Alpha  occ. eigenvalues --   -0.86482  -0.72769  -0.71177  -0.68810  -0.67369
 Alpha  occ. eigenvalues --   -0.64103  -0.55499
 Alpha virt. eigenvalues --   -0.17773  -0.16776  -0.16137  -0.07225  -0.05848
 Alpha virt. eigenvalues --   -0.05245  -0.04962  -0.04933  -0.01907  -0.01751
 Alpha virt. eigenvalues --   -0.01324  -0.01033   0.01201   0.01786   0.02131

  Beta  occ. eigenvalues --  -11.61494 -11.61421 -11.59825 -11.57153 -11.51217
  Beta  occ. eigenvalues --  -11.49839 -11.49690  -1.57210  -1.32308  -1.21228
  Beta  occ. eigenvalues --   -1.10581  -1.02731  -1.02244  -0.84031  -0.80143
  Beta  occ. eigenvalues --   -0.68455  -0.67024  -0.64673  -0.63459
  Beta virt. eigenvalues --   -0.23062  -0.21537  -0.18123  -0.18025  -0.11030
  Beta virt. eigenvalues --   -0.09770  -0.06976  -0.04830  -0.03913  -0.03374
  Beta virt. eigenvalues --   -0.01669  -0.01607  -0.00842  -0.00114   0.01476

 Mulliken charges and spin densities:
               1          2
     1  C    0.821790  -0.102213
     2  C   -0.196433   0.299575
     3  C   -0.460459   0.255124
     4  C    0.821516  -0.102202
     5  C    1.174961   0.445434
     6  C   -0.493162   0.670743
     7  C   -0.668213   1.533539
 Sum of Mulliken charges =   1.00000   3.00000

 Dipole moment (field-independent basis, Debye):
    X=             -4.8245    Y=             -0.0002    Z=              0.0000  Tot=              4.8245
 Quadrupole moment (field-independent basis, Debye-Ang):
   XX=            -18.5178   YY=            -36.5822   ZZ=            -34.6245
   XY=              0.0001   XZ=             -0.0002   YZ=              0.0000

 087\CCSD=-265.30011\CCSD(T)=-265.3646744\S2=4.127427\S2-1=4.002593\S2A
 Normal termination of Gaussian 09 at Thu Nov  3 01:37:39 2016.
