 Gaussian 09, Revision E.01,
 Gaussian 09:  EM64L-G09RevE.01 30-Nov-2015

 --------------------------------------
 #p ccsd(t,maxcyc=200)/6-311++G(3df,2p)
 --------------------------------------

 -------------
 ccsd(t) iener
 -------------
 Symbolic Z-matrix:
 Charge =  0 Multiplicity = 1

                         Standard orientation:
 ---------------------------------------------------------------------
 Center     Atomic      Atomic             Coordinates (Angstroms)
 Number     Number       Type             X           Y           Z
 ---------------------------------------------------------------------
      1          6           0       -0.000000    0.000000    0.055996
      2          6           0       -0.000000    0.000000    1.433701
      3          8           0        0.000000   -0.000000   -1.117273
 ---------------------------------------------------------------------

 SCF Done:  E(RHF) =  -150.454750390     A.U. after   13 cycles
 E2 =    -0.4902003009D+00 EUMP2 =    -0.15094495069062D+03
 CCSD(T)
 CCSD(T)= -0.15098768587D+03

 Unable to determine electronic state:  an orbital has unidentified symmetry.
 Alpha  occ. eigenvalues --  -20.68630 -11.41353 -11.34212  -1.50921  -1.03634
 Alpha  occ. eigenvalues --   -0.78373  -0.68145  -0.63385  -0.50927  -0.39363
 Alpha virt. eigenvalues --   -0.04752   0.05874   0.10228   0.10937   0.11241
 Alpha virt. eigenvalues --    0.13441   0.13798   0.14366   0.20244   0.20257
 Alpha virt. eigenvalues --    0.23750   0.27444   0.32682   0.32973   0.35594

 Mulliken charges:
               1
     1  C    0.792287
     2  C   -0.207034
     3  O   -0.585254
 Sum of Mulliken charges =  -0.00000

 Dipole moment (field-independent basis, Debye):
    X=             -0.0000    Y=              0.0000    Z=             -0.7433  Tot=              0.7433
 Quadrupole moment (field-independent basis, Debye-Ang):
   XX=            -14.4017   YY=            -18.1656   ZZ=            -22.8067
   XY=              0.0000   XZ=              0.0000   YZ=             -0.0000

 =-150.9603885\CCSD(T)=-150.9876859\RMSD=3.686e-09\PG=C*V [C*(O1C1C1)]\
 Normal termination of Gaussian 09 at Wed Mar  6 06:01:27 2019.
