 Gaussian 09, Revision E.01,
 Gaussian 09:  EM64L-G09RevE.01 30-Nov-2015

 --------------------------------------
 #p ccsd(t,maxcyc=200)/6-311++G(3df,2p)
 --------------------------------------

 -------------
 ccsd(t) iener
 -------------
 Symbolic Z-matrix:
 Charge =  1 Multiplicity = 2

                         Standard orientation:
 ---------------------------------------------------------------------
 Center     Atomic      Atomic             Coordinates (Angstroms)
 Number     Number       Type             X           Y           Z
 ---------------------------------------------------------------------
      1          6           0        0.232812    1.242641    0.000000
      2          6           0       -0.232812   -1.364349   -0.000000
      3          8           0        0.000000    0.091281    0.000000
 ---------------------------------------------------------------------

 SCF Done:  E(UHF) =  -150.094494630     A.U. after   28 cycles
 E2 =    -0.4185983923D+00 EUMP2 =    -0.15051309302185D+03
 CCSD(T)
 CCSD(T)= -0.15056378168D+03

 The electronic state is 2-A".
 Alpha  occ. eigenvalues --  -21.02670 -11.74113 -11.72985  -1.87774  -1.38329
 Alpha  occ. eigenvalues --   -1.01573  -1.00191  -0.94564  -0.85152  -0.74334
 Alpha virt. eigenvalues --   -0.26924  -0.17671  -0.15164  -0.10182  -0.06892
 Alpha virt. eigenvalues --   -0.05247  -0.04319  -0.03548  -0.00464  -0.00246
 Alpha virt. eigenvalues --    0.01298   0.03223   0.10819   0.11801   0.11904

  Beta  occ. eigenvalues --  -21.02926 -11.73879 -11.70194  -1.87658  -1.34320
  Beta  occ. eigenvalues --   -1.00524  -1.00320  -0.88629  -0.82403
  Beta virt. eigenvalues --   -0.25060  -0.21274  -0.14796  -0.12880  -0.09936
  Beta virt. eigenvalues --   -0.05349  -0.04212  -0.03144  -0.01790  -0.00100
  Beta virt. eigenvalues --    0.00772   0.02004   0.04218   0.11000   0.11840

 Mulliken charges and spin densities:
               1          2
     1  C    0.494928   0.096819
     2  C    0.515209   1.001151
     3  O   -0.010137  -0.097970
 Sum of Mulliken charges =   1.00000   1.00000

 Dipole moment (field-independent basis, Debye):
    X=              0.0058    Y=             -0.0715    Z=             -0.0000  Tot=              0.0718
 Quadrupole moment (field-independent basis, Debye-Ang):
   XX=            -12.6102   YY=             -9.6989   ZZ=            -14.2898
   XY=              0.5399   XZ=             -0.0000   YZ=             -0.0000

 4SDQ=-150.5396286\CCSD=-150.5416064\CCSD(T)=-150.5637817\S2=0.769009\S
 Normal termination of Gaussian 09 at Wed Mar  6 06:03:26 2019.
