 Gaussian 09, Revision E.01,
 Gaussian 09:  EM64L-G09RevE.01 30-Nov-2015

 --------------------------------------
 #p ccsd(t,maxcyc=200)/6-311++G(3df,2p)
 --------------------------------------

 -------------
 ccsd(t) iener
 -------------
 Symbolic Z-matrix:
 Charge =  0 Multiplicity = 3

                         Standard orientation:
 ---------------------------------------------------------------------
 Center     Atomic      Atomic             Coordinates (Angstroms)
 Number     Number       Type             X           Y           Z
 ---------------------------------------------------------------------
      1          6           0       -0.000000    0.000000    0.055160
      2          6           0       -0.000000    0.000000    1.425619
      3          8           0        0.000000   -0.000000   -1.110584
 ---------------------------------------------------------------------

 SCF Done:  E(UHF) =  -150.516079980     A.U. after   16 cycles
 E2 =    -0.4631555700D+00 EUMP2 =    -0.15097923554969D+03
 CCSD(T)
 CCSD(T)= -0.15101866245D+03

 The electronic state is 3-SG.
 Alpha  occ. eigenvalues --  -20.71193 -11.41766 -11.32567  -1.55337  -1.10221
 Alpha  occ. eigenvalues --   -0.81523  -0.72451  -0.72451  -0.52437  -0.45106
 Alpha  occ. eigenvalues --   -0.45106
 Alpha virt. eigenvalues --    0.05589   0.10270   0.10618   0.10618   0.12803
 Alpha virt. eigenvalues --    0.12803   0.14276   0.18453   0.18453   0.20315
 Alpha virt. eigenvalues --    0.26961   0.31748   0.31748   0.35188   0.37081

  Beta  occ. eigenvalues --  -20.68464 -11.41946 -11.29869  -1.49849  -0.96363
  Beta  occ. eigenvalues --   -0.77490  -0.61807  -0.61807  -0.46006
  Beta virt. eigenvalues --    0.00711   0.00711   0.05899   0.10617   0.11559
  Beta virt. eigenvalues --    0.11559   0.14609   0.14668   0.14668   0.20475
  Beta virt. eigenvalues --    0.27239   0.27239   0.27974   0.33937   0.33937

 Mulliken charges and spin densities:
               1          2
     1  C    0.852213   0.065439
     2  C   -0.290873   1.400945
     3  O   -0.561340   0.533616
 Sum of Mulliken charges =   0.00000   2.00000

 Dipole moment (field-independent basis, Debye):
    X=              0.0000    Y=             -0.0000    Z=             -1.3123  Tot=              1.3123
 Quadrupole moment (field-independent basis, Debye-Ang):
   XX=            -16.1310   YY=            -16.1310   ZZ=            -23.1368
   XY=              0.0000   XZ=              0.0000   YZ=             -0.0000

 CSD=-150.9942677\CCSD(T)=-151.0186625\S2=2.058987\S2-1=2.028099\S2A=2.
 Normal termination of Gaussian 09 at Wed Mar  6 06:02:16 2019.
