 Gaussian 09, Revision E.01,
 Gaussian 09:  EM64L-G09RevE.01 30-Nov-2015

 --------------------------------------
 #p ccsd(t,maxcyc=200)/6-311++G(3df,2p)
 --------------------------------------

 -------------
 ccsd(t) iener
 -------------
 Symbolic Z-matrix:
 Charge =  0 Multiplicity = 1

                         Standard orientation:
 ---------------------------------------------------------------------
 Center     Atomic      Atomic             Coordinates (Angstroms)
 Number     Number       Type             X           Y           Z
 ---------------------------------------------------------------------
      1          6           0        0.745612   -0.446200    0.000000
      2          6           0       -0.745612   -0.446181    0.000000
      3          8           0        0.000000    0.669286    0.000000
 ---------------------------------------------------------------------

 SCF Done:  E(RHF) =  -150.432648896     A.U. after   14 cycles
 E2 =    -0.4909109852D+00 EUMP2 =    -0.15092355988097D+03
 CCSD(T)
 CCSD(T)= -0.15096448661D+03

 The electronic state is 1-A'.
 Alpha  occ. eigenvalues --  -20.73334 -11.36891 -11.36808  -1.59203  -0.94319
 Alpha  occ. eigenvalues --   -0.86256  -0.67918  -0.62163  -0.48606  -0.43461
 Alpha virt. eigenvalues --    0.02111   0.08314   0.08961   0.09918   0.09968
 Alpha virt. eigenvalues --    0.12254   0.13080   0.14405   0.19090   0.20175
 Alpha virt. eigenvalues --    0.24872   0.27020   0.29000   0.31026   0.34456

 Mulliken charges:
               1
     1  C    0.118721
     2  C    0.118722
     3  O   -0.237443
 Sum of Mulliken charges =  -0.00000

 Dipole moment (field-independent basis, Debye):
    X=              0.0000    Y=              0.3122    Z=              0.0000  Tot=              0.3122
 Quadrupole moment (field-independent basis, Debye-Ang):
   XX=            -21.0285   YY=            -17.8273   ZZ=            -14.7522
   XY=             -0.0000   XZ=              0.0000   YZ=              0.0000

 .9392734\CCSD=-150.9378435\CCSD(T)=-150.9644866\RMSD=2.457e-09\PG=CS [
 Normal termination of Gaussian 09 at Wed Mar  6 06:02:12 2019.
