 Gaussian 09, Revision E.01,
 Gaussian 09:  EM64L-G09RevE.01 30-Nov-2015

 --------------------------------------
 #p ccsd(t,maxcyc=200)/6-311++G(3df,2p)
 --------------------------------------

 -------------
 ccsd(t) iener
 -------------
 Symbolic Z-matrix:
 Charge =  1 Multiplicity = 4

                         Standard orientation:
 ---------------------------------------------------------------------
 Center     Atomic      Atomic             Coordinates (Angstroms)
 Number     Number       Type             X           Y           Z
 ---------------------------------------------------------------------
      1          6           0        0.000000    0.000000    1.398990
      2          6           0        0.000000    0.000000    0.052218
      3          8           0       -0.000000   -0.000000   -1.088406
 ---------------------------------------------------------------------

 SCF Done:  E(UHF) =  -150.165757414     A.U. after   15 cycles
 E2 =    -0.4065953253D+00 EUMP2 =    -0.15057235273976D+03
 CCSD(T)
 CCSD(T)= -0.15060977389D+03

 The electronic state is 4-SG.
 Alpha  occ. eigenvalues --  -21.02962 -11.73137 -11.71227  -1.86719  -1.44518
 Alpha  occ. eigenvalues --   -1.11070  -1.02016  -1.02016  -0.98565  -0.82059
 Alpha  occ. eigenvalues --   -0.82059
 Alpha virt. eigenvalues --   -0.12373  -0.12373  -0.12067  -0.06433  -0.06433
 Alpha virt. eigenvalues --   -0.06407  -0.02122  -0.00841  -0.00841   0.03037
 Alpha virt. eigenvalues --    0.06969   0.12945   0.12945   0.14885   0.14885

  Beta  occ. eigenvalues --  -20.99625 -11.74139 -11.62973  -1.80125  -1.27341
  Beta  occ. eigenvalues --   -1.05708  -0.90948  -0.90948
  Beta virt. eigenvalues --   -0.27216  -0.26184  -0.26184  -0.11195  -0.06541
  Beta virt. eigenvalues --   -0.06541  -0.04466  -0.02436  -0.02436  -0.01638
  Beta virt. eigenvalues --    0.04562   0.04562   0.04700   0.08502   0.15528

 Mulliken charges and spin densities:
               1          2
     1  C    0.445857   2.889297
     2  C    0.908017  -0.582160
     3  O   -0.353874   0.692863
 Sum of Mulliken charges =   1.00000   3.00000

 Dipole moment (field-independent basis, Debye):
    X=              0.0000    Y=              0.0000    Z=              3.0423  Tot=              3.0423
 Quadrupole moment (field-independent basis, Debye-Ang):
   XX=            -13.2776   YY=            -13.2776   ZZ=             -7.8356
   XY=             -0.0000   XZ=              0.0000   YZ=             -0.0000

 \CCSD=-150.5890879\CCSD(T)=-150.6097739\S2=3.878345\S2-1=3.831209\S2A=
 Normal termination of Gaussian 09 at Wed Mar  6 06:02:01 2019.
