 Gaussian 09, Revision E.01,
 Gaussian 09:  EM64L-G09RevE.01 30-Nov-2015

 --------------------------------------
 #p ccsd(t,maxcyc=200)/6-311++G(3df,2p)
 --------------------------------------

 -------------
 ccsd(t) iener
 -------------
 Symbolic Z-matrix:
 Charge =  0 Multiplicity = 1

                         Standard orientation:
 ---------------------------------------------------------------------
 Center     Atomic      Atomic             Coordinates (Angstroms)
 Number     Number       Type             X           Y           Z
 ---------------------------------------------------------------------
      1          6           0        0.000000   -0.000000   -0.536348
      2          6           0       -0.000000    0.000000    0.757549
      3          6           0       -0.000000    0.000000    2.023735
      4          8           0        0.000000   -0.000000   -1.683701
 ---------------------------------------------------------------------

 SCF Done:  E(RHF) =  -188.390479385     A.U. after   15 cycles
 E2 =    -0.6554380861D+00 EUMP2 =    -0.18904591747076D+03
 CCSD(T)
 CCSD(T)= -0.18908325208D+03

 The electronic state is 1-SG.
 Alpha  occ. eigenvalues --  -20.69553 -11.46275 -11.32947 -11.24869  -1.54505
 Alpha  occ. eigenvalues --   -1.11625  -0.94415  -0.79573  -0.69237  -0.69237
 Alpha  occ. eigenvalues --   -0.48851  -0.44152  -0.44152
 Alpha virt. eigenvalues --    0.02742   0.02742   0.05531   0.08938   0.09592
 Alpha virt. eigenvalues --    0.09592   0.11483   0.14817   0.14817   0.15617
 Alpha virt. eigenvalues --    0.19522   0.19522   0.24270   0.26967   0.31441

 Mulliken charges:
               1
     1  C    0.042426
     2  C    1.112132
     3  C   -0.426076
     4  O   -0.728482
 Sum of Mulliken charges =  -0.00000

 Dipole moment (field-independent basis, Debye):
    X=              0.0000    Y=             -0.0000    Z=             -1.7568  Tot=              1.7568
 Quadrupole moment (field-independent basis, Debye-Ang):
   XX=            -21.7176   YY=            -21.7176   ZZ=            -30.2053
   XY=              0.0000   XZ=              0.0000   YZ=              0.0000

 409282\CCSD(T)=-189.0832521\RMSD=4.797e-09\PG=C*V [C*(O1C1C1C1)]\\@
 Normal termination of Gaussian 09 at Wed Mar  6 06:03:39 2019.
