 Gaussian 09, Revision E.01,
 Gaussian 09:  EM64L-G09RevE.01 30-Nov-2015

 --------------------------------------
 #p ccsd(t,maxcyc=200)/6-311++G(3df,2p)
 --------------------------------------

 -------------
 ccsd(t) iener
 -------------
 Symbolic Z-matrix:
 Charge =  0 Multiplicity = 3

                         Standard orientation:
 ---------------------------------------------------------------------
 Center     Atomic      Atomic             Coordinates (Angstroms)
 Number     Number       Type             X           Y           Z
 ---------------------------------------------------------------------
      1          6           0       -0.761241   -0.164610    0.000010
      2          6           0       -1.995457    0.024755   -0.000008
      3          6           0        0.546389    0.276921    0.000004
      4          8           0        1.657732   -0.102799   -0.000005
 ---------------------------------------------------------------------

 SCF Done:  E(UHF) =  -188.327795892     A.U. after   28 cycles
 E2 =    -0.5648399344D+00 EUMP2 =    -0.18889263582663D+03
 CCSD(T)
 CCSD(T)= -0.18897207870D+03

 The electronic state is 3-A.
 Alpha  occ. eigenvalues --  -20.61827 -11.37330 -11.35016 -11.28236  -1.45351
 Alpha  occ. eigenvalues --   -1.11549  -0.94492  -0.72971  -0.67844  -0.65538
 Alpha  occ. eigenvalues --   -0.57622  -0.51258  -0.48525  -0.37738
 Alpha virt. eigenvalues --    0.04886   0.06147   0.07981   0.09976   0.10140
 Alpha virt. eigenvalues --    0.10874   0.12452   0.14119   0.16033   0.16666
 Alpha virt. eigenvalues --    0.18503   0.19687   0.22981   0.24325   0.28248

  Beta  occ. eigenvalues --  -20.62196 -11.34664 -11.30234 -11.28509  -1.45767
  Beta  occ. eigenvalues --   -1.08833  -0.85262  -0.71464  -0.63445  -0.58534
  Beta  occ. eigenvalues --   -0.46713  -0.46506
  Beta virt. eigenvalues --   -0.01034   0.06650   0.08539   0.08704   0.10478
  Beta virt. eigenvalues --    0.10513   0.11018   0.11115   0.14626   0.16500
  Beta virt. eigenvalues --    0.16856   0.17364   0.19833   0.21893   0.24297

 Mulliken charges and spin densities:
               1          2
     1  C    0.283293  -1.611753
     2  C   -0.099003   2.559842
     3  C    0.453952   1.247457
     4  O   -0.638241  -0.195546
 Sum of Mulliken charges =  -0.00000   2.00000

 Dipole moment (field-independent basis, Debye):
    X=             -2.5012    Y=              0.3316    Z=              0.0000  Tot=              2.5230
 Quadrupole moment (field-independent basis, Debye-Ang):
   XX=            -22.1471   YY=            -22.5303   ZZ=            -21.3985
   XY=              0.2026   XZ=              0.0001   YZ=             -0.0000

 Normal termination of Gaussian 09 at Wed Mar  6 06:57:54 2019.
