 Gaussian 09, Revision E.01,
 Gaussian 09:  EM64L-G09RevE.01 30-Nov-2015

 --------------------------------------
 #p ccsd(t,maxcyc=200)/6-311++G(3df,2p)
 --------------------------------------

 -------------
 ccsd(t) iener
 -------------
 Symbolic Z-matrix:
 Charge =  0 Multiplicity = 1

                         Standard orientation:
 ---------------------------------------------------------------------
 Center     Atomic      Atomic             Coordinates (Angstroms)
 Number     Number       Type             X           Y           Z
 ---------------------------------------------------------------------
      1          6           0       -0.926592    0.696729    0.000001
      2          6           0        1.695802   -0.043940    0.000001
      3          6           0        0.421329    0.104411   -0.000002
      4          8           0       -0.892903   -0.567900    0.000000
 ---------------------------------------------------------------------

 SCF Done:  E(RHF) =  -188.235846891     A.U. after   18 cycles
 E2 =    -0.6400857385D+00 EUMP2 =    -0.18887593262982D+03
 CCSD(T)
 CCSD(T)= -0.18893302315D+03

 The electronic state is 1-A.
 Alpha  occ. eigenvalues --  -20.74103 -11.41010 -11.33134 -11.32886  -1.59136
 Alpha  occ. eigenvalues --   -1.07042  -0.92761  -0.79677  -0.71331  -0.62384
 Alpha  occ. eigenvalues --   -0.49301  -0.45281  -0.43223
 Alpha virt. eigenvalues --   -0.00205   0.03847   0.07294   0.09694   0.10207
 Alpha virt. eigenvalues --    0.10444   0.11602   0.13366   0.15390   0.16885
 Alpha virt. eigenvalues --    0.16931   0.18731   0.22236   0.23627   0.24655

 Mulliken charges:
               1
     1  C   -0.059005
     2  C   -0.313861
     3  C    0.796534
     4  O   -0.423668
 Sum of Mulliken charges =  -0.00000

 Dipole moment (field-independent basis, Debye):
    X=             -1.3776    Y=             -0.3366    Z=             -0.0000  Tot=              1.4181
 Quadrupole moment (field-independent basis, Debye-Ang):
   XX=            -28.0507   YY=            -22.9890   ZZ=            -22.1968
   XY=              0.8822   XZ=              0.0000   YZ=             -0.0000

 273\CCSD(T)=-188.9330232\RMSD=3.866e-09\PG=C01 [X(C3O1)]\\@
 Normal termination of Gaussian 09 at Wed Mar  6 06:09:02 2019.
