 Gaussian 09, Revision E.01,
 Gaussian 09:  EM64L-G09RevE.01 30-Nov-2015

 --------------------------------------
 #p ccsd(t,maxcyc=200)/6-311++G(3df,2p)
 --------------------------------------

 -------------
 ccsd(t) iener
 -------------
 Symbolic Z-matrix:
 Charge =  1 Multiplicity = 2

                         Standard orientation:
 ---------------------------------------------------------------------
 Center     Atomic      Atomic             Coordinates (Angstroms)
 Number     Number       Type             X           Y           Z
 ---------------------------------------------------------------------
      1          6           0       -0.000000   -0.000000    1.995466
      2          6           0       -0.000000   -0.000000    0.785035
      3          6           0        0.000000    0.000000   -0.551125
      4          8           0        0.000000    0.000000   -1.672032
 ---------------------------------------------------------------------

 SCF Done:  E(UHF) =  -188.052416409     A.U. after   27 cycles
 E2 =    -0.5652342447D+00 EUMP2 =    -0.18861765065363D+03
 CCSD(T)
 CCSD(T)= -0.18868657150D+03

 The electronic state is 2-SG.
 Alpha  occ. eigenvalues --  -20.96657 -11.72406 -11.64243 -11.56173  -1.80050
 Alpha  occ. eigenvalues --   -1.40280  -1.24220  -1.04092  -0.92328  -0.91554
 Alpha  occ. eigenvalues --   -0.91554  -0.76454  -0.76454
 Alpha virt. eigenvalues --   -0.22434  -0.22434  -0.10453  -0.06266  -0.05655
 Alpha virt. eigenvalues --   -0.05655  -0.02891  -0.01322  -0.01322   0.00840
 Alpha virt. eigenvalues --    0.03994   0.03994   0.07566   0.07566   0.08202

  Beta  occ. eigenvalues --  -20.98878 -11.71399 -11.58087 -11.57581  -1.84158
  Beta  occ. eigenvalues --   -1.40323  -1.18680  -1.06712  -0.98252  -0.98252
  Beta  occ. eigenvalues --   -0.74865  -0.74865
  Beta virt. eigenvalues --   -0.22934  -0.17521  -0.17521  -0.10229  -0.05996
  Beta virt. eigenvalues --   -0.05996  -0.04813  -0.02308  -0.01057  -0.01057
  Beta virt. eigenvalues --    0.01041   0.04342   0.04342   0.08406   0.09280

 Mulliken charges and spin densities:
               1          2
     1  C    0.473250   2.063739
     2  C    0.784143  -1.175037
     3  C    0.257609   0.579344
     4  O   -0.515002  -0.468046
 Sum of Mulliken charges =   1.00000   1.00000

 Dipole moment (field-independent basis, Debye):
    X=             -0.0000    Y=              0.0000    Z=              2.5524  Tot=              2.5524
 Quadrupole moment (field-independent basis, Debye-Ang):
   XX=            -18.6155   YY=            -18.6155   ZZ=             -7.9491
   XY=              0.0000   XZ=              0.0000   YZ=              0.0000

 CCSD(T)=-188.6865715\S2=1.461989\S2-1=1.342315\S2A=1.166492\RMSD=5.747
 Normal termination of Gaussian 09 at Wed Mar  6 06:20:12 2019.
