 Gaussian 09, Revision E.01,
 Gaussian 09:  EM64L-G09RevE.01 30-Nov-2015

 --------------------------------------
 #p ccsd(t,maxcyc=200)/6-311++G(3df,2p)
 --------------------------------------

 -------------
 ccsd(t) iener
 -------------
 Symbolic Z-matrix:
 Charge =  1 Multiplicity = 4

                         Standard orientation:
 ---------------------------------------------------------------------
 Center     Atomic      Atomic             Coordinates (Angstroms)
 Number     Number       Type             X           Y           Z
 ---------------------------------------------------------------------
      1          6           0       -1.055092   -0.714811   -0.000006
      2          6           0       -1.055076    0.714820   -0.000006
      3          6           0        0.218037   -0.000008    0.000024
      4          8           0        1.419099   -0.000000   -0.000009
 ---------------------------------------------------------------------

 SCF Done:  E(UHF) =  -187.919737169     A.U. after   19 cycles
 E2 =    -0.5456978347D+00 EUMP2 =    -0.18846543500420D+03
 CCSD(T)
 CCSD(T)= -0.18853644710D+03

 The electronic state is 4-A.
 Alpha  occ. eigenvalues --  -20.95320 -11.69443 -11.69317 -11.66420  -1.79323
 Alpha  occ. eigenvalues --   -1.54742  -1.09815  -1.07511  -0.98749  -0.98458
 Alpha  occ. eigenvalues --   -0.92829  -0.84761  -0.79895  -0.71348
 Alpha virt. eigenvalues --   -0.22550  -0.10332  -0.09797  -0.07081  -0.06554
 Alpha virt. eigenvalues --   -0.06117  -0.02836  -0.01674  -0.01359  -0.00142
 Alpha virt. eigenvalues --    0.00062   0.02246   0.05209   0.05963   0.07491

  Beta  occ. eigenvalues --  -20.91649 -11.67642 -11.65536 -11.65472  -1.69237
  Beta  occ. eigenvalues --   -1.46473  -1.01664  -0.96858  -0.86763  -0.82114
  Beta  occ. eigenvalues --   -0.76043
  Beta virt. eigenvalues --   -0.30777  -0.28915  -0.22491  -0.10972  -0.08031
  Beta virt. eigenvalues --   -0.07228  -0.06170  -0.05958  -0.02321  -0.01931
  Beta virt. eigenvalues --   -0.00752  -0.00522   0.00111   0.02177   0.03621

 Mulliken charges and spin densities:
               1          2
     1  C    0.363591   1.389017
     2  C    0.363572   1.389036
     3  C    0.664758  -0.664724
     4  O   -0.391922   0.886671
 Sum of Mulliken charges =   1.00000   3.00000

 Dipole moment (field-independent basis, Debye):
    X=             -3.1228    Y=              0.0000    Z=              0.0000  Tot=              3.1228
 Quadrupole moment (field-independent basis, Debye-Ang):
   XX=            -15.2042   YY=            -16.3935   ZZ=            -17.8420
   XY=              0.0000   XZ=              0.0001   YZ=             -0.0000

 Normal termination of Gaussian 09 at Wed Mar  6 06:30:39 2019.
