 Gaussian 09, Revision E.01,
 Gaussian 09:  EM64L-G09RevE.01 30-Nov-2015

 --------------------------------------
 #p ccsd(t,maxcyc=200)/6-311++G(3df,2p)
 --------------------------------------

 -------------
 ccsd(t) iener
 -------------
 Symbolic Z-matrix:
 Charge =  1 Multiplicity = 4

                         Standard orientation:
 ---------------------------------------------------------------------
 Center     Atomic      Atomic             Coordinates (Angstroms)
 Number     Number       Type             X           Y           Z
 ---------------------------------------------------------------------
      1          6           0       -0.767242    0.328231    0.000019
      2          6           0       -2.022214   -0.175706   -0.000048
      3          6           0        0.548399   -0.135006    0.000118
      4          8           0        1.680793   -0.013139   -0.000066
 ---------------------------------------------------------------------

 SCF Done:  E(UHF) =  -187.936891192     A.U. after   41 cycles
 E2 =    -0.5507371825D+00 EUMP2 =    -0.18848762837451D+03
 CCSD(T)
 CCSD(T)= -0.18854617051D+03

 The electronic state is 4-A.
 Alpha  occ. eigenvalues --  -20.94551 -11.68339 -11.67472 -11.64487  -1.79030
 Alpha  occ. eigenvalues --   -1.43373  -1.23194  -1.03078  -0.95544  -0.93949
 Alpha  occ. eigenvalues --   -0.92115  -0.82632  -0.78778  -0.62927
 Alpha virt. eigenvalues --   -0.26864  -0.15957  -0.06989  -0.06835  -0.06067
 Alpha virt. eigenvalues --   -0.05423  -0.02910  -0.02151  -0.01347  -0.01065
 Alpha virt. eigenvalues --   -0.00432   0.02475   0.03344   0.05862   0.07017

  Beta  occ. eigenvalues --  -20.92702 -11.67212 -11.63807 -11.61292  -1.75127
  Beta  occ. eigenvalues --   -1.32864  -1.12307  -0.99717  -0.88416  -0.85614
  Beta  occ. eigenvalues --   -0.71883
  Beta virt. eigenvalues --   -0.31569  -0.25280  -0.15767  -0.12827  -0.11514
  Beta virt. eigenvalues --   -0.05487  -0.05061  -0.04787  -0.03152  -0.01504
  Beta virt. eigenvalues --   -0.01351   0.00156   0.00213   0.02238   0.03664

 Mulliken charges and spin densities:
               1          2
     1  C    0.196492   0.110156
     2  C    0.296481   2.376672
     3  C    0.932854   0.138912
     4  O   -0.425827   0.374260
 Sum of Mulliken charges =   1.00000   3.00000

 Dipole moment (field-independent basis, Debye):
    X=             -4.2031    Y=             -0.8643    Z=              0.0004  Tot=              4.2911
 Quadrupole moment (field-independent basis, Debye-Ang):
   XX=             -7.9828   YY=            -20.1326   ZZ=            -17.6003
   XY=              0.9776   XZ=              0.0004   YZ=              0.0005

 Normal termination of Gaussian 09 at Wed Mar  6 06:47:17 2019.
