 Gaussian 09, Revision E.01,
 Gaussian 09:  EM64L-G09RevE.01 30-Nov-2015

 --------------------------------------
 #p ccsd(t,maxcyc=200)/6-311++G(3df,2p)
 --------------------------------------

 -------------
 ccsd(t) iener
 -------------
 Symbolic Z-matrix:
 Charge =  0 Multiplicity = 1

                         Standard orientation:
 ---------------------------------------------------------------------
 Center     Atomic      Atomic             Coordinates (Angstroms)
 Number     Number       Type             X           Y           Z
 ---------------------------------------------------------------------
      1          6           0        0.024899   -0.314429   -1.758835
      2          6           0       -0.026936    0.339367    1.902382
      3          6           0       -0.009470    0.119737    0.667902
      4          8           0        0.008630   -0.108507   -0.608586
 ---------------------------------------------------------------------

 SCF Done:  E(RHF) =  -188.212680940     A.U. after   15 cycles
 E2 =    -0.6579381199D+00 EUMP2 =    -0.18887061905954D+03
 CCSD(T)
 CCSD(T)= -0.18891696324D+03

 The electronic state is 1-A.
 Alpha  occ. eigenvalues --  -20.85269 -11.49901 -11.27569 -11.24573  -1.68869
 Alpha  occ. eigenvalues --   -1.19359  -0.95624  -0.82166  -0.82166  -0.66177
 Alpha  occ. eigenvalues --   -0.42284  -0.38026  -0.38026
 Alpha virt. eigenvalues --   -0.00061  -0.00061   0.05130   0.07924   0.09705
 Alpha virt. eigenvalues --    0.09705   0.12694   0.14622   0.14622   0.14874
 Alpha virt. eigenvalues --    0.18004   0.18004   0.23125   0.26366   0.27632

 Mulliken charges:
               1
     1  C    0.441387
     2  C   -0.984187
     3  C    0.859002
     4  O   -0.316203
 Sum of Mulliken charges =  -0.00000

 Dipole moment (field-independent basis, Debye):
    X=              0.0901    Y=             -1.1364    Z=             -6.3621  Tot=              6.4634
 Quadrupole moment (field-independent basis, Debye-Ang):
   XX=            -22.4549   YY=            -22.7168   ZZ=            -30.7231
   XY=              0.0209   XZ=              0.1171   YZ=             -1.4765

 3086\CCSD(T)=-188.9169632\RMSD=2.653e-09\PG=C01 [X(C3O1)]\\@
 Normal termination of Gaussian 09 at Wed Mar  6 06:08:18 2019.
