 Gaussian 09, Revision E.01,
 Gaussian 09:  EM64L-G09RevE.01 30-Nov-2015

 --------------------------------------
 #p ccsd(t,maxcyc=200)/6-311++G(3df,2p)
 --------------------------------------

 -------------
 ccsd(t) iener
 -------------
 Symbolic Z-matrix:
 Charge =  1 Multiplicity = 2

                         Standard orientation:
 ---------------------------------------------------------------------
 Center     Atomic      Atomic             Coordinates (Angstroms)
 Number     Number       Type             X           Y           Z
 ---------------------------------------------------------------------
      1          6           0        0.000000    0.000000    1.891028
      2          6           0        0.000000    0.000000    0.696806
      3          6           0       -0.000000   -0.000000   -1.777955
      4          8           0       -0.000000   -0.000000   -0.607410
 ---------------------------------------------------------------------

 SCF Done:  E(UHF) =  -187.922607156     A.U. after   22 cycles
 E2 =    -0.5602587428D+00 EUMP2 =    -0.18848286589893D+03
 CCSD(T)
 CCSD(T)= -0.18855292161D+03

 The electronic state is 2-SG.
 Alpha  occ. eigenvalues --  -21.07178 -11.74020 -11.58224 -11.57360  -1.91929
 Alpha  occ. eigenvalues --   -1.42261  -1.30571  -1.05145  -1.05145  -0.87635
 Alpha  occ. eigenvalues --   -0.85972  -0.71258  -0.71258
 Alpha virt. eigenvalues --   -0.19528  -0.19528  -0.10363  -0.06623  -0.06623
 Alpha virt. eigenvalues --   -0.05206  -0.02881  -0.02089  -0.02089   0.00801
 Alpha virt. eigenvalues --    0.02308   0.02308   0.05820   0.06217   0.06217

  Beta  occ. eigenvalues --  -21.06320 -11.74474 -11.59368 -11.51888  -1.91264
  Beta  occ. eigenvalues --   -1.44633  -1.22292  -1.04641  -1.04641  -0.87347
  Beta  occ. eigenvalues --   -0.68520  -0.68520
  Beta virt. eigenvalues --   -0.19700  -0.19496  -0.19496  -0.10443  -0.05177
  Beta virt. eigenvalues --   -0.05007  -0.05007  -0.02720  -0.02720  -0.01247
  Beta virt. eigenvalues --    0.00808   0.03372   0.03372   0.05306   0.09216

 Mulliken charges and spin densities:
               1          2
     1  C   -0.106866   2.424496
     2  C    0.785457  -1.394119
     3  C    0.623962  -0.193493
     4  O   -0.302554   0.163116
 Sum of Mulliken charges =   1.00000   1.00000

 Dipole moment (field-independent basis, Debye):
    X=             -0.0000    Y=              0.0000    Z=             -1.2454  Tot=              1.2454
 Quadrupole moment (field-independent basis, Debye-Ang):
   XX=            -18.9993   YY=            -18.9993   ZZ=             -7.5593
   XY=              0.0000   XZ=              0.0000   YZ=             -0.0000

 Normal termination of Gaussian 09 at Wed Mar  6 06:22:27 2019.
