 Gaussian 09, Revision E.01,
 Gaussian 09:  EM64L-G09RevE.01 30-Nov-2015

 --------------------------------------
 #p ccsd(t,maxcyc=200)/6-311++G(3df,2p)
 --------------------------------------

 -------------
 ccsd(t) iener
 -------------
 Symbolic Z-matrix:
 Charge =  1 Multiplicity = 2

                         Standard orientation:
 ---------------------------------------------------------------------
 Center     Atomic      Atomic             Coordinates (Angstroms)
 Number     Number       Type             X           Y           Z
 ---------------------------------------------------------------------
      1          6           0        1.005855    0.686519   -0.041776
      2          6           0       -0.397076    0.050391    0.162906
      3          6           0       -1.703841    0.025863   -0.081655
      4          8           0        0.821296   -0.572080   -0.029606
 ---------------------------------------------------------------------

 SCF Done:  E(UHF) =  -187.880854354     A.U. after   46 cycles
 E2 =    -0.5734893549D+00 EUMP2 =    -0.18845434370857D+03
 CCSD(T)
 CCSD(T)= -0.18852799430D+03

 The electronic state is 2-A.
 Alpha  occ. eigenvalues --  -21.03868 -11.69885 -11.67923 -11.67528  -1.90321
 Alpha  occ. eigenvalues --   -1.40440  -1.19435  -1.11619  -1.02558  -0.87471
 Alpha  occ. eigenvalues --   -0.82911  -0.76148  -0.73006
 Alpha virt. eigenvalues --   -0.26539  -0.21126  -0.15826  -0.08744  -0.06630
 Alpha virt. eigenvalues --   -0.05079  -0.04350  -0.03152  -0.01989  -0.00532
 Alpha virt. eigenvalues --    0.00774   0.02188   0.03465   0.04968   0.06139

  Beta  occ. eigenvalues --  -21.03202 -11.70378 -11.66775 -11.66091  -1.89172
  Beta  occ. eigenvalues --   -1.31762  -1.19690  -1.11020  -0.95697  -0.87376
  Beta  occ. eigenvalues --   -0.79494  -0.73077
  Beta virt. eigenvalues --   -0.29409  -0.24772  -0.18896  -0.10604  -0.06558
  Beta virt. eigenvalues --   -0.06096  -0.04950  -0.04301  -0.02330  -0.01580
  Beta virt. eigenvalues --   -0.00233   0.01295   0.02543   0.03892   0.06248

 Mulliken charges and spin densities:
               1          2
     1  C    0.248331  -0.223321
     2  C    1.031983   0.690558
     3  C   -0.054928   0.424050
     4  O   -0.225386   0.108713
 Sum of Mulliken charges =   1.00000   1.00000

 Dipole moment (field-independent basis, Debye):
    X=             -1.0120    Y=              0.0443    Z=              0.4367  Tot=              1.1031
 Quadrupole moment (field-independent basis, Debye-Ang):
   XX=            -14.6283   YY=            -19.7546   ZZ=            -18.2089
   XY=              0.1249   XZ=             -0.6311   YZ=              0.0264

 Normal termination of Gaussian 09 at Wed Mar  6 07:00:25 2019.
