 Gaussian 09, Revision E.01,
 Gaussian 09:  EM64L-G09RevE.01 30-Nov-2015

 --------------------------------------
 #p ccsd(t,maxcyc=200)/6-311++G(3df,2p)
 --------------------------------------

 -------------
 ccsd(t) iener
 -------------
 Symbolic Z-matrix:
 Charge =  1 Multiplicity = 2

                         Standard orientation:
 ---------------------------------------------------------------------
 Center     Atomic      Atomic             Coordinates (Angstroms)
 Number     Number       Type             X           Y           Z
 ---------------------------------------------------------------------
      1          6           0        0.000000    1.078808    0.368222
      2          6           0       -0.000000   -1.078808    0.368222
      3          8           0        0.000000    0.000000    1.171315
      4          6           0        0.000000   -0.688584   -0.986516
      5          6           0        0.000000    0.688584   -0.986516
      6          1           0        0.000000    2.042961    0.854362
      7          1           0       -0.000000   -2.042961    0.854362
      8          1           0        0.000000   -1.359767   -1.829862
      9          1           0        0.000000    1.359767   -1.829862
 ---------------------------------------------------------------------

 SCF Done:  E(UHF) =  -228.434287003     A.U. after   18 cycles
 E2 =    -0.8055612234D+00 EUMP2 =    -0.22923984822675D+03
 CCSD(T)
 CCSD(T)= -0.22930755513D+03

 The electronic state is 2-A2.
 Alpha  occ. eigenvalues --  -20.87973 -11.58115 -11.58109 -11.49468 -11.49338
 Alpha  occ. eigenvalues --   -1.73206  -1.35226  -1.28055  -1.06346  -1.04860
 Alpha  occ. eigenvalues --   -0.99336  -0.90710  -0.86718  -0.82763  -0.81680
 Alpha  occ. eigenvalues --   -0.79501  -0.64602  -0.61671
 Alpha virt. eigenvalues --   -0.13568  -0.08943  -0.07277  -0.06593  -0.04556
 Alpha virt. eigenvalues --   -0.04110  -0.04035  -0.03952  -0.01974  -0.00211
 Alpha virt. eigenvalues --    0.00955   0.01122   0.02181   0.03998   0.04466

  Beta  occ. eigenvalues --  -20.88444 -11.56789 -11.56789 -11.49538 -11.49397
  Beta  occ. eigenvalues --   -1.72966  -1.34499  -1.23012  -1.05539  -1.02788
  Beta  occ. eigenvalues --   -0.98902  -0.86872  -0.86245  -0.83082  -0.80819
  Beta  occ. eigenvalues --   -0.79332  -0.63516
  Beta virt. eigenvalues --   -0.22201  -0.08856  -0.07197  -0.06610  -0.06554
  Beta virt. eigenvalues --   -0.04509  -0.03681  -0.02420  -0.01754  -0.00645
  Beta virt. eigenvalues --    0.00869   0.01150   0.02205   0.02805   0.04204

 Mulliken charges and spin densities:
               1          2
     1  C    0.228027   0.638933
     2  C    0.228027   0.638933
     3  O   -0.682630  -0.127182
     4  C    0.131812  -0.030077
     5  C    0.131812  -0.030077
     6  H    0.241134  -0.038926
     7  H    0.241134  -0.038926
     8  H    0.240343  -0.006339
     9  H    0.240343  -0.006339
 Sum of Mulliken charges =   1.00000   1.00000

 Dipole moment (field-independent basis, Debye):
    X=             -0.0000    Y=              0.0000    Z=             -1.3521  Tot=              1.3521
 Quadrupole moment (field-independent basis, Debye-Ang):
   XX=            -28.0435   YY=            -13.2623   ZZ=            -20.8549
   XY=              0.0000   XZ=             -0.0000   YZ=             -0.0000

 -229.2676278\CCSD=-229.2669502\CCSD(T)=-229.3075551\S2=0.813411\S2-1=0
 Normal termination of Gaussian 09 at Wed Mar  6 15:18:20 2019.
