 Gaussian 09, Revision E.01,
 Gaussian 09:  EM64L-G09RevE.01 30-Nov-2015

 --------------------------------------
 #p ccsd(t,maxcyc=200)/6-311++G(3df,2p)
 --------------------------------------

 -------------
 ccsd(t) iener
 -------------
 Symbolic Z-matrix:
 Charge =  0 Multiplicity = 1

                         Standard orientation:
 ---------------------------------------------------------------------
 Center     Atomic      Atomic             Coordinates (Angstroms)
 Number     Number       Type             X           Y           Z
 ---------------------------------------------------------------------
      1          6           0        0.447617    1.244792    0.638523
      2          6           0       -0.578441   -1.053203    0.000000
      3          8           0        0.447617   -1.687610    0.000000
      4          6           0       -0.663219    0.433899    0.000000
      5          6           0        0.447617    1.244792   -0.638523
      6          1           0        0.868529    1.514871    1.588267
      7          1           0       -1.679724    0.823278    0.000000
      8          1           0       -1.559713   -1.573822    0.000000
      9          1           0        0.868529    1.514871   -1.588267
 ---------------------------------------------------------------------

 SCF Done:  E(RHF) =  -228.632306886     A.U. after   13 cycles
 E2 =    -0.8590758348D+00 EUMP2 =    -0.22949138272114D+03
 CCSD(T)
 CCSD(T)= -0.22955378425D+03

 The electronic state is 1-A'.
 Alpha  occ. eigenvalues --  -20.54802 -11.32318 -11.26875 -11.26632 -11.26231
 Alpha  occ. eigenvalues --   -1.38707  -1.18661  -0.93058  -0.79065  -0.76668
 Alpha  occ. eigenvalues --   -0.69725  -0.68317  -0.61680  -0.54098  -0.52902
 Alpha  occ. eigenvalues --   -0.43376  -0.42590  -0.38349
 Alpha virt. eigenvalues --    0.03712   0.04842   0.05137   0.06657   0.09809
 Alpha virt. eigenvalues --    0.10153   0.10596   0.12385   0.13103   0.13785
 Alpha virt. eigenvalues --    0.15534   0.15623   0.17080   0.17791   0.18197

 Mulliken charges:
               1
     1  C   -0.013288
     2  C    0.195479
     3  O   -0.809950
     4  C   -0.086602
     5  C   -0.013288
     6  H    0.255922
     7  H    0.117578
     8  H    0.098226
     9  H    0.255922
 Sum of Mulliken charges =  -0.00000

 Dipole moment (field-independent basis, Debye):
    X=             -1.5859    Y=              2.6996    Z=              0.0000  Tot=              3.1310
 Quadrupole moment (field-independent basis, Debye-Ang):
   XX=            -28.4106   YY=            -33.3192   ZZ=            -25.7772
   XY=              4.7092   XZ=              0.0000   YZ=             -0.0000

 Normal termination of Gaussian 09 at Wed Mar  6 08:11:37 2019.
