 Gaussian 09, Revision E.01,
 Gaussian 09:  EM64L-G09RevE.01 30-Nov-2015

 --------------------------------------
 #p ccsd(t,maxcyc=200)/6-311++G(3df,2p)
 --------------------------------------

 -------------
 ccsd(t) iener
 -------------
 Symbolic Z-matrix:
 Charge =  0 Multiplicity = 1

                         Standard orientation:
 ---------------------------------------------------------------------
 Center     Atomic      Atomic             Coordinates (Angstroms)
 Number     Number       Type             X           Y           Z
 ---------------------------------------------------------------------
      1          6           0        0.000000    1.155411    0.000000
      2          6           0       -0.855731   -0.963454    0.000000
      3          8           0       -1.156647    0.317527    0.000000
      4          6           0        0.653415   -1.010016    0.000000
      5          6           0        1.098306    0.423261    0.000000
      6          1           0       -0.203074    2.212020    0.000000
      7          1           0        0.984960   -1.586977    0.870477
      8          1           0        0.984960   -1.586977   -0.870477
      9          1           0        2.110398    0.790506    0.000000
 ---------------------------------------------------------------------

 SCF Done:  E(RHF) =  -228.623530654     A.U. after   15 cycles
 E2 =    -0.8462051853D+00 EUMP2 =    -0.22946973583949D+03
 CCSD(T)
 CCSD(T)= -0.22954166381D+03

 The electronic state is 1-A'.
 Alpha  occ. eigenvalues --  -20.63300 -11.30510 -11.29608 -11.24941 -11.24405
 Alpha  occ. eigenvalues --   -1.46283  -1.09672  -1.00626  -0.83164  -0.76892
 Alpha  occ. eigenvalues --   -0.71778  -0.64700  -0.59610  -0.56620  -0.56277
 Alpha  occ. eigenvalues --   -0.54244  -0.38036  -0.36423
 Alpha virt. eigenvalues --    0.03544   0.04935   0.06058   0.06623   0.10203
 Alpha virt. eigenvalues --    0.10896   0.10919   0.11903   0.13064   0.13411
 Alpha virt. eigenvalues --    0.15385   0.16208   0.17603   0.18104   0.18732

 Mulliken charges:
               1
     1  C    0.053187
     2  C   -0.141375
     3  O   -0.719175
     4  C    0.162802
     5  C    0.058578
     6  H    0.170480
     7  H    0.114004
     8  H    0.114004
     9  H    0.187494
 Sum of Mulliken charges =  -0.00000

 Dipole moment (field-independent basis, Debye):
    X=              3.2744    Y=              1.6045    Z=              0.0000  Tot=              3.6464
 Quadrupole moment (field-independent basis, Debye-Ang):
   XX=            -32.3293   YY=            -28.4910   ZZ=            -29.9000
   XY=             -3.7671   XZ=              0.0000   YZ=             -0.0000

 Q=-229.4892831\MP4SDQ=-229.4998685\CCSD=-229.4985979\CCSD(T)=-229.5416
 Normal termination of Gaussian 09 at Wed Mar  6 08:19:51 2019.
