 Gaussian 09, Revision E.01,
 Gaussian 09:  EM64L-G09RevE.01 30-Nov-2015

 --------------------------------------
 #p ccsd(t,maxcyc=200)/6-311++G(3df,2p)
 --------------------------------------

 -------------
 ccsd(t) iener
 -------------
 Symbolic Z-matrix:
 Charge =  0 Multiplicity = 1

                         Standard orientation:
 ---------------------------------------------------------------------
 Center     Atomic      Atomic             Coordinates (Angstroms)
 Number     Number       Type             X           Y           Z
 ---------------------------------------------------------------------
      1          8           0       -2.333373    0.200881    0.000000
      2          6           0        0.000000    0.598337    0.000000
      3          6           0       -1.210941   -0.243159    0.000000
      4          6           0        1.196339    0.065305    0.000000
      5          6           0        2.363234   -0.498581    0.000000
      6          1           0       -0.144404    1.673070    0.000000
      7          1           0       -1.022451   -1.333478    0.000000
      8          1           0        2.871025   -0.739026    0.926377
      9          1           0        2.871025   -0.739026   -0.926377
 ---------------------------------------------------------------------

 SCF Done:  E(RHF) =  -228.673075187     A.U. after   15 cycles
 E2 =    -0.8488873985D+00 EUMP2 =    -0.22952196258535D+03
 CCSD(T)
 CCSD(T)= -0.22958896540D+03

 The electronic state is 1-A'.
 Alpha  occ. eigenvalues --  -20.55736 -11.33840 -11.29611 -11.26714 -11.25969
 Alpha  occ. eigenvalues --   -1.39548  -1.11817  -1.01288  -0.83774  -0.75268
 Alpha  occ. eigenvalues --   -0.68532  -0.64772  -0.63920  -0.61563  -0.54592
 Alpha  occ. eigenvalues --   -0.44812  -0.40632  -0.39892
 Alpha virt. eigenvalues --    0.03456   0.05354   0.05591   0.06047   0.08629
 Alpha virt. eigenvalues --    0.09812   0.10658   0.11900   0.12155   0.13992
 Alpha virt. eigenvalues --    0.14007   0.15699   0.16090   0.18274   0.18357

 Mulliken charges:
               1
     1  O   -0.768871
     2  C   -0.641884
     3  C    0.421038
     4  C    0.585921
     5  C   -0.199322
     6  H    0.153476
     7  H    0.116187
     8  H    0.166727
     9  H    0.166727
 Sum of Mulliken charges =  -0.00000

 Dipole moment (field-independent basis, Debye):
    X=              4.1114    Y=             -1.0119    Z=              0.0000  Tot=              4.2341
 Quadrupole moment (field-independent basis, Debye-Ang):
   XX=            -34.6578   YY=            -28.2752   ZZ=            -29.2114
   XY=             -0.2779   XZ=              0.0000   YZ=             -0.0000

 MP4DQ=-229.537097\MP4SDQ=-229.5479408\CCSD=-229.5456093\CCSD(T)=-229.5
 Normal termination of Gaussian 09 at Wed Mar  6 09:37:37 2019.
