 Gaussian 09, Revision E.01,
 Gaussian 09:  EM64L-G09RevE.01 30-Nov-2015

 --------------------------------------
 #p ccsd(t,maxcyc=200)/6-311++G(3df,2p)
 --------------------------------------

 -------------
 ccsd(t) iener
 -------------
 Symbolic Z-matrix:
 Charge =  1 Multiplicity = 2

                         Standard orientation:
 ---------------------------------------------------------------------
 Center     Atomic      Atomic             Coordinates (Angstroms)
 Number     Number       Type             X           Y           Z
 ---------------------------------------------------------------------
      1          8           0        2.038556   -0.674672   -0.000028
      2          6           0       -2.419152   -0.158238    0.000291
      3          6           0       -1.019490    0.096180    0.000414
      4          6           0        0.173164    0.383954    0.000175
      5          6           0        1.577820    0.459437   -0.000122
      6          1           0       -2.711858   -0.674711    0.919724
      7          1           0       -2.693338   -0.767301   -0.867211
      8          1           0       -2.972337    0.788159   -0.056395
      9          1           0        2.195040    1.363233   -0.000439
 ---------------------------------------------------------------------

 SCF Done:  E(UHF) =  -228.340423848     A.U. after   35 cycles
 E2 =    -0.7879241646D+00 EUMP2 =    -0.22912834801272D+03
 CCSD(T)
 CCSD(T)= -0.22920975629D+03

 The electronic state is 2-A.
 Alpha  occ. eigenvalues --  -20.97563 -11.64558 -11.51789 -11.46709 -11.43120
 Alpha  occ. eigenvalues --   -1.81042  -1.31167  -1.22901  -1.14395  -1.07987
 Alpha  occ. eigenvalues --   -0.99705  -0.93848  -0.87026  -0.83423  -0.78214
 Alpha  occ. eigenvalues --   -0.77780  -0.62862  -0.61684
 Alpha virt. eigenvalues --   -0.18727  -0.09225  -0.07355  -0.06279  -0.04624
 Alpha virt. eigenvalues --   -0.04019  -0.02859  -0.02794  -0.01638   0.00730
 Alpha virt. eigenvalues --    0.01563   0.01760   0.03125   0.03653   0.04003

  Beta  occ. eigenvalues --  -20.92825 -11.64970 -11.52092 -11.46190 -11.43084
  Beta  occ. eigenvalues --   -1.67966  -1.30391  -1.20576  -1.12627  -0.97453
  Beta  occ. eigenvalues --   -0.95194  -0.86669  -0.84267  -0.78592  -0.78009
  Beta  occ. eigenvalues --   -0.62007  -0.61434
  Beta virt. eigenvalues --   -0.19823  -0.18179  -0.09153  -0.07295  -0.05993
  Beta virt. eigenvalues --   -0.04574  -0.03871  -0.02774  -0.02664  -0.00563
  Beta virt. eigenvalues --    0.00806   0.01726   0.02124   0.03323   0.03466

 Mulliken charges and spin densities:
               1          2
     1  O   -0.215678   1.100636
     2  C   -0.462628   0.004352
     3  C    0.189543  -0.103872
     4  C    0.495618   0.134490
     5  C    0.168281  -0.187253
     6  H    0.182007  -0.009278
     7  H    0.180827  -0.007706
     8  H    0.185518   0.002947
     9  H    0.276512   0.065684
 Sum of Mulliken charges =   1.00000   1.00000

 Dipole moment (field-independent basis, Debye):
    X=              1.2795    Y=              1.6333    Z=              0.0012  Tot=              2.0748
 Quadrupole moment (field-independent basis, Debye-Ang):
   XX=             -1.9615   YY=            -24.4016   ZZ=            -26.5687
   XY=              5.7134   XZ=             -0.0114   YZ=             -0.0029

 1621913\CCSD=-229.1659274\CCSD(T)=-229.2097563\S2=0.823328\S2-1=0.8015
 Normal termination of Gaussian 09 at Wed Mar  6 21:55:14 2019.
