 Gaussian 09, Revision E.01,
 Gaussian 09:  EM64L-G09RevE.01 30-Nov-2015

 --------------------------------------
 #p ccsd(t,maxcyc=200)/6-311++G(3df,2p)
 --------------------------------------

 -------------
 ccsd(t) iener
 -------------
 Symbolic Z-matrix:
 Charge =  1 Multiplicity = 2

                         Standard orientation:
 ---------------------------------------------------------------------
 Center     Atomic      Atomic             Coordinates (Angstroms)
 Number     Number       Type             X           Y           Z
 ---------------------------------------------------------------------
      1          8           0       -2.333071    0.188799    0.000000
      2          6           0       -0.000000    0.605259    0.000000
      3          6           0       -1.196812   -0.228396    0.000000
      4          6           0        1.185177    0.036118    0.000000
      5          6           0        2.367754   -0.487160    0.000000
      6          1           0       -0.157674    1.677642    0.000000
      7          1           0       -1.080442   -1.329146    0.000000
      8          1           0        2.882982   -0.706907    0.931214
      9          1           0        2.882982   -0.706907   -0.931214
 ---------------------------------------------------------------------

 SCF Done:  E(UHF) =  -228.365568575     A.U. after   26 cycles
 E2 =    -0.7748778011D+00 EUMP2 =    -0.22914044637635D+03
 CCSD(T)
 CCSD(T)= -0.22922538009D+03

 The electronic state is 2-A'.
 Alpha  occ. eigenvalues --  -20.96434 -11.61617 -11.50262 -11.48108 -11.46101
 Alpha  occ. eigenvalues --   -1.79987  -1.33220  -1.23342  -1.11566  -1.05928
 Alpha  occ. eigenvalues --   -0.97095  -0.92356  -0.91354  -0.85512  -0.81577
 Alpha  occ. eigenvalues --   -0.79744  -0.62636  -0.61035
 Alpha virt. eigenvalues --   -0.15570  -0.09165  -0.07410  -0.06326  -0.05604
 Alpha virt. eigenvalues --   -0.05185  -0.04079  -0.03139  -0.01319  -0.01278
 Alpha virt. eigenvalues --   -0.00925   0.02226   0.02822   0.02976   0.03689

  Beta  occ. eigenvalues --  -20.92002 -11.62173 -11.50841 -11.47582 -11.45722
  Beta  occ. eigenvalues --   -1.67468  -1.32823  -1.21540  -1.07677  -0.96702
  Beta  occ. eigenvalues --   -0.93905  -0.86955  -0.86651  -0.83071  -0.81797
  Beta  occ. eigenvalues --   -0.61518  -0.61391
  Beta virt. eigenvalues --   -0.19616  -0.15830  -0.08992  -0.07527  -0.06248
  Beta virt. eigenvalues --   -0.05365  -0.05127  -0.04066  -0.02904  -0.01476
  Beta virt. eigenvalues --   -0.01248  -0.00168   0.02244   0.03027   0.03043

 Mulliken charges and spin densities:
               1          2
     1  O   -0.296605   1.062390
     2  C   -0.528026   0.239380
     3  C    0.482579  -0.261072
     4  C    0.547424  -0.307032
     5  C   -0.079343   0.191949
     6  H    0.186038  -0.012770
     7  H    0.254754   0.119818
     8  H    0.216589  -0.016332
     9  H    0.216589  -0.016332
 Sum of Mulliken charges =   1.00000   1.00000

 Dipole moment (field-independent basis, Debye):
    X=              0.6615    Y=             -1.4667    Z=              0.0000  Tot=              1.6090
 Quadrupole moment (field-independent basis, Debye-Ang):
   XX=             -9.1090   YY=            -22.7532   ZZ=            -26.3277
   XY=             -1.5796   XZ=              0.0000   YZ=             -0.0000

 -229.1773533\MP4SDQ=-229.1807493\CCSD=-229.1845633\CCSD(T)=-229.225380
 Normal termination of Gaussian 09 at Wed Mar  6 17:45:30 2019.
