 Gaussian 09, Revision E.01,
 Gaussian 09:  EM64L-G09RevE.01 30-Nov-2015

 --------------------------------------
 #p ccsd(t,maxcyc=200)/6-311++G(3df,2p)
 --------------------------------------

 -------------
 ccsd(t) iener
 -------------
 Symbolic Z-matrix:
 Charge =  1 Multiplicity = 2

                         Standard orientation:
 ---------------------------------------------------------------------
 Center     Atomic      Atomic             Coordinates (Angstroms)
 Number     Number       Type             X           Y           Z
 ---------------------------------------------------------------------
      1          8           0        2.056818   -0.480213   -0.000000
      2          6           0       -1.646127   -0.912234    0.000000
      3          6           0        1.121626    0.149722   -0.000000
      4          6           0       -1.303665    0.423949    0.000000
      5          6           0        0.000000    0.936268   -0.000000
      6          1           0       -2.685783   -1.207937    0.000000
      7          1           0       -0.909161   -1.706439    0.000000
      8          1           0       -2.092169    1.166527    0.000000
      9          1           0        0.201561    2.003321   -0.000000
 ---------------------------------------------------------------------

 SCF Done:  E(UHF) =  -228.428898282     A.U. after   26 cycles
 E2 =    -0.8003642821D+00 EUMP2 =    -0.22922926256374D+03
 CCSD(T)
 CCSD(T)= -0.22929874184D+03

 The electronic state is 2-A".
 Alpha  occ. eigenvalues --  -20.92656 -11.66145 -11.52713 -11.49583 -11.47475
 Alpha  occ. eigenvalues --   -1.77775  -1.37577  -1.25131  -1.07919  -1.01336
 Alpha  occ. eigenvalues --   -0.94257  -0.93248  -0.90400  -0.86480  -0.80185
 Alpha  occ. eigenvalues --   -0.75902  -0.71423  -0.59480
 Alpha virt. eigenvalues --   -0.12267  -0.11876  -0.09318  -0.06998  -0.06587
 Alpha virt. eigenvalues --   -0.04026  -0.03703  -0.03112  -0.01039  -0.00132
 Alpha virt. eigenvalues --    0.00800   0.00918   0.01651   0.01995   0.02402

  Beta  occ. eigenvalues --  -20.91605 -11.66402 -11.51597 -11.50368 -11.45851
  Beta  occ. eigenvalues --   -1.75845  -1.35214  -1.20608  -1.06430  -0.99996
  Beta  occ. eigenvalues --   -0.93461  -0.89530  -0.87258  -0.85390  -0.79373
  Beta  occ. eigenvalues --   -0.75406  -0.64100
  Beta virt. eigenvalues --   -0.21521  -0.11736  -0.09213  -0.07873  -0.06853
  Beta virt. eigenvalues --   -0.06553  -0.03660  -0.03293  -0.03077  -0.00908
  Beta virt. eigenvalues --    0.00022   0.01748   0.02067   0.02555   0.03028

 Mulliken charges and spin densities:
               1          2
     1  O   -0.539423   0.204933
     2  C   -0.341834   0.843279
     3  C    0.884948  -0.176851
     4  C    0.098527  -0.422813
     5  C    0.161460   0.667596
     6  H    0.193847  -0.051006
     7  H    0.154608  -0.044065
     8  H    0.194043   0.019253
     9  H    0.193823  -0.040326
 Sum of Mulliken charges =   1.00000   1.00000

 Dipole moment (field-independent basis, Debye):
    X=             -1.5283    Y=              1.3177    Z=             -0.0000  Tot=              2.0179
 Quadrupole moment (field-independent basis, Debye-Ang):
   XX=            -15.9049   YY=            -19.2278   ZZ=            -28.3008
   XY=              2.5791   XZ=              0.0000   YZ=             -0.0000

 =-229.2582664\CCSD(T)=-229.2987418\S2=0.885945\S2-1=0.839021\S2A=0.755
 Normal termination of Gaussian 09 at Wed Mar  6 19:51:20 2019.
