 Gaussian 09, Revision E.01,
 Gaussian 09:  EM64L-G09RevE.01 30-Nov-2015

 --------------------------------------
 #p ccsd(t,maxcyc=200)/6-311++G(3df,2p)
 --------------------------------------

 -------------
 ccsd(t) iener
 -------------
 Symbolic Z-matrix:
 Charge =  0 Multiplicity = 1

                         Standard orientation:
 ---------------------------------------------------------------------
 Center     Atomic      Atomic             Coordinates (Angstroms)
 Number     Number       Type             X           Y           Z
 ---------------------------------------------------------------------
      1          8           0        1.306817    0.850113    0.000000
      2          6           0        0.000000    0.444959    0.000000
      3          6           0       -1.052467    1.268830    0.000000
      4          6           0       -0.126306   -0.976182    0.000000
      5          6           0       -0.234732   -2.171143    0.000000
      6          1           0       -0.929212    2.343753    0.000000
      7          1           0       -2.054355    0.872565    0.000000
      8          1           0        1.340789    1.812605    0.000000
      9          1           0       -0.330725   -3.228607    0.000000
 ---------------------------------------------------------------------

 SCF Done:  E(RHF) =  -228.648044838     A.U. after   16 cycles
 E2 =    -0.8587167205D+00 EUMP2 =    -0.22950676155824D+03
 CCSD(T)
 CCSD(T)= -0.22956876418D+03

 The electronic state is 1-A'.
 Alpha  occ. eigenvalues --  -20.59978 -11.33083 -11.24521 -11.24027 -11.23196
 Alpha  occ. eigenvalues --   -1.41595  -1.08322  -1.01116  -0.87290  -0.74170
 Alpha  occ. eigenvalues --   -0.70062  -0.68834  -0.59881  -0.58570  -0.55766
 Alpha  occ. eigenvalues --   -0.44110  -0.41152  -0.34043
 Alpha virt. eigenvalues --    0.03697   0.04406   0.06182   0.07311   0.08427
 Alpha virt. eigenvalues --    0.11103   0.12100   0.13089   0.14240   0.14438
 Alpha virt. eigenvalues --    0.15312   0.16711   0.17021   0.17517   0.18725

 Mulliken charges:
               1
     1  O   -0.766604
     2  C    0.334743
     3  C   -0.482898
     4  C   -0.563471
     5  C    0.638108
     6  H    0.120929
     7  H    0.148692
     8  H    0.248448
     9  H    0.322053
 Sum of Mulliken charges =  -0.00000

 Dipole moment (field-independent basis, Debye):
    X=             -0.7462    Y=              1.0609    Z=              0.0000  Tot=              1.2970
 Quadrupole moment (field-independent basis, Debye-Ang):
   XX=            -30.9031   YY=            -18.3566   ZZ=            -32.7688
   XY=              2.1553   XZ=              0.0000   YZ=              0.0000

 4SDQ=-229.5270541\CCSD=-229.5254366\CCSD(T)=-229.5687642\RMSD=4.468e-0
 Normal termination of Gaussian 09 at Wed Mar  6 09:30:44 2019.
