 Gaussian 09, Revision E.01,
 Gaussian 09:  EM64L-G09RevE.01 30-Nov-2015

 --------------------------------------
 #p ccsd(t,maxcyc=200)/6-311++G(3df,2p)
 --------------------------------------

 -------------
 ccsd(t) iener
 -------------
 Symbolic Z-matrix:
 Charge =  0 Multiplicity = 1

                         Standard orientation:
 ---------------------------------------------------------------------
 Center     Atomic      Atomic             Coordinates (Angstroms)
 Number     Number       Type             X           Y           Z
 ---------------------------------------------------------------------
      1          6           0        0.000000    1.092662    0.345788
      2          6           0       -0.000000   -1.092662    0.345788
      3          8           0        0.000000    0.000000    1.156019
      4          6           0        0.000000   -0.715900   -0.955183
      5          6           0        0.000000    0.715900   -0.955183
      6          1           0        0.000000    2.045865    0.842054
      7          1           0       -0.000000   -2.045865    0.842054
      8          1           0        0.000000   -1.369869   -1.809752
      9          1           0        0.000000    1.369869   -1.809752
 ---------------------------------------------------------------------

 SCF Done:  E(RHF) =  -228.704372047     A.U. after   13 cycles
 E2 =    -0.8677902370D+00 EUMP2 =    -0.22957216228433D+03
 CCSD(T)
 CCSD(T)= -0.22963129298D+03

 The electronic state is 1-A1.
 Alpha  occ. eigenvalues --  -20.62326 -11.28670 -11.28666 -11.22988 -11.22889
 Alpha  occ. eigenvalues --   -1.45981  -1.08607  -1.00666  -0.80856  -0.78247
 Alpha  occ. eigenvalues --   -0.74141  -0.63498  -0.61112  -0.57862  -0.56602
 Alpha  occ. eigenvalues --   -0.54160  -0.39928  -0.32173
 Alpha virt. eigenvalues --    0.04217   0.04836   0.05435   0.06695   0.10390
 Alpha virt. eigenvalues --    0.11210   0.12907   0.14581   0.14689   0.15002
 Alpha virt. eigenvalues --    0.15571   0.15967   0.17704   0.18672   0.19173

 Mulliken charges:
               1
     1  C    0.107401
     2  C    0.107401
     3  O   -0.767613
     4  C   -0.073645
     5  C   -0.073645
     6  H    0.175218
     7  H    0.175218
     8  H    0.174832
     9  H    0.174832
 Sum of Mulliken charges =  -0.00000

 Dipole moment (field-independent basis, Debye):
    X=             -0.0000    Y=              0.0000    Z=             -0.7958  Tot=              0.7958
 Quadrupole moment (field-independent basis, Debye-Ang):
   XX=            -32.7203   YY=            -24.1555   ZZ=            -28.1966
   XY=              0.0000   XZ=             -0.0000   YZ=              0.0000

 Q=-229.5885166\CCSD=-229.5868113\CCSD(T)=-229.631293\RMSD=5.098e-09\PG
 Normal termination of Gaussian 09 at Wed Mar  6 09:13:06 2019.
