 Gaussian 09, Revision E.01,
 Gaussian 09:  EM64L-G09RevE.01 30-Nov-2015

 --------------------------------------
 #p ccsd(t,maxcyc=200)/6-311++G(3df,2p)
 --------------------------------------

 -------------
 ccsd(t) iener
 -------------
 Symbolic Z-matrix:
 Charge =  0 Multiplicity = 1

                         Standard orientation:
 ---------------------------------------------------------------------
 Center     Atomic      Atomic             Coordinates (Angstroms)
 Number     Number       Type             X           Y           Z
 ---------------------------------------------------------------------
      1          6           0       -1.269067    0.373046   -0.000233
      2          6           0        1.136308    0.245610    0.000455
      3          8           0       -1.473418   -0.955556    0.000048
      4          6           0        2.138532   -0.423249   -0.000452
      5          6           0       -0.071895    0.981091    0.000131
      6          1           0       -2.197261    0.926348   -0.000793
      7          1           0       -0.618919   -1.410908    0.000788
      8          1           0        3.035531   -0.991122    0.000098
      9          1           0       -0.035275    2.061150    0.000118
 ---------------------------------------------------------------------

 SCF Done:  E(RHF) =  -228.657094183     A.U. after   14 cycles
 E2 =    -0.8582582574D+00 EUMP2 =    -0.22951535244082D+03
 CCSD(T)
 CCSD(T)= -0.22957684118D+03

 The electronic state is 1-A.
 Alpha  occ. eigenvalues --  -20.60577 -11.32141 -11.24706 -11.24450 -11.23390
 Alpha  occ. eigenvalues --   -1.42494  -1.08941  -1.00703  -0.86828  -0.75193
 Alpha  occ. eigenvalues --   -0.70666  -0.69457  -0.59787  -0.59551  -0.56537
 Alpha  occ. eigenvalues --   -0.45828  -0.40619  -0.32968
 Alpha virt. eigenvalues --    0.03858   0.04654   0.06448   0.07007   0.09523
 Alpha virt. eigenvalues --    0.11395   0.12539   0.13221   0.13354   0.14116
 Alpha virt. eigenvalues --    0.15498   0.17059   0.17285   0.18622   0.19195

 Mulliken charges:
               1
     1  C    0.149194
     2  C   -0.286312
     3  O   -0.748403
     4  C   -0.063903
     5  C    0.073740
     6  H    0.176588
     7  H    0.279719
     8  H    0.289724
     9  H    0.129653
 Sum of Mulliken charges =  -0.00000

 Dipole moment (field-independent basis, Debye):
    X=              0.2703    Y=              0.1814    Z=              0.0011  Tot=              0.3256
 Quadrupole moment (field-independent basis, Debye-Ang):
   XX=            -27.1268   YY=            -26.6591   ZZ=            -32.8402
   XY=             -5.5368   XZ=              0.0025   YZ=             -0.0028

 5347931\CCSD=-229.5333255\CCSD(T)=-229.5768412\RMSD=5.272e-09\PG=C01 [
 Normal termination of Gaussian 09 at Wed Mar  6 08:40:05 2019.
