 Gaussian 09, Revision E.01,
 Gaussian 09:  EM64L-G09RevE.01 30-Nov-2015

 --------------------------------------
 #p ccsd(t,maxcyc=200)/6-311++G(3df,2p)
 --------------------------------------

 -------------
 ccsd(t) iener
 -------------
 Symbolic Z-matrix:
 Charge =  0 Multiplicity = 1

                         Standard orientation:
 ---------------------------------------------------------------------
 Center     Atomic      Atomic             Coordinates (Angstroms)
 Number     Number       Type             X           Y           Z
 ---------------------------------------------------------------------
      1          6           0        1.280709   -1.057526   -0.000023
      2          6           0        0.451818    0.202642   -0.000000
      3          8           0        0.930779    1.313695   -0.000008
      4          6           0       -0.991705    0.009236    0.000026
      5          6           0       -2.179273   -0.167860    0.000027
      6          1           0        2.336952   -0.801436   -0.000530
      7          1           0        1.039877   -1.661536   -0.876964
      8          1           0        1.040861   -1.661026    0.877542
      9          1           0       -3.233219   -0.304515   -0.000160
 ---------------------------------------------------------------------

 SCF Done:  E(RHF) =  -228.669158382     A.U. after   17 cycles
 E2 =    -0.8556462454D+00 EUMP2 =    -0.22952480462702D+03
 CCSD(T)
 CCSD(T)= -0.22958710881D+03

 The electronic state is 1-A.
 Alpha  occ. eigenvalues --  -20.56655 -11.36437 -11.26402 -11.25490 -11.24587
 Alpha  occ. eigenvalues --   -1.40809  -1.07598  -1.01893  -0.86624  -0.73768
 Alpha  occ. eigenvalues --   -0.69080  -0.64313  -0.61811  -0.57505  -0.52443
 Alpha  occ. eigenvalues --   -0.45124  -0.42502  -0.42192
 Alpha virt. eigenvalues --    0.03376   0.04545   0.06340   0.07364   0.08030
 Alpha virt. eigenvalues --    0.09653   0.10703   0.12345   0.13427   0.14108
 Alpha virt. eigenvalues --    0.15079   0.15154   0.16120   0.16963   0.18116

 Mulliken charges:
               1
     1  C   -0.421859
     2  C    0.096851
     3  O   -0.825231
     4  C   -0.384463
     5  C    0.751256
     6  H    0.151175
     7  H    0.153118
     8  H    0.153113
     9  H    0.326040
 Sum of Mulliken charges =  -0.00000

 Dipole moment (field-independent basis, Debye):
    X=             -1.3346    Y=             -3.1524    Z=             -0.0001  Tot=              3.4232
 Quadrupole moment (field-independent basis, Debye-Ang):
   XX=            -22.8636   YY=            -33.3862   ZZ=            -29.6300
   XY=             -2.6313   XZ=              0.0011   YZ=             -0.0001

 CCSD=-229.5439662\CCSD(T)=-229.5871088\RMSD=1.739e-09\PG=C01 [X(C4H4O1
 Normal termination of Gaussian 09 at Wed Mar  6 10:00:37 2019.
