 Gaussian 09, Revision E.01,
 Gaussian 09:  EM64L-G09RevE.01 30-Nov-2015

 --------------------------------------
 #p ccsd(t,maxcyc=200)/6-311++G(3df,2p)
 --------------------------------------

 -------------
 ccsd(t) iener
 -------------
 Symbolic Z-matrix:
 Charge =  0 Multiplicity = 1

                         Standard orientation:
 ---------------------------------------------------------------------
 Center     Atomic      Atomic             Coordinates (Angstroms)
 Number     Number       Type             X           Y           Z
 ---------------------------------------------------------------------
      1          6           0        2.363171   -0.498593    0.000000
      2          6           0       -1.210914   -0.243106    0.000000
      3          8           0       -2.333336    0.200802    0.000000
      4          6           0        0.000000    0.598354    0.000000
      5          6           0        1.196327    0.065353    0.000000
      6          1           0        2.871008   -0.739055    0.926307
      7          1           0       -1.022354   -1.333402    0.000000
      8          1           0       -0.144477    1.673047    0.000000
      9          1           0        2.871008   -0.739055   -0.926307
 ---------------------------------------------------------------------

 SCF Done:  E(RHF) =  -228.673081768     A.U. after   15 cycles
 E2 =    -0.8488784349D+00 EUMP2 =    -0.22952196020275D+03
 CCSD(T)
 CCSD(T)= -0.22958896222D+03

 The electronic state is 1-A'.
 Alpha  occ. eigenvalues --  -20.55735 -11.33838 -11.29610 -11.26713 -11.25968
 Alpha  occ. eigenvalues --   -1.39552  -1.11818  -1.01289  -0.83774  -0.75270
 Alpha  occ. eigenvalues --   -0.68535  -0.64774  -0.63920  -0.61564  -0.54594
 Alpha  occ. eigenvalues --   -0.44811  -0.40632  -0.39893
 Alpha virt. eigenvalues --    0.03456   0.05354   0.05591   0.06047   0.08629
 Alpha virt. eigenvalues --    0.09812   0.10658   0.11900   0.12155   0.13992
 Alpha virt. eigenvalues --    0.14007   0.15700   0.16090   0.18275   0.18357

 Mulliken charges:
               1
     1  C   -0.199384
     2  C    0.421076
     3  O   -0.768904
     4  C   -0.641811
     5  C    0.585929
     6  H    0.166729
     7  H    0.116154
     8  H    0.153481
     9  H    0.166729
 Sum of Mulliken charges =  -0.00000

 Dipole moment (field-independent basis, Debye):
    X=              4.1113    Y=             -1.0116    Z=              0.0000  Tot=              4.2339
 Quadrupole moment (field-independent basis, Debye-Ang):
   XX=            -34.6566   YY=            -28.2754   ZZ=            -29.2112
   XY=             -0.2789   XZ=              0.0000   YZ=             -0.0000

 MP4DQ=-229.5370968\MP4SDQ=-229.5479394\CCSD=-229.5456083\CCSD(T)=-229.
 Normal termination of Gaussian 09 at Wed Mar  6 08:16:56 2019.
