 Gaussian 09, Revision E.01,
 Gaussian 09:  EM64L-G09RevE.01 30-Nov-2015

 --------------------------------------
 #p ccsd(t,maxcyc=200)/6-311++G(3df,2p)
 --------------------------------------

 -------------
 ccsd(t) iener
 -------------
 Symbolic Z-matrix:
 Charge =  1 Multiplicity = 2

                         Standard orientation:
 ---------------------------------------------------------------------
 Center     Atomic      Atomic             Coordinates (Angstroms)
 Number     Number       Type             X           Y           Z
 ---------------------------------------------------------------------
      1          8           0       -1.145669    1.050616    0.000000
      2          6           0        0.000000    0.422912    0.000000
      3          6           0        1.242543    1.087101    0.000000
      4          6           0       -0.052979   -0.972700    0.000000
      5          6           0       -0.050218   -2.180052    0.000000
      6          1           0        1.300646    2.168970    0.000000
      7          1           0        2.157398    0.512757    0.000000
      8          1           0       -1.068174    2.019025    0.000000
      9          1           0       -0.060590   -3.249245    0.000000
 ---------------------------------------------------------------------

 SCF Done:  E(UHF) =  -228.369261340     A.U. after   31 cycles
 E2 =    -0.7970406086D+00 EUMP2 =    -0.22916630194906D+03
 CCSD(T)
 CCSD(T)= -0.22924021846D+03

 The electronic state is 2-A".
 Alpha  occ. eigenvalues --  -20.85655 -11.62292 -11.51649 -11.49324 -11.45686
 Alpha  occ. eigenvalues --   -1.68877  -1.33633  -1.26177  -1.13703  -0.99722
 Alpha  occ. eigenvalues --   -0.94916  -0.92457  -0.85917  -0.83197  -0.80081
 Alpha  occ. eigenvalues --   -0.68093  -0.63823  -0.62497
 Alpha virt. eigenvalues --   -0.14913  -0.09798  -0.07259  -0.06417  -0.05094
 Alpha virt. eigenvalues --   -0.03393  -0.03285  -0.02124  -0.00832  -0.00717
 Alpha virt. eigenvalues --    0.00737   0.01481   0.01557   0.04127   0.04209

  Beta  occ. eigenvalues --  -20.85369 -11.62270 -11.49970 -11.47934 -11.46651
  Beta  occ. eigenvalues --   -1.68261  -1.31899  -1.21396  -1.11490  -0.99596
  Beta  occ. eigenvalues --   -0.93657  -0.91582  -0.82990  -0.82646  -0.79419
  Beta  occ. eigenvalues --   -0.63230  -0.62879
  Beta virt. eigenvalues --   -0.22618  -0.09665  -0.08548  -0.07185  -0.06133
  Beta virt. eigenvalues --   -0.05209  -0.03450  -0.01882  -0.00889  -0.00570
  Beta virt. eigenvalues --   -0.00268   0.01072   0.01920   0.02474   0.04453

 Mulliken charges and spin densities:
               1          2
     1  O   -0.646432   0.061068
     2  C    0.437698   0.050633
     3  C   -0.358865   0.851208
     4  C   -0.228849  -0.360657
     5  C    0.721347   0.549268
     6  H    0.192348  -0.055319
     7  H    0.208384  -0.051316
     8  H    0.298683  -0.005894
     9  H    0.375685  -0.038992
 Sum of Mulliken charges =   1.00000   1.00000

 Dipole moment (field-independent basis, Debye):
    X=              2.1650    Y=              1.1827    Z=              0.0000  Tot=              2.4669
 Quadrupole moment (field-independent basis, Debye-Ang):
   XX=            -23.2246   YY=             -2.1100   ZZ=            -28.2044
   XY=              1.0035   XZ=              0.0000   YZ=              0.0000

 Q=-229.1974444\CCSD=-229.199804\CCSD(T)=-229.2402185\S2=0.893541\S2-1=
 Normal termination of Gaussian 09 at Wed Mar  6 20:12:39 2019.
