 Gaussian 09, Revision E.01,
 Gaussian 09:  EM64L-G09RevE.01 30-Nov-2015

 --------------------------------------
 #p ccsd(t,maxcyc=200)/6-311++G(3df,2p)
 --------------------------------------

 -------------
 ccsd(t) iener
 -------------
 Symbolic Z-matrix:
 Charge =  1 Multiplicity = 2

                         Standard orientation:
 ---------------------------------------------------------------------
 Center     Atomic      Atomic             Coordinates (Angstroms)
 Number     Number       Type             X           Y           Z
 ---------------------------------------------------------------------
      1          6           0       -1.284124    0.383728    0.000000
      2          6           0        1.142572    0.201843   -0.000000
      3          8           0       -1.538672   -0.874906   -0.000000
      4          6           0        2.158435   -0.471217   -0.000000
      5          6           0       -0.000000    0.959543    0.000000
      6          1           0       -2.173106    1.004998    0.000000
      7          1           0       -0.746781   -1.445625   -0.000000
      8          1           0        3.060775   -1.045112   -0.000000
      9          1           0        0.067194    2.041600    0.000000
 ---------------------------------------------------------------------

 SCF Done:  E(UHF) =  -228.384008528     A.U. after   27 cycles
 E2 =    -0.7940699944D+00 EUMP2 =    -0.22917807852282D+03
 CCSD(T)
 CCSD(T)= -0.22925540766D+03

 The electronic state is 2-A".
 Alpha  occ. eigenvalues --  -20.87755 -11.60968 -11.51826 -11.48507 -11.46017
 Alpha  occ. eigenvalues --   -1.71076  -1.34220  -1.25710  -1.13628  -1.00695
 Alpha  occ. eigenvalues --   -0.95737  -0.92642  -0.87501  -0.84996  -0.80373
 Alpha  occ. eigenvalues --   -0.71271  -0.63437  -0.60133
 Alpha virt. eigenvalues --   -0.13318  -0.09458  -0.08036  -0.06133  -0.04834
 Alpha virt. eigenvalues --   -0.04097  -0.03761  -0.02046  -0.01019  -0.00542
 Alpha virt. eigenvalues --    0.00720   0.01368   0.02578   0.03893   0.04093

  Beta  occ. eigenvalues --  -20.87056 -11.60842 -11.50592 -11.47492 -11.46426
  Beta  occ. eigenvalues --   -1.69495  -1.32026  -1.21476  -1.11818  -0.99930
  Beta  occ. eigenvalues --   -0.95287  -0.91300  -0.84999  -0.81345  -0.79717
  Beta  occ. eigenvalues --   -0.64429  -0.62476
  Beta virt. eigenvalues --   -0.22310  -0.09264  -0.08124  -0.06936  -0.06101
  Beta virt. eigenvalues --   -0.04755  -0.04020  -0.02816  -0.01722  -0.00777
  Beta virt. eigenvalues --   -0.00234   0.00948   0.02589   0.03028   0.04014

 Mulliken charges and spin densities:
               1          2
     1  C    0.360596   0.081957
     2  C   -0.315469  -0.633055
     3  O   -0.609990   0.122414
     4  C    0.525166   0.870523
     5  C   -0.092398   0.689083
     6  H    0.253019  -0.012311
     7  H    0.318187  -0.010761
     8  H    0.371492  -0.058382
     9  H    0.189397  -0.049470
 Sum of Mulliken charges =   1.00000   1.00000

 Dipole moment (field-independent basis, Debye):
    X=              0.3302    Y=              0.5021    Z=              0.0000  Tot=              0.6010
 Quadrupole moment (field-independent basis, Debye-Ang):
   XX=            -11.3825   YY=            -18.6408   ZZ=            -28.2938
   XY=             -6.8860   XZ=             -0.0000   YZ=             -0.0000

 7\CCSD=-229.2149434\CCSD(T)=-229.2554077\S2=0.927005\S2-1=0.868935\S2A
 Normal termination of Gaussian 09 at Wed Mar  6 16:31:54 2019.
