 Gaussian 09, Revision E.01,
 Gaussian 09:  EM64L-G09RevE.01 30-Nov-2015

 --------------------------------------
 #p ccsd(t,maxcyc=200)/6-311++G(3df,2p)
 --------------------------------------

 -------------
 ccsd(t) iener
 -------------
 Symbolic Z-matrix:
 Charge =  0 Multiplicity = 1

                         Standard orientation:
 ---------------------------------------------------------------------
 Center     Atomic      Atomic             Coordinates (Angstroms)
 Number     Number       Type             X           Y           Z
 ---------------------------------------------------------------------
      1          8           0       -1.809582   -0.034091   -0.000063
      2          6           0        0.479462    1.081400    0.000081
      3          6           0       -0.613589   -0.038160   -0.000006
      4          6           0        1.419214   -0.117062   -0.000138
      5          6           0        0.466917   -1.064916    0.000108
      6          1           0        0.494055    1.710938    0.891164
      7          1           0        0.493959    1.711176   -0.890838
      8          1           0        2.498210   -0.171727   -0.000249
      9          1           0        0.478410   -2.145237    0.000159
 ---------------------------------------------------------------------

 SCF Done:  E(RHF) =  -228.682149020     A.U. after   15 cycles
 E2 =    -0.8559720946D+00 EUMP2 =    -0.22953812111443D+03
 CCSD(T)
 CCSD(T)= -0.22960210911D+03

 The electronic state is 1-A.
 Alpha  occ. eigenvalues --  -20.55124 -11.33934 -11.28046 -11.25433 -11.25302
 Alpha  occ. eigenvalues --   -1.39499  -1.17535  -0.93316  -0.84529  -0.72639
 Alpha  occ. eigenvalues --   -0.68598  -0.63139  -0.62861  -0.56691  -0.52657
 Alpha  occ. eigenvalues --   -0.52031  -0.40837  -0.39437
 Alpha virt. eigenvalues --    0.03430   0.05016   0.05644   0.06142   0.08240
 Alpha virt. eigenvalues --    0.10540   0.12571   0.12973   0.12990   0.15643
 Alpha virt. eigenvalues --    0.15656   0.16016   0.16704   0.17200   0.17741

 Mulliken charges:
               1
     1  O   -0.847320
     2  C   -0.336070
     3  C    0.592254
     4  C   -0.184053
     5  C    0.131340
     6  H    0.106374
     7  H    0.106316
     8  H    0.194835
     9  H    0.236325
 Sum of Mulliken charges =  -0.00000

 Dipole moment (field-independent basis, Debye):
    X=              4.0662    Y=              0.1125    Z=              0.0002  Tot=              4.0677
 Quadrupole moment (field-independent basis, Debye-Ang):
   XX=            -33.7431   YY=            -26.3422   ZZ=            -29.5554
   XY=              0.1229   XZ=             -0.0007   YZ=             -0.0000

 .5614115\CCSD=-229.5587365\CCSD(T)=-229.6021091\RMSD=4.137e-09\PG=C01
 Normal termination of Gaussian 09 at Wed Mar  6 07:10:33 2019.
