 Gaussian 09, Revision E.01,
 Gaussian 09:  EM64L-G09RevE.01 30-Nov-2015

 --------------------------------------
 #p ccsd(t,maxcyc=200)/6-311++G(3df,2p)
 --------------------------------------

 -------------
 ccsd(t) iener
 -------------
 Symbolic Z-matrix:
 Charge =  1 Multiplicity = 2

                         Standard orientation:
 ---------------------------------------------------------------------
 Center     Atomic      Atomic             Coordinates (Angstroms)
 Number     Number       Type             X           Y           Z
 ---------------------------------------------------------------------
      1          8           0        0.023963   -0.451834    0.000000
      2          6           0       -1.004885    0.443522    0.000000
      3          6           0       -2.252214   -0.065852   -0.000000
      4          6           0        1.247752   -0.108544    0.000000
      5          6           0        2.437826    0.117908   -0.000001
      6          1           0       -0.723915    1.487988    0.000000
      7          1           0       -3.099518    0.604905   -0.000000
      8          1           0       -2.423543   -1.134055   -0.000001
      9          1           0        3.484394    0.333634    0.000001
 ---------------------------------------------------------------------

 SCF Done:  E(UHF) =  -228.316286897     A.U. after   30 cycles
 E2 =    -0.7956929464D+00 EUMP2 =    -0.22911197984353D+03
 CCSD(T)
 CCSD(T)= -0.22919420908D+03

 The electronic state is 2-A.
 Alpha  occ. eigenvalues --  -20.96700 -11.55174 -11.53691 -11.51147 -11.46959
 Alpha  occ. eigenvalues --   -1.78603  -1.32875  -1.27945  -1.12791  -1.03189
 Alpha  occ. eigenvalues --   -0.97281  -0.95017  -0.91286  -0.82838  -0.78105
 Alpha  occ. eigenvalues --   -0.68409  -0.65627  -0.61825
 Alpha virt. eigenvalues --   -0.08861  -0.07534  -0.06567  -0.06132  -0.04623
 Alpha virt. eigenvalues --   -0.03832  -0.03696  -0.02465  -0.02303  -0.00748
 Alpha virt. eigenvalues --    0.00363   0.01287   0.02335   0.03842   0.04650

  Beta  occ. eigenvalues --  -20.94422 -11.56410 -11.54666 -11.49200 -11.45688
  Beta  occ. eigenvalues --   -1.73998  -1.31918  -1.22924  -1.09831  -1.02701
  Beta  occ. eigenvalues --   -0.93455  -0.90566  -0.84795  -0.82175  -0.77568
  Beta  occ. eigenvalues --   -0.64220  -0.58126
  Beta virt. eigenvalues --   -0.24969  -0.08780  -0.06444  -0.06179  -0.05810
  Beta virt. eigenvalues --   -0.04618  -0.04242  -0.03160  -0.02217  -0.01119
  Beta virt. eigenvalues --   -0.00431   0.00479   0.02868   0.04085   0.04407

 Mulliken charges and spin densities:
               1          2
     1  O   -0.577100   0.441790
     2  C    0.280872  -0.416664
     3  C   -0.158749   0.679411
     4  C   -0.072333  -0.570799
     5  C    0.532627   0.976170
     6  H    0.204385   0.021278
     7  H    0.194491  -0.040395
     8  H    0.199754  -0.035201
     9  H    0.396052  -0.055590
 Sum of Mulliken charges =   1.00000   1.00000

 Dipole moment (field-independent basis, Debye):
    X=              0.7009    Y=              1.1832    Z=              0.0000  Tot=              1.3752
 Quadrupole moment (field-independent basis, Debye-Ang):
   XX=              1.5269   YY=            -24.7934   ZZ=            -28.2200
   XY=              1.0880   XZ=              0.0000   YZ=              0.0000

 \CCSD=-229.1524361\CCSD(T)=-229.1942091\S2=1.0036\S2-1=0.928037\S2A=0.
 Normal termination of Gaussian 09 at Wed Mar  6 20:55:14 2019.
