 Gaussian 09, Revision E.01,
 Gaussian 09:  EM64L-G09RevE.01 30-Nov-2015

 --------------------------------------
 #p ccsd(t,maxcyc=200)/6-311++G(3df,2p)
 --------------------------------------

 -------------
 ccsd(t) iener
 -------------
 Symbolic Z-matrix:
 Charge =  0 Multiplicity = 1

                         Standard orientation:
 ---------------------------------------------------------------------
 Center     Atomic      Atomic             Coordinates (Angstroms)
 Number     Number       Type             X           Y           Z
 ---------------------------------------------------------------------
      1          6           0       -2.114925   -0.625554   -0.000000
      2          6           0        1.354311    0.274043    0.000000
      3          8           0        1.536974   -0.908759   -0.000000
      4          6           0       -0.000000    0.968644    0.000000
      5          6           0       -1.159329    0.096295   -0.000000
      6          1           0       -2.958145   -1.270737   -0.000000
      7          1           0        2.205057    0.986746    0.000000
      8          1           0       -0.011523    1.636750    0.869737
      9          1           0       -0.011523    1.636750   -0.869737
 ---------------------------------------------------------------------

 SCF Done:  E(RHF) =  -228.662942012     A.U. after   16 cycles
 E2 =    -0.8530553462D+00 EUMP2 =    -0.22951599735780D+03
 CCSD(T)
 CCSD(T)= -0.22957871456D+03

 The electronic state is 1-A'.
 Alpha  occ. eigenvalues --  -20.57072 -11.34730 -11.28056 -11.24232 -11.23102
 Alpha  occ. eigenvalues --   -1.41212  -1.09150  -0.99875  -0.83102  -0.72689
 Alpha  occ. eigenvalues --   -0.69319  -0.65845  -0.63790  -0.61516  -0.52503
 Alpha  occ. eigenvalues --   -0.44522  -0.39798  -0.39604
 Alpha virt. eigenvalues --    0.03443   0.04514   0.06044   0.06203   0.09812
 Alpha virt. eigenvalues --    0.10800   0.11758   0.12185   0.13484   0.13916
 Alpha virt. eigenvalues --    0.14205   0.15216   0.16990   0.17545   0.17613

 Mulliken charges:
               1
     1  C    0.485519
     2  C    0.260831
     3  O   -0.740755
     4  C   -0.271401
     5  C   -0.488003
     6  H    0.318495
     7  H    0.122929
     8  H    0.156192
     9  H    0.156192
 Sum of Mulliken charges =  -0.00000

 Dipole moment (field-independent basis, Debye):
    X=             -0.4566    Y=              3.0645    Z=             -0.0000  Tot=              3.0983
 Quadrupole moment (field-independent basis, Debye-Ang):
   XX=            -28.0132   YY=            -28.7114   ZZ=            -29.6215
   XY=              7.3280   XZ=              0.0000   YZ=             -0.0000

 283858\MP4SDQ=-229.5390428\CCSD=-229.5365455\CCSD(T)=-229.5787146\RMSD
 Normal termination of Gaussian 09 at Wed Mar  6 08:15:34 2019.
