 Gaussian 09, Revision E.01,
 Gaussian 09:  EM64L-G09RevE.01 30-Nov-2015

 --------------------------------------
 #p ccsd(t,maxcyc=200)/6-311++G(3df,2p)
 --------------------------------------

 -------------
 ccsd(t) iener
 -------------
 Symbolic Z-matrix:
 Charge =  0 Multiplicity = 1

                         Standard orientation:
 ---------------------------------------------------------------------
 Center     Atomic      Atomic             Coordinates (Angstroms)
 Number     Number       Type             X           Y           Z
 ---------------------------------------------------------------------
      1          6           0       -0.611775    0.783699    0.000097
      2          6           0       -1.793754   -0.000008   -0.000105
      3          6           0        0.624053    0.000014   -0.000078
      4          6           0       -0.611769   -0.783695    0.000097
      5          8           0        1.794934   -0.000007   -0.000009
 ---------------------------------------------------------------------

 SCF Done:  E(RHF) =  -226.157806154     A.U. after   14 cycles
 E2 =    -0.8164554311D+00 EUMP2 =    -0.22697426158514D+03
 CCSD(T)
 CCSD(T)= -0.22701673236D+03

 The electronic state is 1-A.
 Alpha  occ. eigenvalues --  -20.64420 -11.45505 -11.36980 -11.36911 -11.34233
 Alpha  occ. eigenvalues --   -1.49734  -1.32993  -0.97791  -0.81561  -0.75430
 Alpha  occ. eigenvalues --   -0.67363  -0.66426  -0.52164  -0.50676  -0.49781
 Alpha  occ. eigenvalues --   -0.42701
 Alpha virt. eigenvalues --    0.02198   0.03159   0.05719   0.07011   0.09394
 Alpha virt. eigenvalues --    0.09631   0.11732   0.11760   0.12865   0.12993
 Alpha virt. eigenvalues --    0.14220   0.16032   0.17760   0.17894   0.18175

 Mulliken charges:
               1
     1  C    0.278151
     2  C   -0.642084
     3  C    0.830970
     4  C    0.278124
     5  O   -0.745161
 Sum of Mulliken charges =  -0.00000

 Dipole moment (field-independent basis, Debye):
    X=              0.3120    Y=              0.0000    Z=              0.0000  Tot=              0.3120
 Quadrupole moment (field-independent basis, Debye-Ang):
   XX=            -37.7331   YY=            -29.2355   ZZ=            -26.0330
   XY=              0.0001   XZ=             -0.0005   YZ=             -0.0000

 P4SDQ=-226.9681022\CCSD=-226.964744\CCSD(T)=-227.0167324\RMSD=4.794e-0
 Normal termination of Gaussian 09 at Wed Mar  6 22:14:25 2019.
