 Gaussian 09, Revision E.01,
 Gaussian 09:  EM64L-G09RevE.01 30-Nov-2015

 --------------------------------------
 #p ccsd(t,maxcyc=200)/6-311++G(3df,2p)
 --------------------------------------

 -------------
 ccsd(t) iener
 -------------
 Symbolic Z-matrix:
 Charge =  0 Multiplicity = 1

                         Standard orientation:
 ---------------------------------------------------------------------
 Center     Atomic      Atomic             Coordinates (Angstroms)
 Number     Number       Type             X           Y           Z
 ---------------------------------------------------------------------
      1          6           0        0.176689   -0.007698   -0.831820
      2          6           0        0.176668   -0.007416    0.831821
      3          6           0        1.380784   -0.080203    0.000020
      4          6           0       -0.633985    1.004862   -0.000147
      5          8           0       -0.825117   -0.682159    0.000094
 ---------------------------------------------------------------------

 SCF Done:  E(RHF) =  -225.948417385     A.U. after   18 cycles
 E2 =    -0.8506582121D+00 EUMP2 =    -0.22679907559675D+03
 CCSD(T)
 CCSD(T)= -0.22685037475D+03

 The electronic state is 1-A.
 Alpha  occ. eigenvalues --  -20.72513 -11.38642 -11.38581 -11.38527 -11.37675
 Alpha  occ. eigenvalues --   -1.57412  -1.18271  -0.95908  -0.88960  -0.73401
 Alpha  occ. eigenvalues --   -0.64609  -0.59157  -0.51997  -0.51665  -0.45433
 Alpha  occ. eigenvalues --   -0.43747
 Alpha virt. eigenvalues --   -0.00578   0.01502   0.07534   0.07871   0.08392
 Alpha virt. eigenvalues --    0.09172   0.11501   0.12528   0.12663   0.13551
 Alpha virt. eigenvalues --    0.14092   0.16025   0.17263   0.17932   0.18037

 Mulliken charges:
               1
     1  C    0.560157
     2  C    0.560221
     3  C   -0.414221
     4  C   -0.168842
     5  O   -0.537315
 Sum of Mulliken charges =  -0.00000

 Dipole moment (field-independent basis, Debye):
    X=              0.3273    Y=             -0.8493    Z=              0.0002  Tot=              0.9102
 Quadrupole moment (field-independent basis, Debye-Ang):
   XX=            -32.7088   YY=            -28.7479   ZZ=            -28.6568
   XY=              0.7246   XZ=             -0.0002   YZ=              0.0002

 \MP4SDQ=-226.7939289\CCSD=-226.7898947\CCSD(T)=-226.8503747\RMSD=7.704
 Normal termination of Gaussian 09 at Wed Mar  6 18:36:46 2019.
