 Gaussian 09, Revision E.01,
 Gaussian 09:  EM64L-G09RevE.01 30-Nov-2015

 --------------------------------------
 #p ccsd(t,maxcyc=200)/6-311++G(3df,2p)
 --------------------------------------

 -------------
 ccsd(t) iener
 -------------
 Symbolic Z-matrix:
 Charge =  0 Multiplicity = 1

                         Standard orientation:
 ---------------------------------------------------------------------
 Center     Atomic      Atomic             Coordinates (Angstroms)
 Number     Number       Type             X           Y           Z
 ---------------------------------------------------------------------
      1          6           0        0.714344   -0.064704    0.000015
      2          6           0       -0.714332   -0.064717   -0.000006
      3          6           0       -1.866511   -0.689228    0.000001
      4          6           0        1.866517   -0.689220   -0.000007
      5          8           0       -0.000013    1.130901   -0.000002
 ---------------------------------------------------------------------

 SCF Done:  E(RHF) =  -226.019663663     A.U. after   17 cycles
 E2 =    -0.7610521402D+00 EUMP2 =    -0.22678071580304D+03
 CCSD(T)
 CCSD(T)= -0.22685533665D+03

 The electronic state is 1-A.
 Alpha  occ. eigenvalues --  -20.70791 -11.37214 -11.37121 -11.34960 -11.34960
 Alpha  occ. eigenvalues --   -1.54380  -1.08739  -1.06454  -0.88342  -0.73536
 Alpha  occ. eigenvalues --   -0.71262  -0.58150  -0.50667  -0.50627  -0.44811
 Alpha  occ. eigenvalues --   -0.42276
 Alpha virt. eigenvalues --   -0.03014   0.01062   0.07219   0.07876   0.09563
 Alpha virt. eigenvalues --    0.10514   0.11101   0.12201   0.12845   0.13558
 Alpha virt. eigenvalues --    0.15177   0.15407   0.17367   0.18750   0.19502

 Mulliken charges:
               1
     1  C    0.666248
     2  C    0.666260
     3  C   -0.320502
     4  C   -0.320531
     5  O   -0.691476
 Sum of Mulliken charges =  -0.00000

 Dipole moment (field-independent basis, Debye):
    X=              0.0000    Y=              0.9339    Z=              0.0000  Tot=              0.9339
 Quadrupole moment (field-independent basis, Debye-Ang):
   XX=            -34.5874   YY=            -29.4643   ZZ=            -29.6822
   XY=              0.0000   XZ=              0.0000   YZ=             -0.0000

 8\MP4SDQ=-226.8106182\CCSD=-226.8101801\CCSD(T)=-226.8553366\RMSD=1.91
 Normal termination of Gaussian 09 at Wed Mar  6 18:22:25 2019.
