 Gaussian 09, Revision E.01,
 Gaussian 09:  EM64L-G09RevE.01 30-Nov-2015

 --------------------------------------
 #p ccsd(t,maxcyc=200)/6-311++G(3df,2p)
 --------------------------------------

 -------------
 ccsd(t) iener
 -------------
 Symbolic Z-matrix:
 Charge =  0 Multiplicity = 3

                         Standard orientation:
 ---------------------------------------------------------------------
 Center     Atomic      Atomic             Coordinates (Angstroms)
 Number     Number       Type             X           Y           Z
 ---------------------------------------------------------------------
      1          6           0        0.000000    0.000000    0.126831
      2          6           0        0.000000    0.000000    1.407937
      3          6           0       -0.000000   -0.000000   -1.155913
      4          6           0        0.000000    0.000000    2.711712
      5          8           0       -0.000000   -0.000000   -2.317925
 ---------------------------------------------------------------------

 SCF Done:  E(UHF) =  -226.209994616     A.U. after   23 cycles
 E2 =    -0.7519720976D+00 EUMP2 =    -0.22696196671406D+03
 CCSD(T)
 CCSD(T)= -0.22702493204D+03

 The electronic state is 3-SG.
 Alpha  occ. eigenvalues --  -20.70402 -11.44206 -11.33454 -11.31191 -11.30210
 Alpha  occ. eigenvalues --   -1.55165  -1.17360  -1.08371  -0.90356  -0.80220
 Alpha  occ. eigenvalues --   -0.72903  -0.72903  -0.54283  -0.54283  -0.49141
 Alpha  occ. eigenvalues --   -0.40042  -0.40042
 Alpha virt. eigenvalues --    0.05009   0.07474   0.07474   0.08738   0.09190
 Alpha virt. eigenvalues --    0.09190   0.10659   0.12872   0.12872   0.14072
 Alpha virt. eigenvalues --    0.18433   0.18433   0.19611   0.23524   0.23524

  Beta  occ. eigenvalues --  -20.68069 -11.44200 -11.32371 -11.31508 -11.28191
  Beta  occ. eigenvalues --   -1.50531  -1.13030  -0.99761  -0.86905  -0.77354
  Beta  occ. eigenvalues --   -0.64270  -0.64270  -0.46654  -0.46654  -0.44481
  Beta virt. eigenvalues --   -0.02211  -0.02211   0.05121   0.08832   0.09054
  Beta virt. eigenvalues --    0.09054   0.10863   0.11495   0.11495   0.14202
  Beta virt. eigenvalues --    0.17057   0.17057   0.19803   0.20406   0.20406

 Mulliken charges and spin densities:
               1          2
     1  C    0.406861   0.953410
     2  C    0.805193   0.210104
     3  C    0.438188  -0.461917
     4  C   -0.936466   0.844675
     5  O   -0.713776   0.453728
 Sum of Mulliken charges =  -0.00000   2.00000

 Dipole moment (field-independent basis, Debye):
    X=             -0.0000    Y=             -0.0000    Z=             -2.7215  Tot=              2.7215
 Quadrupole moment (field-independent basis, Debye-Ang):
   XX=            -27.2930   YY=            -27.2930   ZZ=            -41.9845
   XY=              0.0000   XZ=             -0.0000   YZ=             -0.0000

 26.9796846\CCSD=-226.9784507\CCSD(T)=-227.024932\S2=2.197124\S2-1=2.11
 Normal termination of Gaussian 09 at Wed Mar  6 22:19:31 2019.
