 Gaussian 09, Revision E.01,
 Gaussian 09:  EM64L-G09RevE.01 30-Nov-2015

 --------------------------------------
 #p ccsd(t,maxcyc=200)/6-311++G(3df,2p)
 --------------------------------------

 -------------
 ccsd(t) iener
 -------------
 Symbolic Z-matrix:
 Charge =  0 Multiplicity = 1

                         Standard orientation:
 ---------------------------------------------------------------------
 Center     Atomic      Atomic             Coordinates (Angstroms)
 Number     Number       Type             X           Y           Z
 ---------------------------------------------------------------------
      1          6           0        1.684591    2.122096    0.000000
      2          6           0        0.840520    1.131096    0.000000
      3          6           0       -0.692724   -0.924068   -0.000000
      4          6           0       -0.000000    0.159516    0.000000
      5          8           0       -1.374290   -1.866480   -0.000000
 ---------------------------------------------------------------------

 SCF Done:  E(RHF) =  -226.164474233     A.U. after   18 cycles
 E2 =    -0.7886917553D+00 EUMP2 =    -0.22695316598793D+03
 CCSD(T)
 CCSD(T)= -0.22701140244D+03

 The electronic state is 1-A'.
 Alpha  occ. eigenvalues --  -20.68005 -11.43727 -11.32645 -11.32022 -11.30787
 Alpha  occ. eigenvalues --   -1.51729  -1.14588  -1.04071  -0.89076  -0.77750
 Alpha  occ. eigenvalues --   -0.69294  -0.65867  -0.52126  -0.48612  -0.47415
 Alpha  occ. eigenvalues --   -0.35773
 Alpha virt. eigenvalues --   -0.06393   0.05289   0.08542   0.08825   0.08874
 Alpha virt. eigenvalues --    0.09671   0.10753   0.10917   0.13418   0.14167
 Alpha virt. eigenvalues --    0.15350   0.18110   0.18799   0.20155   0.22447

 Mulliken charges:
               1
     1  C   -0.844665
     2  C    0.831938
     3  C    0.448077
     4  C    0.301564
     5  O   -0.736913
 Sum of Mulliken charges =  -0.00000

 Dipole moment (field-independent basis, Debye):
    X=             -1.1100    Y=             -1.4425    Z=             -0.0000  Tot=              1.8201
 Quadrupole moment (field-independent basis, Debye-Ang):
   XX=            -33.5650   YY=            -36.1999   ZZ=            -25.6932
   XY=             -5.5824   XZ=              0.0000   YZ=             -0.0000

 29\CCSD(T)=-227.0114024\RMSD=2.314e-09\PG=CS [SG(C4O1)]\\@
 Normal termination of Gaussian 09 at Wed Mar  6 18:07:14 2019.
