 Gaussian 09, Revision E.01,
 Gaussian 09:  EM64L-G09RevE.01 30-Nov-2015

 --------------------------------------
 #p ccsd(t,maxcyc=200)/6-311++G(3df,2p)
 --------------------------------------

 -------------
 ccsd(t) iener
 -------------
 Symbolic Z-matrix:
 Charge =  1 Multiplicity = 2

                         Standard orientation:
 ---------------------------------------------------------------------
 Center     Atomic      Atomic             Coordinates (Angstroms)
 Number     Number       Type             X           Y           Z
 ---------------------------------------------------------------------
      1          6           0        0.422172   -0.100030    0.000024
      2          6           0        1.664134    0.727998   -0.000007
      3          6           0        1.620675   -0.659226   -0.000012
      4          6           0       -0.950463   -0.032447    0.000009
      5          8           0       -2.067388    0.047779   -0.000011
 ---------------------------------------------------------------------

 SCF Done:  E(UHF) =  -225.851200199     A.U. after   33 cycles
 E2 =    -0.7495443756D+00 EUMP2 =    -0.22660074457435D+03
 CCSD(T)
 CCSD(T)= -0.22665494398D+03

 The electronic state is 2-A.
 Alpha  occ. eigenvalues --  -20.99259 -11.73954 -11.61791 -11.60202 -11.56591
 Alpha  occ. eigenvalues --   -1.83598  -1.52216  -1.29134  -1.07055  -1.01841
 Alpha  occ. eigenvalues --   -0.95210  -0.94910  -0.90693  -0.77357  -0.72428
 Alpha  occ. eigenvalues --   -0.65140
 Alpha virt. eigenvalues --   -0.25799  -0.17860  -0.11146  -0.10710  -0.06372
 Alpha virt. eigenvalues --   -0.06351  -0.05116  -0.02905  -0.02090  -0.02046
 Alpha virt. eigenvalues --   -0.00159   0.01893   0.02057   0.03297   0.03575

  Beta  occ. eigenvalues --  -20.99070 -11.73951 -11.60244 -11.58514 -11.56376
  Beta  occ. eigenvalues --   -1.83266  -1.50319  -1.27793  -1.06757  -0.97386
  Beta  occ. eigenvalues --   -0.95936  -0.91871  -0.80801  -0.76441  -0.65562
  Beta virt. eigenvalues --   -0.24995  -0.24498  -0.13928  -0.10175  -0.08407
  Beta virt. eigenvalues --   -0.06462  -0.05664  -0.04142  -0.02845  -0.02133
  Beta virt. eigenvalues --   -0.01589  -0.00106   0.02138   0.02498   0.04064

 Mulliken charges and spin densities:
               1          2
     1  C    0.663301  -0.148514
     2  C   -0.236797   0.054235
     3  C    0.339426   0.992270
     4  C    0.726451   0.065260
     5  O   -0.492381   0.036749
 Sum of Mulliken charges =   1.00000   1.00000

 Dipole moment (field-independent basis, Debye):
    X=             -0.4622    Y=             -1.8606    Z=              0.0000  Tot=              1.9171
 Quadrupole moment (field-independent basis, Debye-Ang):
   XX=            -17.5094   YY=            -25.2132   ZZ=            -23.2003
   XY=             -3.3838   XZ=             -0.0000   YZ=              0.0000

 26.6099994\CCSD=-226.6086237\CCSD(T)=-226.654944\S2=0.801335\S2-1=0.78
 Normal termination of Gaussian 09 at Wed Mar  6 23:02:44 2019.
