 Gaussian 09, Revision E.01,
 Gaussian 09:  EM64L-G09RevE.01 30-Nov-2015

 --------------------------------------
 #p ccsd(t,maxcyc=200)/6-311++G(3df,2p)
 --------------------------------------

 -------------
 ccsd(t) iener
 -------------
 Symbolic Z-matrix:
 Charge =  1 Multiplicity = 2

                         Standard orientation:
 ---------------------------------------------------------------------
 Center     Atomic      Atomic             Coordinates (Angstroms)
 Number     Number       Type             X           Y           Z
 ---------------------------------------------------------------------
      1          6           0        0.000000    0.000000   -0.633239
      2          8           0        0.000000    0.000000    0.474929
 ---------------------------------------------------------------------

 SCF Done:  E(UHF) =  -112.301936989     A.U. after   14 cycles
 E2 =    -0.3122921521D+00 EUMP2 =    -0.11261422914072D+03
 CCSD(T)
 CCSD(T)= -0.11264443085D+03

 The electronic state is 2-SG.
 Alpha  occ. eigenvalues --  -21.07212 -11.85932  -1.90682  -1.20426  -1.08216
 Alpha  occ. eigenvalues --   -1.00123  -1.00123
 Alpha virt. eigenvalues --   -0.24005  -0.24005  -0.11825  -0.08262  -0.07286
 Alpha virt. eigenvalues --   -0.07286   0.04393   0.08972   0.08972   0.11211
 Alpha virt. eigenvalues --    0.15054   0.15054   0.20811   0.29918   0.29918

  Beta  occ. eigenvalues --  -21.09781 -11.79957  -1.93674  -1.16570  -1.06045
  Beta  occ. eigenvalues --   -1.06045
  Beta virt. eigenvalues --   -0.40664  -0.17415  -0.17415  -0.09662  -0.07493
  Beta virt. eigenvalues --   -0.05444  -0.05444   0.05557   0.08121   0.08121
  Beta virt. eigenvalues --    0.12143   0.17036   0.17036   0.24791   0.31817

 Mulliken charges and spin densities:
               1          2
     1  C    1.036401   1.631735
     2  O   -0.036401  -0.631735
 Sum of Mulliken charges =   1.00000   1.00000

 Dipole moment (field-independent basis, Debye):
    X=              0.0000    Y=              0.0000    Z=             -3.0633  Tot=              3.0633
 Quadrupole moment (field-independent basis, Debye-Ang):
   XX=             -7.9477   YY=             -7.9477   ZZ=             -5.3925
   XY=              0.0000   XZ=              0.0000   YZ=              0.0000

 -112.6210319\MP4SDQ=-112.6213154\CCSD=-112.6281708\CCSD(T)=-112.644430
 Normal termination of Gaussian 09 at Wed Mar  6 21:55:46 2019.
