 Gaussian 09, Revision E.01,
 Gaussian 09:  EM64L-G09RevE.01 30-Nov-2015

 --------------------------------------
 #p ccsd(t,maxcyc=200)/6-311++G(3df,2p)
 --------------------------------------

 -------------
 ccsd(t) iener
 -------------
 Symbolic Z-matrix:
 Charge =  0 Multiplicity = 3

                         Standard orientation:
 ---------------------------------------------------------------------
 Center     Atomic      Atomic             Coordinates (Angstroms)
 Number     Number       Type             X           Y           Z
 ---------------------------------------------------------------------
      1          6           0        0.000000    0.000000   -0.685812
      2          8           0        0.000000    0.000000    0.514359
 ---------------------------------------------------------------------

 SCF Done:  E(UHF) =  -112.589191687     A.U. after   18 cycles
 E2 =    -0.3106294042D+00 EUMP2 =    -0.11289982109103D+03
 CCSD(T)
 CCSD(T)= -0.11293503169D+03

 Unable to determine electronic state:  an orbital has unidentified symmetry.
 Alpha  occ. eigenvalues --  -20.62805 -11.39394  -1.43961  -0.85537  -0.68578
 Alpha  occ. eigenvalues --   -0.66463  -0.55021  -0.35599
 Alpha virt. eigenvalues --    0.07457   0.07650   0.09750   0.10835   0.12748
 Alpha virt. eigenvalues --    0.26444   0.29640   0.31218   0.33000   0.42664
 Alpha virt. eigenvalues --    0.42683   0.45875   0.54743   0.56768   0.61916

  Beta  occ. eigenvalues --  -20.63240 -11.32594  -1.43252  -0.72241  -0.62250
  Beta  occ. eigenvalues --   -0.56321
  Beta virt. eigenvalues --   -0.03970   0.08559   0.09450   0.09566   0.12099
  Beta virt. eigenvalues --    0.21414   0.23923   0.27300   0.29646   0.30893
  Beta virt. eigenvalues --    0.35105   0.46250   0.46252   0.51880   0.58789

 Mulliken charges and spin densities:
               1          2
     1  C    0.421201   2.332633
     2  O   -0.421201  -0.332633
 Sum of Mulliken charges =  -0.00000   2.00000

 Dipole moment (field-independent basis, Debye):
    X=              0.0000    Y=              0.0000    Z=             -1.9250  Tot=              1.9250
 Quadrupole moment (field-independent basis, Debye-Ang):
   XX=            -11.4979   YY=            -10.0501   ZZ=            -10.1627
   XY=              0.0000   XZ=              0.0000   YZ=              0.0000

 MP4SDQ=-112.9117554\CCSD=-112.9194788\CCSD(T)=-112.9350317\S2=2.199724
 Normal termination of Gaussian 09 at Wed Mar  6 21:55:47 2019.
