 Gaussian 09, Revision E.01,
 Gaussian 09:  EM64L-G09RevE.01 30-Nov-2015

 --------------------------------------
 #p ccsd(t,maxcyc=200)/6-311++G(3df,2p)
 --------------------------------------

 -------------
 ccsd(t) iener
 -------------
 Symbolic Z-matrix:
 Charge =  1 Multiplicity = 4

                         Standard orientation:
 ---------------------------------------------------------------------
 Center     Atomic      Atomic             Coordinates (Angstroms)
 Number     Number       Type             X           Y           Z
 ---------------------------------------------------------------------
      1          6           0        0.000000    0.000000   -1.065399
      2          8           0        0.000000    0.000000    0.799050
 ---------------------------------------------------------------------

 SCF Done:  E(UHF) =  -112.134768133     A.U. after   15 cycles
 E2 =    -0.2047840276D+00 EUMP2 =    -0.11233955216045D+03
 CCSD(T)
 CCSD(T)= -0.11238975236D+03

 Unable to determine electronic state:  an orbital has unidentified symmetry.
 Alpha  occ. eigenvalues --  -21.11307 -11.79675  -1.81696  -1.18863  -1.09525
 Alpha  occ. eigenvalues --   -1.08859  -0.95343  -0.82437
 Alpha virt. eigenvalues --   -0.29632  -0.21860  -0.10254  -0.06091  -0.04988
 Alpha virt. eigenvalues --   -0.03902   0.04437   0.04971   0.05163   0.13627
 Alpha virt. eigenvalues --    0.18509   0.18572   0.26834   0.27178   0.33013

  Beta  occ. eigenvalues --  -21.01989 -11.76932  -1.45028  -1.05277  -0.83068
  Beta virt. eigenvalues --   -0.30996  -0.27508  -0.19655  -0.18551  -0.16450
  Beta virt. eigenvalues --   -0.09519  -0.04315  -0.03932  -0.02970   0.05152
  Beta virt. eigenvalues --    0.09879   0.10210   0.15253   0.21004   0.21028

 Mulliken charges and spin densities:
               1          2
     1  C    0.738779   0.880207
     2  O    0.261221   2.119793
 Sum of Mulliken charges =   1.00000   3.00000

 Dipole moment (field-independent basis, Debye):
    X=              0.0000    Y=              0.0000    Z=             -1.8731  Tot=              1.8731
 Quadrupole moment (field-independent basis, Debye-Ang):
   XX=             -9.1727   YY=             -7.5997   ZZ=             -4.9182
   XY=              0.0000   XZ=              0.0000   YZ=              0.0000

 81\MP4SDQ=-112.375437\CCSD=-112.3815997\CCSD(T)=-112.3897524\S2=3.8617
 Normal termination of Gaussian 09 at Wed Mar  6 21:55:45 2019.
