 Gaussian 09, Revision E.01,
 Gaussian 09:  EM64L-G09RevE.01 30-Nov-2015

 --------------------------------------
 #p ccsd(t,maxcyc=200)/6-311++G(3df,2p)
 --------------------------------------

 -------------
 ccsd(t) iener
 -------------
 Symbolic Z-matrix:
 Charge =  0 Multiplicity = 1

                         Standard orientation:
 ---------------------------------------------------------------------
 Center     Atomic      Atomic             Coordinates (Angstroms)
 Number     Number       Type             X           Y           Z
 ---------------------------------------------------------------------
      1          6           0        0.000000    0.000000   -0.642546
      2          8           0        0.000000    0.000000    0.481910
 ---------------------------------------------------------------------

 SCF Done:  E(RHF) =  -112.780012372     A.U. after   10 cycles
 E2 =    -0.3564587085D+00 EUMP2 =    -0.11313647108032D+03
 CCSD(T)
 CCSD(T)= -0.11315653579D+03

 The electronic state is 1-SG.
 Alpha  occ. eigenvalues --  -20.66753 -11.35927  -1.52539  -0.80554  -0.64254
 Alpha  occ. eigenvalues --   -0.64254  -0.55487
 Alpha virt. eigenvalues --    0.07791   0.08489   0.08489   0.11161   0.17572
 Alpha virt. eigenvalues --    0.17572   0.25903   0.29107   0.29107   0.32715
 Alpha virt. eigenvalues --    0.44622   0.44622   0.52147   0.60988   0.60988

 Mulliken charges:
               1
     1  C    0.358620
     2  O   -0.358620
 Sum of Mulliken charges =  -0.00000

 Dipole moment (field-independent basis, Debye):
    X=              0.0000    Y=              0.0000    Z=             -0.2533  Tot=              0.2533
 Quadrupole moment (field-independent basis, Debye-Ang):
   XX=            -10.2064   YY=            -10.2064   ZZ=            -12.3414
   XY=              0.0000   XZ=              0.0000   YZ=              0.0000

 \MP4DQ=-113.1356153\MP4SDQ=-113.1419547\CCSD=-113.1394951\CCSD(T)=-113
 Normal termination of Gaussian 09 at Wed Mar  6 21:55:30 2019.
