 Gaussian 09, Revision E.01,
 Gaussian 09:  EM64L-G09RevE.01 30-Nov-2015

 --------------------------------------
 #p ccsd(t,maxcyc=200)/6-311++G(3df,2p)
 --------------------------------------

 -------------
 ccsd(t) iener
 -------------
 Symbolic Z-matrix:
 Charge =  1 Multiplicity = 2

                         Standard orientation:
 ---------------------------------------------------------------------
 Center     Atomic      Atomic             Coordinates (Angstroms)
 Number     Number       Type             X           Y           Z
 ---------------------------------------------------------------------
      1          6           0        0.139861   -0.000024   -0.000041
      2          8           0        1.262363    0.000010    0.000018
      3          6           0       -1.236433    0.000007    0.000005
      4          1           0       -1.759748   -0.952737    0.000033
      5          1           0       -1.759722    0.952764    0.000033
 ---------------------------------------------------------------------

 SCF Done:  E(UHF) =  -151.479926441     A.U. after   22 cycles
 E2 =    -0.4904184106D+00 EUMP2 =    -0.15197034485168D+03
 CCSD(T)
 CCSD(T)= -0.15200880661D+03

 The electronic state is 2-A.
 Alpha  occ. eigenvalues --  -20.98348 -11.70238 -11.59487  -1.83381  -1.38428
 Alpha  occ. eigenvalues --   -1.08129  -0.99299  -0.98838  -0.97360  -0.88802
 Alpha  occ. eigenvalues --   -0.73536
 Alpha virt. eigenvalues --   -0.15268  -0.12240  -0.09982  -0.08026  -0.07103
 Alpha virt. eigenvalues --   -0.05868  -0.02388  -0.01678  -0.00629  -0.00327
 Alpha virt. eigenvalues --    0.01974   0.03890   0.04330   0.11212   0.12854

  Beta  occ. eigenvalues --  -20.96565 -11.70984 -11.57475  -1.80042  -1.31143
  Beta  occ. eigenvalues --   -1.05767  -0.97561  -0.95868  -0.89543  -0.86602
  Beta virt. eigenvalues --   -0.25743  -0.15270  -0.11869  -0.07924  -0.07012
  Beta virt. eigenvalues --   -0.06127  -0.02857  -0.02373  -0.01817  -0.00152
  Beta virt. eigenvalues --    0.03076   0.03129   0.04070   0.04966   0.11539

 Mulliken charges and spin densities:
               1          2
     1  C    0.998154  -0.311501
     2  O   -0.463502   0.367363
     3  C   -0.021340   1.052233
     4  H    0.243342  -0.054047
     5  H    0.243346  -0.054048
 Sum of Mulliken charges =   1.00000   1.00000

 Dipole moment (field-independent basis, Debye):
    X=             -3.4233    Y=             -0.0001    Z=             -0.0001  Tot=              3.4233
 Quadrupole moment (field-independent basis, Debye-Ang):
   XX=             -8.3268   YY=            -12.4737   ZZ=            -15.0599
   XY=             -0.0001   XZ=             -0.0002   YZ=             -0.0000

 SDQ=-151.9873388\CCSD=-151.9858494\CCSD(T)=-152.0088066\S2=0.798432\S2
 Normal termination of Gaussian 09 at Wed Mar  6 23:13:09 2019.
