 Gaussian 09, Revision E.01,
 Gaussian 09:  EM64L-G09RevE.01 30-Nov-2015

 --------------------------------------
 #p ccsd(t,maxcyc=200)/6-311++G(3df,2p)
 --------------------------------------

 -------------
 ccsd(t) iener
 -------------
 Symbolic Z-matrix:
 Charge =  1 Multiplicity = 4

                         Standard orientation:
 ---------------------------------------------------------------------
 Center     Atomic      Atomic             Coordinates (Angstroms)
 Number     Number       Type             X           Y           Z
 ---------------------------------------------------------------------
      1          6           0        1.338907    0.024665    0.000003
      2          6           0        0.018744   -0.480326    0.000008
      3          1           0        1.743756    1.037355   -0.000032
      4          1           0       -1.189099    1.062110    0.000058
      5          8           0       -1.087571    0.079313   -0.000011
 ---------------------------------------------------------------------

 SCF Done:  E(UHF) =  -151.357110938     A.U. after   18 cycles
 E2 =    -0.4391763874D+00 EUMP2 =    -0.15179628732572D+03
 CCSD(T)
 CCSD(T)= -0.15184008392D+03

 The electronic state is 4-A.
 Alpha  occ. eigenvalues --  -20.94231 -11.69392 -11.59774  -1.78952  -1.36960
 Alpha  occ. eigenvalues --   -1.18599  -1.00513  -0.98469  -0.94149  -0.78554
 Alpha  occ. eigenvalues --   -0.72351  -0.71953
 Alpha virt. eigenvalues --   -0.15289  -0.12181  -0.08114  -0.06655  -0.05253
 Alpha virt. eigenvalues --   -0.02697  -0.02048  -0.01053   0.00191   0.02913
 Alpha virt. eigenvalues --    0.04368   0.05272   0.08149   0.09217   0.12023

  Beta  occ. eigenvalues --  -20.93171 -11.66248 -11.54953  -1.75625  -1.21558
  Beta  occ. eigenvalues --   -1.12193  -0.93712  -0.89625  -0.87599
  Beta virt. eigenvalues --   -0.23004  -0.21317  -0.15085  -0.09182  -0.07240
  Beta virt. eigenvalues --   -0.05226  -0.05130  -0.03032  -0.01833  -0.00601
  Beta virt. eigenvalues --    0.00570   0.04143   0.04562   0.05273   0.06525

 Mulliken charges and spin densities:
               1          2
     1  C   -0.099383   1.901394
     2  C    0.996856   0.981189
     3  H    0.211858  -0.000804
     4  H    0.344158   0.051165
     5  O   -0.453489   0.067056
 Sum of Mulliken charges =   1.00000   3.00000

 Dipole moment (field-independent basis, Debye):
    X=              1.1972    Y=              2.1812    Z=              0.0001  Tot=              2.4882
 Quadrupole moment (field-independent basis, Debye-Ang):
   XX=             -9.5889   YY=            -11.0279   ZZ=            -15.3371
   XY=             -0.9101   XZ=             -0.0002   YZ=              0.0001

 -151.8204457\CCSD=-151.8208766\CCSD(T)=-151.8400839\S2=3.76211\S2-1=3.
 Normal termination of Gaussian 09 at Wed Mar  6 23:29:59 2019.
