 Gaussian 09, Revision E.01,
 Gaussian 09:  EM64L-G09RevE.01 30-Nov-2015

 --------------------------------------
 #p ccsd(t,maxcyc=200)/6-311++G(3df,2p)
 --------------------------------------

 -------------
 ccsd(t) iener
 -------------
 Symbolic Z-matrix:
 Charge =  0 Multiplicity = 1

                         Standard orientation:
 ---------------------------------------------------------------------
 Center     Atomic      Atomic             Coordinates (Angstroms)
 Number     Number       Type             X           Y           Z
 ---------------------------------------------------------------------
      1          6           0       -1.319438    0.014217    0.000001
      2          6           0       -0.122851   -0.003865   -0.000005
      3          1           0       -2.379172    0.037390    0.000009
      4          1           0        1.593864    0.763477    0.000002
      5          8           0        1.179880   -0.107873    0.000002
 ---------------------------------------------------------------------

 SCF Done:  E(RHF) =  -151.726537910     A.U. after   15 cycles
 E2 =    -0.5414754550D+00 EUMP2 =    -0.15226801336485D+03
 CCSD(T)
 CCSD(T)= -0.15230211197D+03

 The electronic state is 1-A.
 Alpha  occ. eigenvalues --  -20.63915 -11.29785 -11.22159  -1.45365  -1.02505
 Alpha  occ. eigenvalues --   -0.82680  -0.70818  -0.66713  -0.62549  -0.39702
 Alpha  occ. eigenvalues --   -0.37943
 Alpha virt. eigenvalues --    0.03558   0.04863   0.10312   0.12447   0.12597
 Alpha virt. eigenvalues --    0.13257   0.13687   0.16956   0.18006   0.20909
 Alpha virt. eigenvalues --    0.22179   0.26295   0.27782   0.30850   0.32701

 Mulliken charges:
               1
     1  C    0.094626
     2  C   -0.038112
     3  H    0.321261
     4  H    0.269350
     5  O   -0.647125
 Sum of Mulliken charges =  -0.00000

 Dipole moment (field-independent basis, Debye):
    X=              0.5645    Y=              1.5745    Z=              0.0000  Tot=              1.6726
 Quadrupole moment (field-independent basis, Debye-Ang):
   XX=            -12.2279   YY=            -17.3051   ZZ=            -19.1293
   XY=              2.9964   XZ=             -0.0000   YZ=              0.0000

 75\MP4SDQ=-152.2774253\CCSD=-152.2765308\CCSD(T)=-152.302112\RMSD=1.94
 Normal termination of Gaussian 09 at Wed Mar  6 23:06:56 2019.
