 Gaussian 09, Revision E.01,
 Gaussian 09:  EM64L-G09RevE.01 30-Nov-2015

 --------------------------------------
 #p ccsd(t,maxcyc=200)/6-311++G(3df,2p)
 --------------------------------------

 -------------
 ccsd(t) iener
 -------------
 Symbolic Z-matrix:
 Charge =  0 Multiplicity = 1

                         Standard orientation:
 ---------------------------------------------------------------------
 Center     Atomic      Atomic             Coordinates (Angstroms)
 Number     Number       Type             X           Y           Z
 ---------------------------------------------------------------------
      1          6           0        1.205229    0.000003   -0.000016
      2          6           0       -0.102713   -0.000021   -0.000000
      3          1           0        1.738752    0.936840    0.000039
      4          1           0        1.738818   -0.936788    0.000039
      5          8           0       -1.261583    0.000007    0.000002
 ---------------------------------------------------------------------

 SCF Done:  E(RHF) =  -151.783606348     A.U. after   14 cycles
 E2 =    -0.5390810779D+00 EUMP2 =    -0.15232268742587D+03
 CCSD(T)
 CCSD(T)= -0.15235739074D+03

 The electronic state is 1-A.
 Alpha  occ. eigenvalues --  -20.62995 -11.38316 -11.23910  -1.47730  -1.05623
 Alpha  occ. eigenvalues --   -0.76114  -0.68379  -0.65863  -0.64639  -0.56361
 Alpha  occ. eigenvalues --   -0.36806
 Alpha virt. eigenvalues --    0.04187   0.05877   0.08256   0.11183   0.11526
 Alpha virt. eigenvalues --    0.13460   0.13525   0.14774   0.16296   0.19363
 Alpha virt. eigenvalues --    0.20010   0.23257   0.24085   0.32396   0.33208

 Mulliken charges:
               1
     1  C   -0.350151
     2  C    0.769337
     3  H    0.156186
     4  H    0.156189
     5  O   -0.731561
 Sum of Mulliken charges =   0.00000

 Dipole moment (field-independent basis, Debye):
    X=              1.7943    Y=             -0.0000    Z=              0.0001  Tot=              1.7943
 Quadrupole moment (field-independent basis, Debye-Ang):
   XX=            -18.5185   YY=            -15.4633   ZZ=            -19.2853
   XY=              0.0000   XZ=              0.0002   YZ=              0.0000

 \MP4SDQ=-152.3338745\CCSD=-152.3309231\CCSD(T)=-152.3573907\RMSD=2.807
 Normal termination of Gaussian 09 at Wed Mar  6 23:07:10 2019.
