 Gaussian 09, Revision E.01,
 Gaussian 09:  EM64L-G09RevE.01 30-Nov-2015

 --------------------------------------
 #p ccsd(t,maxcyc=200)/6-311++G(3df,2p)
 --------------------------------------

 -------------
 ccsd(t) iener
 -------------
 Symbolic Z-matrix:
 Charge =  1 Multiplicity = 2

                         Standard orientation:
 ---------------------------------------------------------------------
 Center     Atomic      Atomic             Coordinates (Angstroms)
 Number     Number       Type             X           Y           Z
 ---------------------------------------------------------------------
      1          6           0        1.322070    0.009376    0.000162
      2          6           0        0.085301    0.014105   -0.000319
      3          1           0        2.395464    0.038615    0.000011
      4          1           0       -1.674396    0.718226    0.000147
      5          8           0       -1.145662   -0.112216    0.000098
 ---------------------------------------------------------------------

 SCF Done:  E(UHF) =  -151.406538092     A.U. after   26 cycles
 E2 =    -0.4882046696D+00 EUMP2 =    -0.15189474276204D+03
 CCSD(T)
 CCSD(T)= -0.15193715156D+03

 The electronic state is 2-A.
 Alpha  occ. eigenvalues --  -20.95262 -11.65591 -11.58668  -1.78482  -1.38303
 Alpha  occ. eigenvalues --   -1.15224  -1.01264  -0.96879  -0.95748  -0.73818
 Alpha  occ. eigenvalues --   -0.71268
 Alpha virt. eigenvalues --   -0.12680  -0.09371  -0.08567  -0.08203  -0.05148
 Alpha virt. eigenvalues --   -0.05066  -0.04228  -0.00479  -0.00160   0.00494
 Alpha virt. eigenvalues --    0.02721   0.05316   0.07712   0.10991   0.12381

  Beta  occ. eigenvalues --  -20.94383 -11.65783 -11.56701  -1.76688  -1.30485
  Beta  occ. eigenvalues --   -1.14094  -0.99489  -0.96889  -0.87352  -0.69095
  Beta virt. eigenvalues --   -0.26540  -0.12512  -0.09218  -0.08063  -0.04775
  Beta virt. eigenvalues --   -0.04730  -0.03891  -0.02705   0.00012   0.00532
  Beta virt. eigenvalues --    0.03071   0.05417   0.05426   0.07661   0.11737

 Mulliken charges and spin densities:
               1          2
     1  C    0.352633   0.984074
     2  C    0.391494  -0.067806
     3  H    0.421258  -0.058605
     4  H    0.346550  -0.020475
     5  O   -0.511936   0.162812
 Sum of Mulliken charges =   1.00000   1.00000

 Dipole moment (field-independent basis, Debye):
    X=              1.2020    Y=              1.7253    Z=             -0.0004  Tot=              2.1027
 Quadrupole moment (field-independent basis, Debye-Ang):
   XX=             -1.1105   YY=            -14.8852   ZZ=            -14.9749
   XY=             -3.1425   XZ=              0.0001   YZ=              0.0005

 DQ=-151.9141193\CCSD=-151.9143816\CCSD(T)=-151.9371516\S2=0.785097\S2-
 Normal termination of Gaussian 09 at Wed Mar  6 23:13:29 2019.
