 Gaussian 09, Revision E.01,
 Gaussian 09:  EM64L-G09RevE.01 30-Nov-2015

 --------------------------------------
 #p ccsd(t,maxcyc=200)/6-311++G(3df,2p)
 --------------------------------------

 -------------
 ccsd(t) iener
 -------------
 Symbolic Z-matrix:
 Charge =  0 Multiplicity = 1

                         Standard orientation:
 ---------------------------------------------------------------------
 Center     Atomic      Atomic             Coordinates (Angstroms)
 Number     Number       Type             X           Y           Z
 ---------------------------------------------------------------------
      1          6           0        1.385401   -0.297290    0.000013
      2          6           0        0.212539    0.283530   -0.000047
      3          1           0        0.438937    1.361482    0.000125
      4          1           0       -1.205118   -0.993531    0.000067
      5          8           0       -1.102683   -0.035674    0.000002
 ---------------------------------------------------------------------

 SCF Done:  E(RHF) =  -151.661848426     A.U. after   14 cycles
 E2 =    -0.5151216787D+00 EUMP2 =    -0.15217697010431D+03
 CCSD(T)
 CCSD(T)= -0.15222467251D+03

 The electronic state is 1-A.
 Alpha  occ. eigenvalues --  -20.63199 -11.31056 -11.29168  -1.43886  -1.05107
 Alpha  occ. eigenvalues --   -0.82471  -0.67647  -0.61613  -0.60901  -0.45747
 Alpha  occ. eigenvalues --   -0.38675
 Alpha virt. eigenvalues --    0.02225   0.05427   0.06543   0.10407   0.11975
 Alpha virt. eigenvalues --    0.13102   0.13325   0.15102   0.16610   0.18974
 Alpha virt. eigenvalues --    0.20663   0.22262   0.24144   0.28491   0.29377

 Mulliken charges:
               1
     1  C   -0.499457
     2  C    0.753967
     3  H    0.114805
     4  H    0.236774
     5  O   -0.606089
 Sum of Mulliken charges =  -0.00000

 Dipole moment (field-independent basis, Debye):
    X=             -1.8313    Y=             -0.3384    Z=              0.0002  Tot=              1.8623
 Quadrupole moment (field-independent basis, Debye-Ang):
   XX=            -23.6097   YY=            -13.6553   ZZ=            -19.9126
   XY=              4.1638   XZ=             -0.0000   YZ=              0.0002

 P4SDQ=-152.200983\CCSD=-152.2010068\CCSD(T)=-152.2246725\RMSD=7.802e-0
 Normal termination of Gaussian 09 at Wed Mar  6 21:59:49 2019.
