 Gaussian 09, Revision E.01,
 Gaussian 09:  EM64L-G09RevE.01 30-Nov-2015

 --------------------------------------
 #p ccsd(t,maxcyc=200)/6-311++G(3df,2p)
 --------------------------------------

 -------------
 ccsd(t) iener
 -------------
 Symbolic Z-matrix:
 Charge =  1 Multiplicity = 4

                         Standard orientation:
 ---------------------------------------------------------------------
 Center     Atomic      Atomic             Coordinates (Angstroms)
 Number     Number       Type             X           Y           Z
 ---------------------------------------------------------------------
      1          6           0       -1.126542    0.134474   -0.000003
      2          6           0        0.087969   -0.508804   -0.000004
      3          1           0       -2.052998   -0.450984    0.000024
      4          1           0       -1.212037    1.229559   -0.000002
      5          8           0        1.187059    0.183426    0.000003
 ---------------------------------------------------------------------

 SCF Done:  E(UHF) =  -151.339544576     A.U. after   21 cycles
 E2 =    -0.4185801488D+00 EUMP2 =    -0.15175812472492D+03
 CCSD(T)
 CCSD(T)= -0.15181429079D+03

 The electronic state is 4-A.
 Alpha  occ. eigenvalues --  -21.00562 -11.69458 -11.58962  -1.81056  -1.38452
 Alpha  occ. eigenvalues --   -1.11660  -1.06727  -0.98678  -0.97454  -0.89417
 Alpha  occ. eigenvalues --   -0.78080  -0.72742
 Alpha virt. eigenvalues --   -0.17195  -0.10480  -0.07749  -0.07056  -0.05638
 Alpha virt. eigenvalues --   -0.03347  -0.02652  -0.00280  -0.00045   0.04000
 Alpha virt. eigenvalues --    0.04238   0.05629   0.06620   0.09264   0.11304

  Beta  occ. eigenvalues --  -20.95105 -11.66178 -11.57363  -1.63051  -1.26622
  Beta  occ. eigenvalues --   -1.02198  -0.93135  -0.87972  -0.83532
  Beta virt. eigenvalues --   -0.29423  -0.25986  -0.13944  -0.08128  -0.07341
  Beta virt. eigenvalues --   -0.06476  -0.06045  -0.04050  -0.02006  -0.01756
  Beta virt. eigenvalues --    0.01095   0.03222   0.04344   0.04703   0.07799

 Mulliken charges and spin densities:
               1          2
     1  C   -0.012126   0.657197
     2  C    0.733955   1.127258
     3  H    0.218454  -0.017491
     4  H    0.224473   0.014675
     5  O   -0.164757   1.218361
 Sum of Mulliken charges =   1.00000   3.00000

 Dipole moment (field-independent basis, Debye):
    X=             -2.7056    Y=             -0.4055    Z=              0.0000  Tot=              2.7359
 Quadrupole moment (field-independent basis, Debye-Ang):
   XX=             -8.1637   YY=            -12.6136   ZZ=            -15.3373
   XY=             -1.3273   XZ=             -0.0000   YZ=             -0.0000

 DQ=-151.7928605\CCSD=-151.7953411\CCSD(T)=-151.8142908\S2=3.770865\S2-
 Normal termination of Gaussian 09 at Wed Mar  6 23:17:30 2019.
