 Gaussian 09, Revision E.01,
 Gaussian 09:  EM64L-G09RevE.01 30-Nov-2015

 --------------------------------------
 #p ccsd(t,maxcyc=200)/6-311++G(3df,2p)
 --------------------------------------

 -------------
 ccsd(t) iener
 -------------
 Symbolic Z-matrix:
 Charge =  0 Multiplicity = 1

                         Standard orientation:
 ---------------------------------------------------------------------
 Center     Atomic      Atomic             Coordinates (Angstroms)
 Number     Number       Type             X           Y           Z
 ---------------------------------------------------------------------
      1          6           0        1.180513    0.836873    0.000000
      2          6           0       -0.000000    0.291681   -0.000000
      3          1           0       -0.565490    1.251627   -0.000000
      4          1           0       -1.572565   -0.790067   -0.000000
      5          8           0       -0.618128   -0.904111   -0.000000
 ---------------------------------------------------------------------

 SCF Done:  E(RHF) =  -151.658170206     A.U. after   14 cycles
 E2 =    -0.5176605934D+00 EUMP2 =    -0.15217583079926D+03
 CCSD(T)
 CCSD(T)= -0.15222285193D+03

 The electronic state is 1-A'.
 Alpha  occ. eigenvalues --  -20.63411 -11.31110 -11.28742  -1.44296  -1.06012
 Alpha  occ. eigenvalues --   -0.79953  -0.72763  -0.61929  -0.57398  -0.45701
 Alpha  occ. eigenvalues --   -0.38574
 Alpha virt. eigenvalues --    0.02298   0.05991   0.06463   0.10638   0.11734
 Alpha virt. eigenvalues --    0.13396   0.13415   0.14943   0.17339   0.19286
 Alpha virt. eigenvalues --    0.20406   0.22578   0.24485   0.27864   0.29955

 Mulliken charges:
               1
     1  C   -0.627101
     2  C    0.850459
     3  H    0.137696
     4  H    0.259505
     5  O   -0.620558
 Sum of Mulliken charges =  -0.00000

 Dipole moment (field-independent basis, Debye):
    X=             -3.6940    Y=             -0.3440    Z=             -0.0000  Tot=              3.7100
 Quadrupole moment (field-independent basis, Debye-Ang):
   XX=            -16.5309   YY=            -19.7602   ZZ=            -19.8618
   XY=             -2.7545   XZ=             -0.0000   YZ=              0.0000

 CCSD(T)=-152.2228519\RMSD=8.810e-09\PG=CS [SG(C2H2O1)]\\@
 Normal termination of Gaussian 09 at Wed Mar  6 23:06:42 2019.
