 Gaussian 09, Revision E.01,
 Gaussian 09:  EM64L-G09RevE.01 30-Nov-2015

 --------------------------------------
 #p ccsd(t,maxcyc=200)/6-311++G(3df,2p)
 --------------------------------------

 -------------
 ccsd(t) iener
 -------------
 Symbolic Z-matrix:
 Charge =  1 Multiplicity = 4

                         Standard orientation:
 ---------------------------------------------------------------------
 Center     Atomic      Atomic             Coordinates (Angstroms)
 Number     Number       Type             X           Y           Z
 ---------------------------------------------------------------------
      1          6           0       -1.263181    0.234197   -0.000022
      2          6           0       -0.031489   -0.452534    0.000002
      3          1           0       -2.313181   -0.028982    0.000090
      4          1           0        1.244931    1.021959    0.000038
      5          8           0        1.104533    0.039631   -0.000001
 ---------------------------------------------------------------------

 SCF Done:  E(UHF) =  -151.346130735     A.U. after   18 cycles
 E2 =    -0.4390755533D+00 EUMP2 =    -0.15178520628835D+03
 CCSD(T)
 CCSD(T)= -0.15182883626D+03

 The electronic state is 4-A.
 Alpha  occ. eigenvalues --  -20.93928 -11.69379 -11.59328  -1.78711  -1.36812
 Alpha  occ. eigenvalues --   -1.18109  -1.01372  -0.96260  -0.94150  -0.83329
 Alpha  occ. eigenvalues --   -0.71759  -0.68867
 Alpha virt. eigenvalues --   -0.15379  -0.11360  -0.08625  -0.06075  -0.05337
 Alpha virt. eigenvalues --   -0.02804  -0.02328  -0.01278   0.00229   0.01634
 Alpha virt. eigenvalues --    0.04725   0.05119   0.08027   0.09017   0.13626

  Beta  occ. eigenvalues --  -20.92938 -11.66210 -11.54560  -1.75620  -1.21415
  Beta  occ. eigenvalues --   -1.11801  -0.95560  -0.87340  -0.87253
  Beta virt. eigenvalues --   -0.23680  -0.22988  -0.14935  -0.08022  -0.07065
  Beta virt. eigenvalues --   -0.05141  -0.04855  -0.03094  -0.01580  -0.01000
  Beta virt. eigenvalues --    0.01059   0.03200   0.04855   0.05729   0.07125

 Mulliken charges and spin densities:
               1          2
     1  C   -0.158557   1.941343
     2  C    1.033142   0.996200
     3  H    0.238904  -0.046941
     4  H    0.350172   0.058743
     5  O   -0.463661   0.050655
 Sum of Mulliken charges =   1.00000   3.00000

 Dipole moment (field-independent basis, Debye):
    X=             -1.6370    Y=              1.2028    Z=              0.0001  Tot=              2.0314
 Quadrupole moment (field-independent basis, Debye-Ang):
   XX=             -6.9262   YY=            -12.6277   ZZ=            -15.3366
   XY=              3.0411   XZ=             -0.0001   YZ=              0.0001

 SDQ=-151.8091162\CCSD=-151.8097134\CCSD(T)=-151.8288363\S2=3.766115\S2
 Normal termination of Gaussian 09 at Wed Mar  6 23:14:45 2019.
