 Gaussian 09, Revision E.01,
 Gaussian 09:  EM64L-G09RevE.01 30-Nov-2015

 --------------------------------------
 #p ccsd(t,maxcyc=200)/6-311++G(3df,2p)
 --------------------------------------

 -------------
 ccsd(t) iener
 -------------
 Symbolic Z-matrix:
 Charge =  0 Multiplicity = 3

                         Standard orientation:
 ---------------------------------------------------------------------
 Center     Atomic      Atomic             Coordinates (Angstroms)
 Number     Number       Type             X           Y           Z
 ---------------------------------------------------------------------
      1          6           0        1.177944    0.103823    0.000003
      2          6           0       -0.153041   -0.425773   -0.000042
      3          1           0        2.026250   -0.562683    0.000117
      4          1           0        1.341697    1.178366   -0.000062
      5          8           0       -1.189671    0.164502    0.000022
 ---------------------------------------------------------------------

 SCF Done:  E(UHF) =  -151.729980137     A.U. after   21 cycles
 E2 =    -0.4976038903D+00 EUMP2 =    -0.15222758402740D+03
 CCSD(T)
 CCSD(T)= -0.15227169300D+03

 The electronic state is 3-A.
 Alpha  occ. eigenvalues --  -20.61332 -11.33601 -11.29810  -1.45741  -1.06504
 Alpha  occ. eigenvalues --   -0.78858  -0.69550  -0.68074  -0.62526  -0.59470
 Alpha  occ. eigenvalues --   -0.44091  -0.38120
 Alpha virt. eigenvalues --    0.04139   0.05968   0.09196   0.10947   0.11890
 Alpha virt. eigenvalues --    0.12795   0.13531   0.16366   0.19225   0.19390
 Alpha virt. eigenvalues --    0.19833   0.23688   0.28142   0.30806   0.32131

  Beta  occ. eigenvalues --  -20.58561 -11.32216 -11.27274  -1.39405  -0.95917
  Beta  occ. eigenvalues --   -0.73291  -0.64079  -0.62730  -0.52144  -0.49586
  Beta virt. eigenvalues --    0.02412   0.03690   0.06064   0.08039   0.11538
  Beta virt. eigenvalues --    0.13185   0.13448   0.13771   0.14256   0.18282
  Beta virt. eigenvalues --    0.19760   0.20897   0.25624   0.25716   0.28757

 Mulliken charges and spin densities:
               1          2
     1  C   -0.212094   1.075139
     2  C    0.544421   0.511737
     3  H    0.139585  -0.072979
     4  H    0.140996  -0.008131
     5  O   -0.612908   0.494234
 Sum of Mulliken charges =  -0.00000   2.00000

 Dipole moment (field-independent basis, Debye):
    X=              3.0825    Y=              0.1110    Z=             -0.0000  Tot=              3.0845
 Quadrupole moment (field-independent basis, Debye-Ang):
   XX=            -17.7802   YY=            -17.4423   ZZ=            -17.6425
   XY=              0.4282   XZ=              0.0002   YZ=             -0.0002

 2.2489381\CCSD=-152.248409\CCSD(T)=-152.271693\S2=2.05458\S2-1=2.02634
 Normal termination of Gaussian 09 at Wed Mar  6 23:13:56 2019.
