 Gaussian 09, Revision E.01,
 Gaussian 09:  EM64L-G09RevE.01 30-Nov-2015

 --------------------------------------
 #p ccsd(t,maxcyc=200)/6-311++G(3df,2p)
 --------------------------------------

 -------------
 ccsd(t) iener
 -------------
 Symbolic Z-matrix:
 Charge =  1 Multiplicity = 4

                         Standard orientation:
 ---------------------------------------------------------------------
 Center     Atomic      Atomic             Coordinates (Angstroms)
 Number     Number       Type             X           Y           Z
 ---------------------------------------------------------------------
      1          6           0       -0.061037    0.374816   -0.000121
      2          6           0        1.262133   -0.047141    0.000030
      3          1           0        1.823510   -0.974650    0.000038
      4          1           0       -0.286366    1.472827    0.000266
      5          8           0       -1.092965   -0.308028    0.000030
 ---------------------------------------------------------------------

 SCF Done:  E(UHF) =  -151.377401807     A.U. after   20 cycles
 E2 =    -0.4197881380D+00 EUMP2 =    -0.15179718994532D+03
 CCSD(T)
 CCSD(T)= -0.15185276570D+03

 The electronic state is 4-A.
 Alpha  occ. eigenvalues --  -21.02735 -11.65950 -11.59304  -1.84666  -1.37124
 Alpha  occ. eigenvalues --   -1.14881  -1.07602  -1.00801  -0.99696  -0.87106
 Alpha  occ. eigenvalues --   -0.75268  -0.73090
 Alpha virt. eigenvalues --   -0.14428  -0.10670  -0.08773  -0.06285  -0.05619
 Alpha virt. eigenvalues --   -0.03146  -0.02134   0.00047   0.00332   0.02557
 Alpha virt. eigenvalues --    0.04477   0.04851   0.07206   0.09681   0.13415

  Beta  occ. eigenvalues --  -20.97068 -11.66600 -11.54562  -1.69085  -1.22939
  Beta  occ. eigenvalues --   -1.04148  -0.97026  -0.90507  -0.85901
  Beta virt. eigenvalues --   -0.24435  -0.23324  -0.16162  -0.10204  -0.08245
  Beta virt. eigenvalues --   -0.06611  -0.04765  -0.04448  -0.01750  -0.00078
  Beta virt. eigenvalues --    0.00690   0.03434   0.03708   0.04852   0.06993

 Mulliken charges and spin densities:
               1          2
     1  C    0.800049  -0.306445
     2  C   -0.123578   1.975095
     3  H    0.259168  -0.047685
     4  H    0.252082   0.125803
     5  O   -0.187721   1.253232
 Sum of Mulliken charges =   1.00000   3.00000

 Dipole moment (field-independent basis, Debye):
    X=              1.5422    Y=              0.9153    Z=              0.0000  Tot=              1.7933
 Quadrupole moment (field-independent basis, Debye-Ang):
   XX=            -10.1443   YY=            -11.0134   ZZ=            -15.3161
   XY=             -2.8334   XZ=              0.0000   YZ=              0.0005

 =-151.8309783\CCSD=-151.8342789\CCSD(T)=-151.8527657\S2=3.812561\S2-1=
 Normal termination of Gaussian 09 at Wed Mar  6 23:30:08 2019.
