 Gaussian 09, Revision E.01,
 Gaussian 09:  EM64L-G09RevE.01 30-Nov-2015

 --------------------------------------
 #p ccsd(t,maxcyc=200)/6-311++G(3df,2p)
 --------------------------------------

 -------------
 ccsd(t) iener
 -------------
 Symbolic Z-matrix:
 Charge =  1 Multiplicity = 4

                         Standard orientation:
 ---------------------------------------------------------------------
 Center     Atomic      Atomic             Coordinates (Angstroms)
 Number     Number       Type             X           Y           Z
 ---------------------------------------------------------------------
      1          6           0       -1.903368   -0.333680   -0.044811
      2          6           0       -0.792895    0.086302    0.070761
      3          6           0        1.563700   -0.468964   -0.179961
      4          1           0        0.677887    1.419706   -0.151603
      5          1           0        2.087672   -0.891770    0.678206
      6          8           0        0.503727    0.471265    0.049682
 ---------------------------------------------------------------------

 SCF Done:  E(UHF) =  -189.055881673     A.U. after   23 cycles
 E2 =    -0.5569726779D+00 EUMP2 =    -0.18961285435077D+03
 CCSD(T)
 CCSD(T)= -0.18968437878D+03

 The electronic state is 4-A.
 Alpha  occ. eigenvalues --  -21.01204 -11.60849 -11.53500 -11.52164  -1.81680
 Alpha  occ. eigenvalues --   -1.30754  -1.26209  -1.16294  -1.00806  -0.98411
 Alpha  occ. eigenvalues --   -0.83362  -0.76175  -0.71024  -0.67490  -0.66651
 Alpha virt. eigenvalues --   -0.13605  -0.08395  -0.06910  -0.05066  -0.03509
 Alpha virt. eigenvalues --   -0.02934  -0.01647  -0.01116  -0.01037  -0.00263
 Alpha virt. eigenvalues --    0.00736   0.02750   0.03068   0.04678   0.05870

  Beta  occ. eigenvalues --  -21.00846 -11.55211 -11.54013 -11.47463  -1.80419
  Beta  occ. eigenvalues --   -1.27910  -1.17304  -1.11850  -0.98178  -0.91808
  Beta  occ. eigenvalues --   -0.66492  -0.64194
  Beta virt. eigenvalues --   -0.17149  -0.16093  -0.12677  -0.12025  -0.07564
  Beta virt. eigenvalues --   -0.05365  -0.02883  -0.02107  -0.01401  -0.00521
  Beta virt. eigenvalues --    0.00132   0.00947   0.02143   0.02637   0.03753

 Mulliken charges and spin densities:
               1          2
     1  C    0.094860   2.314283
     2  C    0.417773  -1.329689
     3  C    0.251405   2.025755
     4  H    0.374680  -0.000132
     5  H    0.233048   0.013285
     6  O   -0.371766  -0.023501
 Sum of Mulliken charges =   1.00000   3.00000

 Dipole moment (field-independent basis, Debye):
    X=              2.6881    Y=              1.4770    Z=              0.0816  Tot=              3.0682
 Quadrupole moment (field-independent basis, Debye-Ang):
   XX=             -9.1412   YY=            -15.3644   ZZ=            -21.0434
   XY=              0.8228   XZ=              1.1598   YZ=             -1.1952

 Normal termination of Gaussian 09 at Thu Mar  7 00:10:38 2019.
