 Gaussian 09, Revision E.01,
 Gaussian 09:  EM64L-G09RevE.01 30-Nov-2015

 --------------------------------------
 #p ccsd(t,maxcyc=200)/6-311++G(3df,2p)
 --------------------------------------

 -------------
 ccsd(t) iener
 -------------
 Symbolic Z-matrix:
 Charge =  0 Multiplicity = 1

                         Standard orientation:
 ---------------------------------------------------------------------
 Center     Atomic      Atomic             Coordinates (Angstroms)
 Number     Number       Type             X           Y           Z
 ---------------------------------------------------------------------
      1          6           0        0.806255    0.095617    0.000039
      2          6           0        2.022919   -0.248974   -0.000049
      3          6           0       -0.468298    0.499301    0.000088
      4          1           0       -1.227386   -1.223849    0.000226
      5          1           0       -0.766890    1.543107   -0.000158
      6          8           0       -1.521372   -0.299365   -0.000067
 ---------------------------------------------------------------------

 SCF Done:  E(RHF) =  -189.538930400     A.U. after   16 cycles
 E2 =    -0.6721237228D+00 EUMP2 =    -0.19021105412327D+03
 CCSD(T)
 CCSD(T)= -0.19026335162D+03

 The electronic state is 1-A.
 Alpha  occ. eigenvalues --  -20.66578 -11.40297 -11.27058 -11.21528  -1.48945
 Alpha  occ. eigenvalues --   -1.07968  -0.95365  -0.83878  -0.72901  -0.64729
 Alpha  occ. eigenvalues --   -0.62967  -0.44295  -0.41239  -0.39505
 Alpha virt. eigenvalues --    0.02193   0.03569   0.04541   0.09332   0.09966
 Alpha virt. eigenvalues --    0.11893   0.12523   0.13382   0.15837   0.15982
 Alpha virt. eigenvalues --    0.16866   0.17342   0.18776   0.22163   0.23235

 Mulliken charges:
               1
     1  C    0.583962
     2  C   -0.504192
     3  C    0.077004
     4  H    0.279412
     5  H    0.196976
     6  O   -0.633161
 Sum of Mulliken charges =  -0.00000

 Dipole moment (field-independent basis, Debye):
    X=             -4.1072    Y=              0.4305    Z=              0.0006  Tot=              4.1297
 Quadrupole moment (field-independent basis, Debye-Ang):
   XX=            -33.9560   YY=            -19.5623   ZZ=            -23.8746
   XY=              1.7315   XZ=             -0.0004   YZ=             -0.0010

 1\CCSD(T)=-190.2633516\RMSD=8.603e-09\PG=C01 [X(C3H2O1)]\\@
 Normal termination of Gaussian 09 at Wed Mar  6 23:36:10 2019.
