 Gaussian 09, Revision E.01,
 Gaussian 09:  EM64L-G09RevE.01 30-Nov-2015

 --------------------------------------
 #p ccsd(t,maxcyc=200)/6-311++G(3df,2p)
 --------------------------------------

 -------------
 ccsd(t) iener
 -------------
 Symbolic Z-matrix:
 Charge =  0 Multiplicity = 3

                         Standard orientation:
 ---------------------------------------------------------------------
 Center     Atomic      Atomic             Coordinates (Angstroms)
 Number     Number       Type             X           Y           Z
 ---------------------------------------------------------------------
      1          6           0       -0.144394   -0.146335   -0.011434
      2          6           0        0.957665   -0.834271    0.029845
      3          6           0        1.149174    0.603709   -0.133940
      4          1           0       -1.694245    0.910987   -0.169420
      5          1           0        1.511614    1.352585    0.575890
      6          8           0       -1.449005   -0.000274    0.035838
 ---------------------------------------------------------------------

 SCF Done:  E(UHF) =  -189.474323211     A.U. after   25 cycles
 E2 =    -0.6488388077D+00 EUMP2 =    -0.19012316201882D+03
 CCSD(T)
 CCSD(T)= -0.19017883483D+03

 The electronic state is 3-A.
 Alpha  occ. eigenvalues --  -20.64326 -11.34019 -11.27749 -11.27572  -1.46111
 Alpha  occ. eigenvalues --   -1.20055  -0.86533  -0.80661  -0.70492  -0.63533
 Alpha  occ. eigenvalues --   -0.62047  -0.56286  -0.49501  -0.40790  -0.31159
 Alpha virt. eigenvalues --    0.03366   0.05890   0.08655   0.10500   0.11855
 Alpha virt. eigenvalues --    0.13085   0.13649   0.14112   0.14914   0.16701
 Alpha virt. eigenvalues --    0.17679   0.20736   0.21087   0.21539   0.22696

  Beta  occ. eigenvalues --  -20.64464 -11.34451 -11.24829 -11.24394  -1.46390
  Beta  occ. eigenvalues --   -1.15814  -0.85092  -0.73449  -0.68717  -0.63757
  Beta  occ. eigenvalues --   -0.52044  -0.48141  -0.39949
  Beta virt. eigenvalues --    0.02676   0.04672   0.06087   0.08979   0.10602
  Beta virt. eigenvalues --    0.11151   0.12927   0.13494   0.14028   0.15727
  Beta virt. eigenvalues --    0.16660   0.17869   0.19107   0.21715   0.22632

 Mulliken charges and spin densities:
               1          2
     1  C    0.673525  -0.483196
     2  C   -0.174257   1.372243
     3  C   -0.258103   1.096592
     4  H    0.284294   0.000335
     5  H    0.119616   0.040771
     6  O   -0.645075  -0.026745
 Sum of Mulliken charges =  -0.00000   2.00000

 Dipole moment (field-independent basis, Debye):
    X=             -1.4727    Y=              1.9936    Z=              0.3649  Tot=              2.5053
 Quadrupole moment (field-independent basis, Debye-Ang):
   XX=            -23.4043   YY=            -21.7266   ZZ=            -24.3723
   XY=             -2.5369   XZ=              1.8944   YZ=              0.4854

 Normal termination of Gaussian 09 at Thu Mar  7 00:01:37 2019.
