 Gaussian 09, Revision E.01,
 Gaussian 09:  EM64L-G09RevE.01 30-Nov-2015

 --------------------------------------
 #p ccsd(t,maxcyc=200)/6-311++G(3df,2p)
 --------------------------------------

 -------------
 ccsd(t) iener
 -------------
 Symbolic Z-matrix:
 Charge =  0 Multiplicity = 1

                         Standard orientation:
 ---------------------------------------------------------------------
 Center     Atomic      Atomic             Coordinates (Angstroms)
 Number     Number       Type             X           Y           Z
 ---------------------------------------------------------------------
      1          6           0       -1.846964    0.153064   -0.000012
      2          6           0        0.642186   -0.637689   -0.000007
      3          6           0       -0.666614   -0.116107    0.000036
      4          1           0        1.293765    1.182922    0.000046
      5          1           0       -2.884474    0.383705   -0.000047
      6          8           0        1.602383    0.254721   -0.000013
 ---------------------------------------------------------------------

 SCF Done:  E(RHF) =  -189.532410715     A.U. after   17 cycles
 E2 =    -0.6738440992D+00 EUMP2 =    -0.19020625481369D+03
 CCSD(T)
 CCSD(T)= -0.19025752961D+03

 The electronic state is 1-A.
 Alpha  occ. eigenvalues --  -20.64498 -11.32671 -11.27607 -11.25561  -1.45886
 Alpha  occ. eigenvalues --   -1.07407  -0.92641  -0.80736  -0.73483  -0.63555
 Alpha  occ. eigenvalues --   -0.60607  -0.45901  -0.43749  -0.36117
 Alpha virt. eigenvalues --    0.03182   0.04967   0.04977   0.09587   0.10624
 Alpha virt. eigenvalues --    0.11305   0.11566   0.13971   0.15865   0.15978
 Alpha virt. eigenvalues --    0.16490   0.18053   0.18658   0.22498   0.24247

 Mulliken charges:
               1
     1  C    0.497760
     2  C   -0.432719
     3  C   -0.074656
     4  H    0.246466
     5  H    0.327595
     6  O   -0.564446
 Sum of Mulliken charges =  -0.00000

 Dipole moment (field-independent basis, Debye):
    X=             -2.1287    Y=              2.9923    Z=              0.0001  Tot=              3.6722
 Quadrupole moment (field-independent basis, Debye-Ang):
   XX=            -19.4252   YY=            -24.7135   ZZ=            -23.7876
   XY=              1.9825   XZ=              0.0004   YZ=             -0.0000

 \CCSD(T)=-190.2575296\RMSD=8.246e-09\PG=C01 [X(C3H2O1)]\\@
 Normal termination of Gaussian 09 at Wed Mar  6 23:36:40 2019.
