 Gaussian 09, Revision E.01,
 Gaussian 09:  EM64L-G09RevE.01 30-Nov-2015

 --------------------------------------
 #p ccsd(t,maxcyc=200)/6-311++G(3df,2p)
 --------------------------------------

 -------------
 ccsd(t) iener
 -------------
 Symbolic Z-matrix:
 Charge =  1 Multiplicity = 2

                         Standard orientation:
 ---------------------------------------------------------------------
 Center     Atomic      Atomic             Coordinates (Angstroms)
 Number     Number       Type             X           Y           Z
 ---------------------------------------------------------------------
      1          6           0       -0.365982   -0.938965    0.052586
      2          6           0        0.956719    0.640374    0.007037
      3          8           0        0.976209   -0.683601   -0.040630
      4          6           0       -0.421922    0.970464   -0.019441
      5          6           0       -1.372540    0.046524   -0.000726
      6          1           0        1.855761    1.226124    0.128618
      7          1           0       -2.443089   -0.067693   -0.040319
 ---------------------------------------------------------------------

 SCF Done:  E(UHF) =  -227.008473778     A.U. after   43 cycles
 E2 =    -0.8353889691D+00 EUMP2 =    -0.22784386274747D+03
 CCSD(T)
 CCSD(T)= -0.22790851040D+03

 The electronic state is 2-A.
 Alpha  occ. eigenvalues --  -20.92405 -11.64070 -11.62124 -11.59338 -11.57060
 Alpha  occ. eigenvalues --   -1.77935  -1.43346  -1.28255  -1.09853  -1.02519
 Alpha  occ. eigenvalues --   -0.98540  -0.95089  -0.92157  -0.85106  -0.71484
 Alpha  occ. eigenvalues --   -0.65315  -0.60529
 Alpha virt. eigenvalues --   -0.24145  -0.15271  -0.09373  -0.07376  -0.06871
 Alpha virt. eigenvalues --   -0.04814  -0.04564  -0.04025  -0.02935  -0.01332
 Alpha virt. eigenvalues --   -0.00694   0.00592   0.02426   0.02678   0.03203

  Beta  occ. eigenvalues --  -20.92773 -11.63286 -11.60379 -11.59424 -11.56918
  Beta  occ. eigenvalues --   -1.77516  -1.42629  -1.22845  -1.09146  -1.01119
  Beta  occ. eigenvalues --   -0.97633  -0.92058  -0.90624  -0.84912  -0.70348
  Beta  occ. eigenvalues --   -0.61063
  Beta virt. eigenvalues --   -0.23653  -0.23206  -0.09392  -0.08083  -0.07315
  Beta virt. eigenvalues --   -0.04804  -0.04288  -0.03742  -0.02812  -0.01354
  Beta virt. eigenvalues --   -0.01210   0.00454   0.01528   0.02606   0.02738

 Mulliken charges and spin densities:
               1          2
     1  C    0.158895   0.339364
     2  C    0.288197   0.764760
     3  O   -0.611912  -0.097831
     4  C    0.314458  -0.094010
     5  C    0.272402   0.153136
     6  H    0.265605  -0.055633
     7  H    0.312354  -0.009786
 Sum of Mulliken charges =   1.00000   1.00000

 Dipole moment (field-independent basis, Debye):
    X=             -0.8052    Y=              2.0702    Z=              0.0850  Tot=              2.2229
 Quadrupole moment (field-independent basis, Debye-Ang):
   XX=            -14.1971   YY=            -23.1725   ZZ=            -26.4273
   XY=              3.4108   XZ=              0.4765   YZ=             -0.0983

 .8503946\CCSD=-227.8514935\CCSD(T)=-227.9085104\S2=0.832906\S2-1=0.803
 Normal termination of Gaussian 09 at Thu Mar  7 03:30:16 2019.
