 Gaussian 09, Revision E.01,
 Gaussian 09:  EM64L-G09RevE.01 30-Nov-2015

 --------------------------------------
 #p ccsd(t,maxcyc=200)/6-311++G(3df,2p)
 --------------------------------------

 -------------
 ccsd(t) iener
 -------------
 Symbolic Z-matrix:
 Charge =  1 Multiplicity = 4

                         Standard orientation:
 ---------------------------------------------------------------------
 Center     Atomic      Atomic             Coordinates (Angstroms)
 Number     Number       Type             X           Y           Z
 ---------------------------------------------------------------------
      1          6           0        1.253066    0.384631    0.000029
      2          6           0       -1.318081   -0.016491   -0.000068
      3          6           0       -2.567022   -0.057089    0.000077
      4          6           0       -0.036359   -0.067779   -0.000168
      5          1           0       -3.637331   -0.081151    0.000224
      6          1           0        1.522259    1.463879    0.000054
      7          8           0        2.265681   -0.355295    0.000062
 ---------------------------------------------------------------------

 SCF Done:  E(UHF) =  -227.115974967     A.U. after   22 cycles
 E2 =    -0.6874177905D+00 EUMP2 =    -0.22780339275762D+03
 CCSD(T)
 CCSD(T)= -0.22789712703D+03

 The electronic state is 4-A.
 Alpha  occ. eigenvalues --  -20.98479 -11.63419 -11.53699 -11.50139 -11.47540
 Alpha  occ. eigenvalues --   -1.80059  -1.36247  -1.27799  -1.13894  -1.07811
 Alpha  occ. eigenvalues --   -1.00288  -0.95644  -0.93147  -0.87559  -0.74070
 Alpha  occ. eigenvalues --   -0.73694  -0.62181  -0.61332
 Alpha virt. eigenvalues --   -0.15161  -0.09474  -0.06811  -0.05319  -0.04227
 Alpha virt. eigenvalues --   -0.04185  -0.02007  -0.01490   0.00017   0.00602
 Alpha virt. eigenvalues --    0.02339   0.02987   0.03509   0.04574   0.05009

  Beta  occ. eigenvalues --  -20.93026 -11.63912 -11.50414 -11.49847 -11.46740
  Beta  occ. eigenvalues --   -1.64759  -1.31062  -1.19012  -1.07389  -0.96730
  Beta  occ. eigenvalues --   -0.92734  -0.90570  -0.82998  -0.67095  -0.66995
  Beta virt. eigenvalues --   -0.21930  -0.19243  -0.14302  -0.08792  -0.07368
  Beta virt. eigenvalues --   -0.06541  -0.05191  -0.03675  -0.03144  -0.01800
  Beta virt. eigenvalues --   -0.01221   0.01283   0.01895   0.03775   0.05244

 Mulliken charges and spin densities:
               1          2
     1  C    0.296231  -0.318670
     2  C   -0.154684  -0.888336
     3  C    0.208078   1.422936
     4  C    0.269479   1.525830
     5  H    0.364053  -0.095361
     6  H    0.252495   0.120750
     7  O   -0.235653   1.232852
 Sum of Mulliken charges =   1.00000   3.00000

 Dipole moment (field-independent basis, Debye):
    X=             -0.5662    Y=              1.7474    Z=              0.0003  Tot=              1.8368
 Quadrupole moment (field-independent basis, Debye-Ang):
   XX=             -0.6999   YY=            -23.6729   ZZ=            -26.3380
   XY=              3.5815   XZ=             -0.0008   YZ=              0.0001

 7.8492532\CCSD=-227.8590172\CCSD(T)=-227.897127\S2=4.139454\S2-1=4.004
 Normal termination of Gaussian 09 at Thu Mar  7 02:32:59 2019.
