 Gaussian 09, Revision E.01,
 Gaussian 09:  EM64L-G09RevE.01 30-Nov-2015

 --------------------------------------
 #p ccsd(t,maxcyc=200)/6-311++G(3df,2p)
 --------------------------------------

 -------------
 ccsd(t) iener
 -------------
 Symbolic Z-matrix:
 Charge =  0 Multiplicity = 1

                         Standard orientation:
 ---------------------------------------------------------------------
 Center     Atomic      Atomic             Coordinates (Angstroms)
 Number     Number       Type             X           Y           Z
 ---------------------------------------------------------------------
      1          6           0        1.082546    0.501409    0.000077
      2          6           0       -2.724643   -0.251556    0.000042
      3          6           0       -0.204695    0.248831   -0.000055
      4          6           0       -1.466329    0.013181   -0.000048
      5          1           0        1.736753   -1.308740    0.000203
      6          1           0        1.436082    1.524541    0.000032
      7          8           0        2.088237   -0.410874   -0.000041
 ---------------------------------------------------------------------

 SCF Done:  E(RHF) =  -227.360820553     A.U. after   17 cycles
 E2 =    -0.8129854122D+00 EUMP2 =    -0.22817380596549D+03
 CCSD(T)
 CCSD(T)= -0.22824055616D+03

 The electronic state is 1-A.
 Alpha  occ. eigenvalues --  -20.63976 -11.36009 -11.32380 -11.29372 -11.25209
 Alpha  occ. eigenvalues --   -1.45137  -1.12127  -1.02596  -0.89795  -0.81451
 Alpha  occ. eigenvalues --   -0.70292  -0.63177  -0.61356  -0.49975  -0.46210
 Alpha  occ. eigenvalues --   -0.44937  -0.34383
 Alpha virt. eigenvalues --   -0.00168   0.03916   0.04419   0.07392   0.09260
 Alpha virt. eigenvalues --    0.10939   0.11095   0.12308   0.12737   0.13393
 Alpha virt. eigenvalues --    0.14903   0.16977   0.17918   0.19454   0.19940

 Mulliken charges:
               1
     1  C    0.238882
     2  C   -0.692072
     3  C    0.051130
     4  C    0.626434
     5  H    0.253549
     6  H    0.193000
     7  O   -0.670923
 Sum of Mulliken charges =  -0.00000

 Dipole moment (field-independent basis, Debye):
    X=              3.7337    Y=              0.1636    Z=              0.0004  Tot=              3.7372
 Quadrupole moment (field-independent basis, Debye-Ang):
   XX=            -42.6346   YY=            -23.5880   ZZ=            -31.2643
   XY=             -1.6928   XZ=              0.0011   YZ=             -0.0006

 -228.1951798\CCSD=-228.1934076\CCSD(T)=-228.2405562\RMSD=7.705e-09\PG=
 Normal termination of Gaussian 09 at Thu Mar  7 00:09:13 2019.
