 Gaussian 09, Revision E.01,
 Gaussian 09:  EM64L-G09RevE.01 30-Nov-2015

 --------------------------------------
 #p ccsd(t,maxcyc=200)/6-311++G(3df,2p)
 --------------------------------------

 -------------
 ccsd(t) iener
 -------------
 Symbolic Z-matrix:
 Charge =  1 Multiplicity = 2

                         Standard orientation:
 ---------------------------------------------------------------------
 Center     Atomic      Atomic             Coordinates (Angstroms)
 Number     Number       Type             X           Y           Z
 ---------------------------------------------------------------------
      1          6           0       -0.000000   -1.092952    0.245229
      2          6           0        0.000000    1.092952    0.245229
      3          8           0       -0.000000   -0.000000    1.064342
      4          6           0        0.000000    0.620539   -1.074429
      5          6           0       -0.000000   -0.620539   -1.074429
      6          1           0       -0.000000   -2.063838    0.717833
      7          1           0        0.000000    2.063838    0.717833
 ---------------------------------------------------------------------

 SCF Done:  E(UHF) =  -227.030593190     A.U. after   18 cycles
 E2 =    -0.8242706029D+00 EUMP2 =    -0.22785486379276D+03
 CCSD(T)
 CCSD(T)= -0.22791551428D+03

 The electronic state is 2-A2.
 Alpha  occ. eigenvalues --  -20.90595 -11.63587 -11.63582 -11.53916 -11.53600
 Alpha  occ. eigenvalues --   -1.74869  -1.39784  -1.29980  -1.09127  -1.03430
 Alpha  occ. eigenvalues --   -0.98301  -0.92996  -0.88758  -0.83744  -0.68745
 Alpha  occ. eigenvalues --   -0.64806  -0.64790
 Alpha virt. eigenvalues --   -0.25024  -0.17310  -0.09169  -0.07297  -0.04971
 Alpha virt. eigenvalues --   -0.04816  -0.04238  -0.02828  -0.02009  -0.01522
 Alpha virt. eigenvalues --   -0.00836   0.00603   0.02487   0.03336   0.03916

  Beta  occ. eigenvalues --  -20.91264 -11.62088 -11.62087 -11.54110 -11.53779
  Beta  occ. eigenvalues --   -1.74866  -1.39476  -1.24425  -1.06486  -1.02447
  Beta  occ. eigenvalues --   -0.98230  -0.89315  -0.88172  -0.83651  -0.69569
  Beta  occ. eigenvalues --   -0.65412
  Beta virt. eigenvalues --   -0.24389  -0.23569  -0.09027  -0.08742  -0.07201
  Beta virt. eigenvalues --   -0.04644  -0.04060  -0.02783  -0.02775  -0.01331
  Beta virt. eigenvalues --   -0.00178   0.00986   0.01534   0.02542   0.03425

 Mulliken charges and spin densities:
               1          2
     1  C    0.276389   0.676846
     2  C    0.276389   0.676846
     3  O   -0.623478  -0.163318
     4  C    0.278953  -0.053028
     5  C    0.278953  -0.053028
     6  H    0.256397  -0.042160
     7  H    0.256397  -0.042160
 Sum of Mulliken charges =   1.00000   1.00000

 Dipole moment (field-independent basis, Debye):
    X=              0.0000    Y=             -0.0000    Z=              0.0720  Tot=              0.0720
 Quadrupole moment (field-independent basis, Debye-Ang):
   XX=            -26.3094   YY=            -12.8570   ZZ=            -24.2343
   XY=              0.0000   XZ=              0.0000   YZ=              0.0000

 9\CCSD=-227.8639151\CCSD(T)=-227.9155143\S2=0.818321\S2-1=0.783635\S2A
 Normal termination of Gaussian 09 at Thu Mar  7 00:58:46 2019.
