 Gaussian 09, Revision E.01,
 Gaussian 09:  EM64L-G09RevE.01 30-Nov-2015

 --------------------------------------
 #p ccsd(t,maxcyc=200)/6-311++G(3df,2p)
 --------------------------------------

 -------------
 ccsd(t) iener
 -------------
 Symbolic Z-matrix:
 Charge =  1 Multiplicity = 2

                         Standard orientation:
 ---------------------------------------------------------------------
 Center     Atomic      Atomic             Coordinates (Angstroms)
 Number     Number       Type             X           Y           Z
 ---------------------------------------------------------------------
      1          6           0        0.135291    1.033495   -0.000588
      2          6           0        0.495586   -1.032122   -0.000120
      3          8           0        1.167975    0.110021    0.000400
      4          6           0       -0.759702   -0.976613   -0.000286
      5          6           0       -1.145129    0.344071    0.000384
      6          1           0        0.412001    2.081545   -0.000238
      7          1           0       -2.112074    0.825300    0.000698
 ---------------------------------------------------------------------

 SCF Done:  E(UHF) =  -226.993447976     A.U. after   51 cycles
 E2 =    -0.8239814170D+00 EUMP2 =    -0.22781742939298D+03
 CCSD(T)
 CCSD(T)= -0.22788863827D+03

 The electronic state is 2-A.
 Alpha  occ. eigenvalues --  -20.92089 -11.61944 -11.61056 -11.57628 -11.54302
 Alpha  occ. eigenvalues --   -1.75796  -1.40343  -1.29077  -1.10162  -1.01984
 Alpha  occ. eigenvalues --   -0.97621  -0.94056  -0.88306  -0.84427  -0.69809
 Alpha  occ. eigenvalues --   -0.65173  -0.64578
 Alpha virt. eigenvalues --   -0.27537  -0.15730  -0.09543  -0.06916  -0.05704
 Alpha virt. eigenvalues --   -0.05132  -0.03054  -0.02770  -0.02595  -0.01854
 Alpha virt. eigenvalues --   -0.00479   0.00391   0.01901   0.02763   0.03958

  Beta  occ. eigenvalues --  -20.92501 -11.60354 -11.60184 -11.57723 -11.54142
  Beta  occ. eigenvalues --   -1.75566  -1.39278  -1.23917  -1.09231  -1.00952
  Beta  occ. eigenvalues --   -0.96806  -0.89922  -0.88234  -0.84251  -0.67700
  Beta  occ. eigenvalues --   -0.63450
  Beta virt. eigenvalues --   -0.26559  -0.25215  -0.09432  -0.08007  -0.06831
  Beta virt. eigenvalues --   -0.05588  -0.03819  -0.02758  -0.02510  -0.01696
  Beta virt. eigenvalues --    0.00168   0.00504   0.01885   0.01946   0.02863

 Mulliken charges and spin densities:
               1          2
     1  C    0.191040   0.768356
     2  C    0.255636   0.323789
     3  O   -0.645777  -0.108743
     4  C    0.562966   0.111355
     5  C    0.145010  -0.044802
     6  H    0.237150  -0.042157
     7  H    0.253974  -0.007798
 Sum of Mulliken charges =   1.00000   1.00000

 Dipole moment (field-independent basis, Debye):
    X=             -1.9317    Y=              1.8132    Z=             -0.0006  Tot=              2.6494
 Quadrupole moment (field-independent basis, Debye-Ang):
   XX=            -20.3355   YY=            -17.3826   ZZ=            -26.3758
   XY=             -1.3549   XZ=             -0.0040   YZ=              0.0001

 27.8317656\CCSD=-227.8356659\CCSD(T)=-227.8886383\S2=0.799885\S2-1=0.7
 Normal termination of Gaussian 09 at Thu Mar  7 04:22:57 2019.
