 Gaussian 09, Revision E.01,
 Gaussian 09:  EM64L-G09RevE.01 30-Nov-2015

 --------------------------------------
 #p ccsd(t,maxcyc=200)/6-311++G(3df,2p)
 --------------------------------------

 -------------
 ccsd(t) iener
 -------------
 Symbolic Z-matrix:
 Charge =  1 Multiplicity = 2

                         Standard orientation:
 ---------------------------------------------------------------------
 Center     Atomic      Atomic             Coordinates (Angstroms)
 Number     Number       Type             X           Y           Z
 ---------------------------------------------------------------------
      1          6           0       -1.169845    0.062218    0.000015
      2          6           0        1.202455    0.123250   -0.000005
      3          6           0        0.006303    0.779291   -0.000001
      4          6           0        2.286179   -0.439980   -0.000024
      5          1           0        3.237115   -0.930945    0.000119
      6          1           0       -0.085177    1.863836    0.000015
      7          8           0       -2.137811   -0.510195   -0.000005
 ---------------------------------------------------------------------

 SCF Done:  E(UHF) =  -227.196416976     A.U. after   28 cycles
 E2 =    -0.7706156359D+00 EUMP2 =    -0.22796703261223D+03
 CCSD(T)
 CCSD(T)= -0.22803371755D+03

 The electronic state is 2-A.
 Alpha  occ. eigenvalues --  -20.94149 -11.67536 -11.55780 -11.50647 -11.48985
 Alpha  occ. eigenvalues --   -1.79257  -1.38234  -1.27849  -1.06822  -1.01135
 Alpha  occ. eigenvalues --   -0.95262  -0.94521  -0.93453  -0.87086  -0.74647
 Alpha  occ. eigenvalues --   -0.65411  -0.62730
 Alpha virt. eigenvalues --   -0.12964  -0.10277  -0.09953  -0.07167  -0.06003
 Alpha virt. eigenvalues --   -0.04798  -0.04340  -0.02801  -0.01589  -0.01256
 Alpha virt. eigenvalues --   -0.00045   0.00308   0.01265   0.01789   0.02780

  Beta  occ. eigenvalues --  -20.92993 -11.67972 -11.54422 -11.50483 -11.48351
  Beta  occ. eigenvalues --   -1.77163  -1.35964  -1.22512  -1.05670  -0.99964
  Beta  occ. eigenvalues --   -0.94796  -0.92037  -0.88303  -0.85892  -0.66215
  Beta  occ. eigenvalues --   -0.64583
  Beta virt. eigenvalues --   -0.23504  -0.12658  -0.09842  -0.07192  -0.06138
  Beta virt. eigenvalues --   -0.05940  -0.04472  -0.03530  -0.03032  -0.01134
  Beta virt. eigenvalues --   -0.00760   0.00069   0.01556   0.02350   0.02404

 Mulliken charges and spin densities:
               1          2
     1  C    0.883305  -0.189622
     2  C   -0.275069  -0.618878
     3  C   -0.133129   0.774096
     4  C    0.484941   0.919737
     5  H    0.376601  -0.064724
     6  H    0.207816  -0.053147
     7  O   -0.544465   0.232539
 Sum of Mulliken charges =   1.00000   1.00000

 Dipole moment (field-independent basis, Debye):
    X=              1.6535    Y=              1.0095    Z=              0.0002  Tot=              1.9374
 Quadrupole moment (field-independent basis, Debye-Ang):
   XX=             -8.6171   YY=            -21.0277   ZZ=            -26.2801
   XY=             -5.1520   XZ=              0.0003   YZ=             -0.0001

 227.9898968\CCSD=-227.9914281\CCSD(T)=-228.0337176\S2=0.943701\S2-1=0.
 Normal termination of Gaussian 09 at Thu Mar  7 02:28:08 2019.
