 Gaussian 09, Revision E.01,
 Gaussian 09:  EM64L-G09RevE.01 30-Nov-2015

 --------------------------------------
 #p ccsd(t,maxcyc=200)/6-311++G(3df,2p)
 --------------------------------------

 -------------
 ccsd(t) iener
 -------------
 Symbolic Z-matrix:
 Charge =  1 Multiplicity = 2

                         Standard orientation:
 ---------------------------------------------------------------------
 Center     Atomic      Atomic             Coordinates (Angstroms)
 Number     Number       Type             X           Y           Z
 ---------------------------------------------------------------------
      1          6           0       -1.122793    0.214695    0.418412
      2          6           0        1.592430    0.475798   -0.241120
      3          6           0        1.459746   -0.811651    0.107403
      4          6           0        0.370245   -0.016133    0.229240
      5          1           0        2.125188    1.342963   -0.609999
      6          1           0       -1.445764    0.690674    1.353709
      7          8           0       -1.809649   -0.151236   -0.478415
 ---------------------------------------------------------------------

 SCF Done:  E(UHF) =  -227.117870056     A.U. after   32 cycles
 E2 =    -0.7625830942D+00 EUMP2 =    -0.22788045314985D+03
 CCSD(T)
 CCSD(T)= -0.22794467203D+03

 The electronic state is 2-A.
 Alpha  occ. eigenvalues --  -20.80344 -11.61663 -11.59604 -11.59221 -11.57390
 Alpha  occ. eigenvalues --   -1.65104  -1.54306  -1.16566  -1.07806  -0.99331
 Alpha  occ. eigenvalues --   -0.94687  -0.88734  -0.84593  -0.79339  -0.78406
 Alpha  occ. eigenvalues --   -0.72829  -0.67264
 Alpha virt. eigenvalues --   -0.14315  -0.14059  -0.10575  -0.09573  -0.07403
 Alpha virt. eigenvalues --   -0.06005  -0.05131  -0.03533  -0.02434  -0.01698
 Alpha virt. eigenvalues --   -0.00143   0.01584   0.01820   0.02827   0.03831

  Beta  occ. eigenvalues --  -20.79416 -11.59378 -11.59152 -11.58395 -11.57932
  Beta  occ. eigenvalues --   -1.63199  -1.52293  -1.16222  -1.06035  -0.97125
  Beta  occ. eigenvalues --   -0.88489  -0.85621  -0.82917  -0.77393  -0.72755
  Beta  occ. eigenvalues --   -0.66553
  Beta virt. eigenvalues --   -0.22547  -0.14928  -0.09985  -0.09543  -0.09128
  Beta virt. eigenvalues --   -0.07316  -0.05456  -0.04670  -0.02947  -0.02245
  Beta virt. eigenvalues --   -0.01360  -0.00046   0.01797   0.02436   0.03037

 Mulliken charges and spin densities:
               1          2
     1  C    0.505772  -0.253281
     2  C    0.250883  -0.033534
     3  C    0.261433   1.106629
     4  C    0.056740  -0.063016
     5  H    0.310687   0.000657
     6  H    0.204442   0.012275
     7  O   -0.589957   0.230272
 Sum of Mulliken charges =   1.00000   1.00000

 Dipole moment (field-independent basis, Debye):
    X=              5.1443    Y=              1.7453    Z=              1.7625  Tot=              5.7111
 Quadrupole moment (field-independent basis, Debye-Ang):
   XX=            -16.4181   YY=            -21.1578   ZZ=            -23.2199
   XY=              0.7472   XZ=             -5.1080   YZ=             -0.6091

 02669\CCSD=-227.9032551\CCSD(T)=-227.944672\S2=0.80752\S2-1=0.788132\S
 Normal termination of Gaussian 09 at Thu Mar  7 02:52:01 2019.
