 Gaussian 09, Revision E.01,
 Gaussian 09:  EM64L-G09RevE.01 30-Nov-2015

 --------------------------------------
 #p ccsd(t,maxcyc=200)/6-311++G(3df,2p)
 --------------------------------------

 -------------
 ccsd(t) iener
 -------------
 Symbolic Z-matrix:
 Charge =  0 Multiplicity = 1

                         Standard orientation:
 ---------------------------------------------------------------------
 Center     Atomic      Atomic             Coordinates (Angstroms)
 Number     Number       Type             X           Y           Z
 ---------------------------------------------------------------------
      1          6           0        1.054151   -0.108590    0.409307
      2          6           0       -1.560673   -0.784603   -0.251756
      3          6           0       -1.526560    0.584814    0.013354
      4          6           0       -0.376071   -0.071011    0.121901
      5          1           0       -2.040398    1.529240    0.088934
      6          1           0        1.303386   -0.398921    1.447888
      7          8           0        1.898991    0.143252   -0.411706
 ---------------------------------------------------------------------

 SCF Done:  E(RHF) =  -227.420342010     A.U. after   16 cycles
 E2 =    -0.8081278718D+00 EUMP2 =    -0.22822846988161D+03
 CCSD(T)
 CCSD(T)= -0.22828699652D+03

 The electronic state is 1-A.
 Alpha  occ. eigenvalues --  -20.59304 -11.37703 -11.31174 -11.30815 -11.27613
 Alpha  occ. eigenvalues --   -1.43023  -1.24503  -0.96386  -0.81294  -0.76548
 Alpha  occ. eigenvalues --   -0.68661  -0.66426  -0.57093  -0.51813  -0.50540
 Alpha  occ. eigenvalues --   -0.45682  -0.39020
 Alpha virt. eigenvalues --    0.03115   0.04594   0.07175   0.08293   0.08920
 Alpha virt. eigenvalues --    0.10120   0.10654   0.11667   0.12321   0.13972
 Alpha virt. eigenvalues --    0.14918   0.15390   0.16579   0.17076   0.18773

 Mulliken charges:
               1
     1  C    0.449136
     2  C   -0.432616
     3  C    0.349474
     4  C   -0.014829
     5  H    0.249834
     6  H    0.134332
     7  O   -0.735331
 Sum of Mulliken charges =  -0.00000

 Dipole moment (field-independent basis, Debye):
    X=             -0.8220    Y=              2.4151    Z=              2.7028  Tot=              3.7167
 Quadrupole moment (field-independent basis, Debye-Ang):
   XX=            -34.8204   YY=            -29.3320   ZZ=            -27.5559
   XY=             -7.6909   XZ=              1.9021   YZ=             -1.0925

 SDQ=-228.2463749\CCSD=-228.244096\CCSD(T)=-228.2869965\RMSD=3.437e-09\
 Normal termination of Gaussian 09 at Thu Mar  7 00:04:34 2019.
