 Gaussian 09, Revision E.01,
 Gaussian 09:  EM64L-G09RevE.01 30-Nov-2015

 --------------------------------------
 #p ccsd(t,maxcyc=200)/6-311++G(3df,2p)
 --------------------------------------

 -------------
 ccsd(t) iener
 -------------
 Symbolic Z-matrix:
 Charge =  0 Multiplicity = 1

                         Standard orientation:
 ---------------------------------------------------------------------
 Center     Atomic      Atomic             Coordinates (Angstroms)
 Number     Number       Type             X           Y           Z
 ---------------------------------------------------------------------
      1          6           0        0.962290   -0.000014    0.000000
      2          1           0       -1.024098    0.814975    0.000003
      3          1           0       -1.024313   -0.814869    0.000003
      4          8           0       -0.465666   -0.000003   -0.000001
 ---------------------------------------------------------------------

 SCF Done:  E(RHF) =  -113.661431598     A.U. after   12 cycles
 E2 =    -0.3761060851D+00 EUMP2 =    -0.11403753768277D+03
 CCSD(T)
 CCSD(T)= -0.11407597471D+03

 The electronic state is 1-A.
 Alpha  occ. eigenvalues --  -20.72847 -11.23947  -1.51341  -0.90932  -0.85841
 Alpha  occ. eigenvalues --   -0.66807  -0.47673  -0.25603
 Alpha virt. eigenvalues --    0.01332   0.05289   0.09345   0.13305   0.14177
 Alpha virt. eigenvalues --    0.17057   0.19332   0.19346   0.23492   0.23497
 Alpha virt. eigenvalues --    0.24511   0.33755   0.35455   0.42873   0.48724

 Mulliken charges:
               1
     1  C   -0.367284
     2  H    0.302623
     3  H    0.302621
     4  O   -0.237960
 Sum of Mulliken charges =  -0.00000

 Dipole moment (field-independent basis, Debye):
    X=             -6.1351    Y=              0.0003    Z=              0.0000  Tot=              6.1351
 Quadrupole moment (field-independent basis, Debye-Ang):
   XX=            -13.7948   YY=            -13.8691   ZZ=            -12.6876
   XY=              0.0002   XZ=             -0.0000   YZ=              0.0000

 0604659\CCSD(T)=-114.0759747\RMSD=3.194e-09\PG=C01 [X(C1H2O1)]\\@
 Normal termination of Gaussian 09 at Thu Mar  7 00:12:05 2019.
