 Gaussian 09, Revision E.01,
 Gaussian 09:  EM64L-G09RevE.01 30-Nov-2015

 --------------------------------------
 #p ccsd(t,maxcyc=200)/6-311++G(3df,2p)
 --------------------------------------

 -------------
 ccsd(t) iener
 -------------
 Symbolic Z-matrix:
 Charge =  0 Multiplicity = 3

                         Standard orientation:
 ---------------------------------------------------------------------
 Center     Atomic      Atomic             Coordinates (Angstroms)
 Number     Number       Type             X           Y           Z
 ---------------------------------------------------------------------
      1          6           0        0.584853   -0.000002   -0.109029
      2          1           0        1.073328    0.921314    0.237341
      3          1           0        1.073310   -0.921314    0.237343
      4          8           0       -0.706969    0.000002    0.022436
 ---------------------------------------------------------------------

 SCF Done:  E(UHF) =  -113.837902478     A.U. after   14 cycles
 E2 =    -0.3363989404D+00 EUMP2 =    -0.11417430141872D+03
 CCSD(T)
 CCSD(T)= -0.11421598777D+03

 The electronic state is 3-A.
 Alpha  occ. eigenvalues --  -20.66354 -11.29009  -1.47117  -0.91949  -0.75142
 Alpha  occ. eigenvalues --   -0.68643  -0.65484  -0.54128  -0.36327
 Alpha virt. eigenvalues --    0.04429   0.06833   0.09176   0.11426   0.15070
 Alpha virt. eigenvalues --    0.17082   0.24615   0.26895   0.28141   0.29187
 Alpha virt. eigenvalues --    0.29570   0.32414   0.45599   0.45969   0.46850

  Beta  occ. eigenvalues --  -20.61429 -11.27027  -1.31517  -0.81935  -0.62454
  Beta  occ. eigenvalues --   -0.59487  -0.52579
  Beta virt. eigenvalues --    0.04597   0.06374   0.07278   0.08500   0.09386
  Beta virt. eigenvalues --    0.16181   0.16753   0.20173   0.25369   0.27927
  Beta virt. eigenvalues --    0.29635   0.30174   0.33691   0.33724   0.47522

 Mulliken charges and spin densities:
               1          2
     1  C    0.101905   0.836153
     2  H    0.130743   0.046888
     3  H    0.130745   0.046886
     4  O   -0.363393   1.070073
 Sum of Mulliken charges =  -0.00000   2.00000

 Dipole moment (field-independent basis, Debye):
    X=              1.2724    Y=             -0.0000    Z=              0.5693  Tot=              1.3940
 Quadrupole moment (field-independent basis, Debye-Ang):
   XX=            -12.4831   YY=            -10.5155   ZZ=            -13.3110
   XY=              0.0000   XZ=              0.7498   YZ=             -0.0000

 CCSD(T)=-114.2159878\S2=2.018061\S2-1=2.003252\S2A=2.000169\RMSD=6.038
 Normal termination of Gaussian 09 at Thu Mar  7 04:24:40 2019.
