 Gaussian 09, Revision E.01,
 Gaussian 09:  EM64L-G09RevE.01 30-Nov-2015

 --------------------------------------
 #p ccsd(t,maxcyc=200)/6-311++G(3df,2p)
 --------------------------------------

 -------------
 ccsd(t) iener
 -------------
 Symbolic Z-matrix:
 Charge =  1 Multiplicity = 2

                         Standard orientation:
 ---------------------------------------------------------------------
 Center     Atomic      Atomic             Coordinates (Angstroms)
 Number     Number       Type             X           Y           Z
 ---------------------------------------------------------------------
      1          6           0       -0.932197   -0.000005    0.000014
      2          1           0        0.980117   -0.839839    0.000108
      3          1           0        0.980037    0.839889    0.000108
      4          8           0        0.454128   -0.000003   -0.000037
 ---------------------------------------------------------------------

 SCF Done:  E(UHF) =  -113.471869574     A.U. after   13 cycles
 E2 =    -0.3321119812D+00 EUMP2 =    -0.11380398155549D+03
 CCSD(T)
 CCSD(T)= -0.11383952660D+03

 The electronic state is 2-A.
 Alpha  occ. eigenvalues --  -21.02449 -11.65721  -1.83019  -1.26226  -1.17420
 Alpha  occ. eigenvalues --   -0.96743  -0.84577  -0.71098
 Alpha virt. eigenvalues --   -0.18701  -0.16260  -0.10752  -0.05293  -0.03858
 Alpha virt. eigenvalues --   -0.03843  -0.00946   0.00609   0.03837   0.03902
 Alpha virt. eigenvalues --    0.05348   0.12694   0.14401   0.15012   0.20739

  Beta  occ. eigenvalues --  -21.02622 -11.63022  -1.82373  -1.21453  -1.15735
  Beta  occ. eigenvalues --   -0.97153  -0.77514
  Beta virt. eigenvalues --   -0.16627  -0.16085  -0.14497  -0.10593  -0.04768
  Beta virt. eigenvalues --   -0.03424  -0.03407   0.00733   0.01539   0.03998
  Beta virt. eigenvalues --    0.04626   0.05393   0.14877   0.15038   0.17454

 Mulliken charges and spin densities:
               1          2
     1  C    0.353471   1.030533
     2  H    0.335999   0.026221
     3  H    0.336004   0.026221
     4  O   -0.025474  -0.082975
 Sum of Mulliken charges =   1.00000   1.00000

 Dipole moment (field-independent basis, Debye):
    X=              3.3460    Y=              0.0001    Z=              0.0005  Tot=              3.3460
 Quadrupole moment (field-independent basis, Debye-Ang):
   XX=             -6.7411   YY=             -7.3129   ZZ=            -10.2012
   XY=             -0.0001   XZ=              0.0007   YZ=              0.0000

 63\CCSD(T)=-113.8395266\S2=0.76327\S2-1=0.754054\S2A=0.75003\RMSD=7.60
 Normal termination of Gaussian 09 at Thu Mar  7 04:24:13 2019.
