 Gaussian 09, Revision E.01,
 Gaussian 09:  EM64L-G09RevE.01 30-Nov-2015

 --------------------------------------
 #p ccsd(t,maxcyc=200)/6-311++G(3df,2p)
 --------------------------------------

 -------------
 ccsd(t) iener
 -------------
 Symbolic Z-matrix:
 Charge =  1 Multiplicity = 4

                         Standard orientation:
 ---------------------------------------------------------------------
 Center     Atomic      Atomic             Coordinates (Angstroms)
 Number     Number       Type             X           Y           Z
 ---------------------------------------------------------------------
      1          6           0       -0.662532    0.000001   -0.131470
      2          1           0       -1.073034   -0.937757    0.306345
      3          1           0       -1.072934    0.937805    0.306331
      4          8           0        0.765145   -0.000007    0.022018
 ---------------------------------------------------------------------

 SCF Done:  E(UHF) =  -113.427229844     A.U. after   16 cycles
 E2 =    -0.2673730583D+00 EUMP2 =    -0.11369460290208D+03
 CCSD(T)
 CCSD(T)= -0.11374169683D+03

 The electronic state is 4-A.
 Alpha  occ. eigenvalues --  -21.17688 -11.63365  -1.91562  -1.28345  -1.17423
 Alpha  occ. eigenvalues --   -1.16944  -1.03187  -0.88724  -0.76018
 Alpha virt. eigenvalues --   -0.12107  -0.09748  -0.07906  -0.06216  -0.02342
 Alpha virt. eigenvalues --    0.00066   0.02623   0.03093   0.05409   0.06014
 Alpha virt. eigenvalues --    0.06449   0.07026   0.15790   0.22144   0.22735

  Beta  occ. eigenvalues --  -21.08874 -11.60558  -1.60081  -1.15539  -0.95833
  Beta  occ. eigenvalues --   -0.88725
  Beta virt. eigenvalues --   -0.32978  -0.28701  -0.13115  -0.11470  -0.08296
  Beta virt. eigenvalues --   -0.07613  -0.02907  -0.00992   0.01134   0.03327
  Beta virt. eigenvalues --    0.07306   0.08035   0.08133   0.09739   0.10253

 Mulliken charges and spin densities:
               1          2
     1  C    0.268776   0.967101
     2  H    0.228250   0.020920
     3  H    0.228243   0.020920
     4  O    0.274731   1.991058
 Sum of Mulliken charges =   1.00000   3.00000

 Dipole moment (field-independent basis, Debye):
    X=             -0.7370    Y=             -0.0000    Z=              0.5085  Tot=              0.8954
 Quadrupole moment (field-independent basis, Debye-Ang):
   XX=             -6.6197   YY=             -7.9897   ZZ=             -9.8797
   XY=              0.0001   XZ=             -0.9087   YZ=             -0.0000

 1573\CCSD(T)=-113.7416968\S2=3.767191\S2-1=3.753599\S2A=3.750107\RMSD=
 Normal termination of Gaussian 09 at Thu Mar  7 04:25:09 2019.
