 Gaussian 09, Revision E.01,
 Gaussian 09:  EM64L-G09RevE.01 30-Nov-2015

 --------------------------------------
 #p ccsd(t,maxcyc=200)/6-311++G(3df,2p)
 --------------------------------------

 -------------
 ccsd(t) iener
 -------------
 Symbolic Z-matrix:
 Charge =  1 Multiplicity = 4

                         Standard orientation:
 ---------------------------------------------------------------------
 Center     Atomic      Atomic             Coordinates (Angstroms)
 Number     Number       Type             X           Y           Z
 ---------------------------------------------------------------------
      1          6           0        0.822767   -0.174626    0.034377
      2          1           0        1.377009    0.773715    0.029555
      3          1           0       -1.128778    0.053564    0.755690
      4          8           0       -0.648104    0.027560   -0.123939
 ---------------------------------------------------------------------

 SCF Done:  E(UHF) =  -113.414092200     A.U. after   18 cycles
 E2 =    -0.2791261614D+00 EUMP2 =    -0.11369321836183D+03
 CCSD(T)
 CCSD(T)= -0.11373084092D+03

 The electronic state is 4-A.
 Alpha  occ. eigenvalues --  -21.08320 -11.64561  -1.84482  -1.27383  -1.10875
 Alpha  occ. eigenvalues --   -1.08659  -0.98687  -0.81377  -0.73144
 Alpha virt. eigenvalues --   -0.15278  -0.09555  -0.06875  -0.05838  -0.03921
 Alpha virt. eigenvalues --   -0.00873   0.00808   0.03023   0.05580   0.05887
 Alpha virt. eigenvalues --    0.07406   0.12232   0.16632   0.17342   0.25489

  Beta  occ. eigenvalues --  -21.03593 -11.58688  -1.66962  -1.14397  -0.99925
  Beta  occ. eigenvalues --   -0.92029
  Beta virt. eigenvalues --   -0.30792  -0.16712  -0.13486  -0.13260  -0.08646
  Beta virt. eigenvalues --   -0.04537  -0.03051  -0.01735   0.01744   0.03139
  Beta virt. eigenvalues --    0.06070   0.08049   0.09367   0.11243   0.14529

 Mulliken charges and spin densities:
               1          2
     1  C    0.401266   1.963827
     2  H    0.234228   0.018899
     3  H    0.376816  -0.048895
     4  O   -0.012310   1.066169
 Sum of Mulliken charges =   1.00000   3.00000

 Dipole moment (field-independent basis, Debye):
    X=             -0.5348    Y=              0.4916    Z=              1.7135  Tot=              1.8611
 Quadrupole moment (field-independent basis, Debye-Ang):
   XX=             -4.4803   YY=             -9.0311   ZZ=             -9.4829
   XY=              1.0086   XZ=             -2.2477   YZ=              0.2300

 CCSD(T)=-113.7308409\S2=3.761716\S2-1=3.752231\S2A=3.750052\RMSD=5.529
 Normal termination of Gaussian 09 at Thu Mar  7 04:25:16 2019.
