 Gaussian 09, Revision E.01,
 Gaussian 09:  EM64L-G09RevE.01 30-Nov-2015

 --------------------------------------
 #p ccsd(t,maxcyc=200)/6-311++G(3df,2p)
 --------------------------------------

 -------------
 ccsd(t) iener
 -------------
 Symbolic Z-matrix:
 Charge =  1 Multiplicity = 2

                         Standard orientation:
 ---------------------------------------------------------------------
 Center     Atomic      Atomic             Coordinates (Angstroms)
 Number     Number       Type             X           Y           Z
 ---------------------------------------------------------------------
      1          6           0       -0.662785   -0.127199    0.000001
      2          1           0       -1.431662    0.663080   -0.000002
      3          1           0        1.047232    0.774560    0.000002
      4          8           0        0.545142   -0.084306   -0.000001
 ---------------------------------------------------------------------

 SCF Done:  E(UHF) =  -113.546892019     A.U. after   15 cycles
 E2 =    -0.3439831561D+00 EUMP2 =    -0.11389087517526D+03
 CCSD(T)
 CCSD(T)= -0.11391941305D+03

 The electronic state is 2-A.
 Alpha  occ. eigenvalues --  -20.98124 -11.71510  -1.82512  -1.26160  -1.11331
 Alpha  occ. eigenvalues --   -0.99321  -0.93020  -0.76521
 Alpha virt. eigenvalues --   -0.20904  -0.13859  -0.09732  -0.06561  -0.05333
 Alpha virt. eigenvalues --   -0.03935  -0.00006   0.01436   0.04689   0.07947
 Alpha virt. eigenvalues --    0.08177   0.13996   0.16126   0.16854   0.21137

  Beta  occ. eigenvalues --  -20.98186 -11.68408  -1.81833  -1.21473  -1.07305
  Beta  occ. eigenvalues --   -0.94370  -0.93306
  Beta virt. eigenvalues --   -0.20585  -0.17647  -0.13464  -0.09483  -0.05142
  Beta virt. eigenvalues --   -0.04537  -0.03496   0.00906   0.02499   0.05781
  Beta virt. eigenvalues --    0.08025   0.08230   0.14783   0.17101   0.18747

 Mulliken charges and spin densities:
               1          2
     1  C    0.683563   0.991269
     2  H    0.265499   0.068097
     3  H    0.351454   0.066202
     4  O   -0.300516  -0.125569
 Sum of Mulliken charges =   1.00000   1.00000

 Dipole moment (field-independent basis, Debye):
    X=             -1.2333    Y=              2.3591    Z=              0.0000  Tot=              2.6620
 Quadrupole moment (field-independent basis, Debye-Ang):
   XX=             -4.4459   YY=             -8.1138   ZZ=             -9.7253
   XY=              1.0803   XZ=              0.0000   YZ=              0.0000

 Normal termination of Gaussian 09 at Thu Mar  7 04:24:16 2019.
