 Gaussian 09, Revision E.01,
 Gaussian 09:  EM64L-G09RevE.01 30-Nov-2015

 --------------------------------------
 #p ccsd(t,maxcyc=200)/6-311++G(3df,2p)
 --------------------------------------

 -------------
 ccsd(t) iener
 -------------
 Symbolic Z-matrix:
 Charge =  0 Multiplicity = 1

                         Standard orientation:
 ---------------------------------------------------------------------
 Center     Atomic      Atomic             Coordinates (Angstroms)
 Number     Number       Type             X           Y           Z
 ---------------------------------------------------------------------
      1          6           0        0.704725   -0.225581   -0.000010
      2          1           0        1.252382    0.742752    0.000066
      3          1           0       -1.113899   -0.628472    0.000079
      4          8           0       -0.545854    0.154901   -0.000011
 ---------------------------------------------------------------------

 SCF Done:  E(RHF) =  -113.834961952     A.U. after   11 cycles
 E2 =    -0.3817781482D+00 EUMP2 =    -0.11421674010071D+03
 CCSD(T)
 CCSD(T)= -0.11425007471D+03

 The electronic state is 1-A.
 Alpha  occ. eigenvalues --  -20.64139 -11.30555  -1.45692  -0.90361  -0.69116
 Alpha  occ. eigenvalues --   -0.63927  -0.59422  -0.37206
 Alpha virt. eigenvalues --    0.04433   0.06149   0.07663   0.11717   0.14096
 Alpha virt. eigenvalues --    0.16798   0.17372   0.23911   0.26456   0.27458
 Alpha virt. eigenvalues --    0.27897   0.31776   0.36909   0.43805   0.48480

 Mulliken charges:
               1
     1  C    0.043211
     2  H    0.111467
     3  H    0.260221
     4  O   -0.414899
 Sum of Mulliken charges =  -0.00000

 Dipole moment (field-independent basis, Debye):
    X=             -1.3153    Y=              0.2605    Z=              0.0002  Tot=              1.3409
 Quadrupole moment (field-independent basis, Debye-Ang):
   XX=            -11.5272   YY=            -13.6150   ZZ=            -12.1320
   XY=              4.0988   XZ=             -0.0001   YZ=             -0.0002

 .2343305\CCSD(T)=-114.2500747\RMSD=9.193e-09\PG=C01 [X(C1H2O1)]\\@
 Normal termination of Gaussian 09 at Thu Mar  7 04:23:45 2019.
