 Gaussian 09, Revision E.01,
 Gaussian 09:  EM64L-G09RevE.01 30-Nov-2015

 --------------------------------------
 #p ccsd(t,maxcyc=200)/6-311++G(3df,2p)
 --------------------------------------

 -------------
 ccsd(t) iener
 -------------
 Symbolic Z-matrix:
 Charge =  0 Multiplicity = 1

                         Standard orientation:
 ---------------------------------------------------------------------
 Center     Atomic      Atomic             Coordinates (Angstroms)
 Number     Number       Type             X           Y           Z
 ---------------------------------------------------------------------
      1          6           0       -0.526116   -0.000003   -0.000001
      2          1           0       -1.111593    0.938553    0.000001
      3          1           0       -1.111703   -0.938485    0.000001
      4          8           0        0.672499   -0.000007    0.000000
 ---------------------------------------------------------------------

 SCF Done:  E(RHF) =  -113.911848486     A.U. after   11 cycles
 E2 =    -0.3944740547D+00 EUMP2 =    -0.11430632254101D+03
 CCSD(T)
 CCSD(T)= -0.11433327409D+03

 The electronic state is 1-A.
 Alpha  occ. eigenvalues --  -20.57816 -11.34089  -1.41160  -0.86889  -0.69562
 Alpha  occ. eigenvalues --   -0.65510  -0.54112  -0.44259
 Alpha virt. eigenvalues --    0.04077   0.06424   0.07480   0.09490   0.15728
 Alpha virt. eigenvalues --    0.15756   0.15874   0.23881   0.27147   0.28630
 Alpha virt. eigenvalues --    0.31340   0.34074   0.37624   0.41206   0.46279

 Mulliken charges:
               1
     1  C    0.421208
     2  H    0.105997
     3  H    0.106005
     4  O   -0.633210
 Sum of Mulliken charges =  -0.00000

 Dipole moment (field-independent basis, Debye):
    X=             -2.8300    Y=             -0.0000    Z=              0.0000  Tot=              2.8300
 Quadrupole moment (field-independent basis, Debye-Ang):
   XX=            -12.1338   YY=            -11.4338   ZZ=            -11.7348
   XY=              0.0002   XZ=             -0.0000   YZ=              0.0000

 859\CCSD(T)=-114.3332741\RMSD=4.792e-09\PG=C01 [X(C1H2O1)]\\@
 Normal termination of Gaussian 09 at Thu Mar  7 00:11:13 2019.
