 Gaussian 09, Revision E.01,
 Gaussian 09:  EM64L-G09RevE.01 30-Nov-2015

 --------------------------------------
 #p ccsd(t,maxcyc=200)/6-311++G(3df,2p)
 --------------------------------------

 -------------
 ccsd(t) iener
 -------------
 Symbolic Z-matrix:
 Charge =  0 Multiplicity = 1

                         Standard orientation:
 ---------------------------------------------------------------------
 Center     Atomic      Atomic             Coordinates (Angstroms)
 Number     Number       Type             X           Y           Z
 ---------------------------------------------------------------------
      1          1           0        0.763149   -0.467109    0.000000
      2          1           0       -0.763149   -0.467101    0.000000
      3          8           0        0.000000    0.116776    0.000000
 ---------------------------------------------------------------------

 SCF Done:  E(RHF) =  -76.0574359946     A.U. after   10 cycles
 E2 =    -0.2609959139D+00 EUMP2 =    -0.76318431908482D+02
 CCSD(T)
 CCSD(T)= -0.76331847526D+02

 The electronic state is 1-A'.
 Alpha  occ. eigenvalues --  -20.56683  -1.35140  -0.71814  -0.58365  -0.51019
 Alpha virt. eigenvalues --    0.04391   0.07164   0.23627   0.24593   0.24840
 Alpha virt. eigenvalues --    0.25996   0.31069   0.32134   0.67086   0.70750
 Alpha virt. eigenvalues --    0.79121   0.81295   0.86838   1.07500   1.07980

 Mulliken charges:
               1
     1  H    0.241634
     2  H    0.241631
     3  O   -0.483266
 Sum of Mulliken charges =  -0.00000

 Dipole moment (field-independent basis, Debye):
    X=             -0.0000    Y=             -2.0122    Z=              0.0000  Tot=              2.0122
 Quadrupole moment (field-independent basis, Debye-Ang):
   XX=             -4.1930   YY=             -6.2434   ZZ=             -7.5926
   XY=             -0.0000   XZ=              0.0000   YZ=              0.0000

 CCSD=-76.3238818\CCSD(T)=-76.3318475\RMSD=5.670e-09\PG=CS [SG(H2O1)]\\
 Normal termination of Gaussian 09 at Thu Mar  7 04:23:09 2019.
