 Gaussian 09, Revision E.01,
 Gaussian 09:  EM64L-G09RevE.01 30-Nov-2015

 --------------------------------------
 #p ccsd(t,maxcyc=200)/6-311++G(3df,2p)
 --------------------------------------

 -------------
 ccsd(t) iener
 -------------
 Symbolic Z-matrix:
 Charge =  1 Multiplicity = 2

                         Standard orientation:
 ---------------------------------------------------------------------
 Center     Atomic      Atomic             Coordinates (Angstroms)
 Number     Number       Type             X           Y           Z
 ---------------------------------------------------------------------
      1          1           0        0.822062   -0.462111    0.000000
      2          1           0       -0.822062   -0.462114    0.000000
      3          8           0        0.000000    0.115528    0.000000
 ---------------------------------------------------------------------

 SCF Done:  E(UHF) =  -75.6542489483     A.U. after   11 cycles
 E2 =    -0.1958685232D+00 EUMP2 =    -0.75850117471514D+02
 CCSD(T)
 CCSD(T)= -0.75870791461D+02

 The electronic state is 2-A".
 Alpha  occ. eigenvalues --  -21.12364  -1.87956  -1.19295  -1.11982  -1.07168
 Alpha virt. eigenvalues --   -0.18572  -0.11802  -0.02564  -0.02410  -0.00910
 Alpha virt. eigenvalues --   -0.00690   0.06149   0.06773   0.33097   0.34345
 Alpha virt. eigenvalues --    0.41879   0.43546   0.48537   0.71255   0.71581

  Beta  occ. eigenvalues --  -21.07901  -1.71780  -1.15587  -1.02120
  Beta virt. eigenvalues --   -0.31546  -0.17733  -0.11427  -0.01688  -0.00553
  Beta virt. eigenvalues --   -0.00550   0.02515   0.06866   0.07126   0.33160
  Beta virt. eigenvalues --    0.35027   0.44580   0.44586   0.52119   0.72073

 Mulliken charges and spin densities:
               1          2
     1  H    0.410619  -0.067475
     2  H    0.410621  -0.067475
     3  O    0.178760   1.134950
 Sum of Mulliken charges =   1.00000   1.00000

 Dipole moment (field-independent basis, Debye):
    X=             -0.0000    Y=             -2.2153    Z=              0.0000  Tot=              2.2153
 Quadrupole moment (field-independent basis, Debye-Ang):
   XX=             -1.4850   YY=             -4.3802   ZZ=             -4.7830
   XY=              0.0000   XZ=             -0.0000   YZ=              0.0000

 -75.8659446\CCSD(T)=-75.8707915\S2=0.757995\S2-1=0.751652\S2A=0.750039
 Normal termination of Gaussian 09 at Thu Mar  7 04:23:11 2019.
