 Gaussian 09, Revision E.01,
 Gaussian 09:  EM64L-G09RevE.01 30-Nov-2015

 --------------------------------------
 #p ccsd(t,maxcyc=200)/6-311++G(3df,2p)
 --------------------------------------

 -------------
 ccsd(t) iener
 -------------
 Symbolic Z-matrix:
 Charge =  1 Multiplicity = 2

                         Standard orientation:
 ---------------------------------------------------------------------
 Center     Atomic      Atomic             Coordinates (Angstroms)
 Number     Number       Type             X           Y           Z
 ---------------------------------------------------------------------
      1          1           0        0.822078   -0.461911    0.000000
      2          1           0       -0.822078   -0.461910   -0.000000
      3          8           0       -0.000000    0.115478   -0.000000
 ---------------------------------------------------------------------

 SCF Done:  E(UHF) =  -75.6542610922     A.U. after   11 cycles
 E2 =    -0.1958593219D+00 EUMP2 =    -0.75850120414070D+02
 CCSD(T)
 CCSD(T)= -0.75870793123D+02

 The electronic state is 2-A".
 Alpha  occ. eigenvalues --  -21.12364  -1.87962  -1.19307  -1.11984  -1.07168
 Alpha virt. eigenvalues --   -0.18570  -0.11800  -0.02565  -0.02409  -0.00912
 Alpha virt. eigenvalues --   -0.00686   0.06148   0.06772   0.33106   0.34346
 Alpha virt. eigenvalues --    0.41878   0.43557   0.48542   0.71252   0.71570

  Beta  occ. eigenvalues --  -21.07901  -1.71787  -1.15600  -1.02121
  Beta virt. eigenvalues --   -0.31548  -0.17731  -0.11426  -0.01686  -0.00555
  Beta virt. eigenvalues --   -0.00546   0.02514   0.06865   0.07125   0.33170
  Beta virt. eigenvalues --    0.35028   0.44579   0.44598   0.52125   0.72063

 Mulliken charges and spin densities:
               1          2
     1  H    0.410467  -0.067459
     2  H    0.410466  -0.067459
     3  O    0.179067   1.134918
 Sum of Mulliken charges =   1.00000   1.00000

 Dipole moment (field-independent basis, Debye):
    X=              0.0000    Y=             -2.2145    Z=              0.0000  Tot=              2.2145
 Quadrupole moment (field-independent basis, Debye-Ang):
   XX=             -1.4845   YY=             -4.3812   ZZ=             -4.7828
   XY=             -0.0000   XZ=              0.0000   YZ=             -0.0000

 =-75.8659472\CCSD(T)=-75.8707931\S2=0.757992\S2-1=0.75165\S2A=0.750039
 Normal termination of Gaussian 09 at Thu Mar  7 04:25:31 2019.
