 Gaussian 09, Revision E.01,
 Gaussian 09:  EM64L-G09RevE.01 30-Nov-2015

 --------------------------------------
 #p ccsd(t,maxcyc=200)/6-311++G(3df,2p)
 --------------------------------------

 -------------
 ccsd(t) iener
 -------------
 Symbolic Z-matrix:
 Charge =  1 Multiplicity = 1

                         Standard orientation:
 ---------------------------------------------------------------------
 Center     Atomic      Atomic             Coordinates (Angstroms)
 Number     Number       Type             X           Y           Z
 ---------------------------------------------------------------------
      1          6           0        0.893179    0.094978    0.000022
      2          6           0       -0.453174    0.569443   -0.000001
      3          1           0        1.410516   -0.042007    0.942009
      4          1           0        1.410652   -0.041444   -0.941967
      5          1           0       -1.208907    1.354598    0.000205
      6          8           0       -0.531537   -0.657209   -0.000047
 ---------------------------------------------------------------------

 SCF Done:  E(RHF) =  -152.020241995     A.U. after   13 cycles
 E2 =    -0.5338725109D+00 EUMP2 =    -0.15255411450560D+03
 CCSD(T)
 CCSD(T)= -0.15259398512D+03

 The electronic state is 1-A.
 Alpha  occ. eigenvalues --  -20.93215 -11.66603 -11.60374  -1.79121  -1.25662
 Alpha  occ. eigenvalues --   -1.13648  -1.00404  -0.96586  -0.91178  -0.80743
 Alpha  occ. eigenvalues --   -0.76653
 Alpha virt. eigenvalues --   -0.18006  -0.12039  -0.10205  -0.08906  -0.07594
 Alpha virt. eigenvalues --   -0.04672  -0.03539  -0.01190  -0.00429   0.01181
 Alpha virt. eigenvalues --    0.02522   0.04114   0.04140   0.05099   0.09193

 Mulliken charges:
               1
     1  C    0.140675
     2  C    0.627545
     3  H    0.205396
     4  H    0.205388
     5  H    0.297458
     6  O   -0.476462
 Sum of Mulliken charges =   1.00000

 Dipole moment (field-independent basis, Debye):
    X=              1.0757    Y=              2.8995    Z=              0.0002  Tot=              3.0926
 Quadrupole moment (field-independent basis, Debye-Ang):
   XX=             -9.3920   YY=            -13.5969   ZZ=            -13.4888
   XY=             -3.0704   XZ=             -0.0004   YZ=             -0.0006

 5682219\CCSD(T)=-152.5939851\RMSD=7.780e-09\PG=C01 [X(C2H3O1)]\\@
 Normal termination of Gaussian 09 at Thu Mar  7 04:31:09 2019.
