 Gaussian 09, Revision E.01,
 Gaussian 09:  EM64L-G09RevE.01 30-Nov-2015

 --------------------------------------
 #p ccsd(t,maxcyc=200)/6-311++G(3df,2p)
 --------------------------------------

 -------------
 ccsd(t) iener
 -------------
 Symbolic Z-matrix:
 Charge =  1 Multiplicity = 1

                         Standard orientation:
 ---------------------------------------------------------------------
 Center     Atomic      Atomic             Coordinates (Angstroms)
 Number     Number       Type             X           Y           Z
 ---------------------------------------------------------------------
      1          6           0       -1.376480   -0.394970    0.000068
      2          6           0       -0.340201    0.436117   -0.000499
      3          1           0       -0.378406    1.519623    0.001814
      4          1           0        1.491912   -0.093024    0.815801
      5          1           0        1.493161   -0.091503   -0.814834
      6          8           0        0.961677   -0.197748   -0.000025
 ---------------------------------------------------------------------

 SCF Done:  E(RHF) =  -151.925011961     A.U. after   15 cycles
 E2 =    -0.5018518682D+00 EUMP2 =    -0.15242686382928D+03
 CCSD(T)
 CCSD(T)= -0.15248023351D+03

 The electronic state is 1-A.
 Alpha  occ. eigenvalues --  -20.98855 -11.55844 -11.54631  -1.78361  -1.30744
 Alpha  occ. eigenvalues --   -1.12845  -1.06756  -1.00217  -0.87289  -0.69252
 Alpha  occ. eigenvalues --   -0.65594
 Alpha virt. eigenvalues --   -0.19371  -0.13183  -0.09556  -0.08369  -0.08153
 Alpha virt. eigenvalues --   -0.04986  -0.03398  -0.00855   0.00290   0.00867
 Alpha virt. eigenvalues --    0.02327   0.03814   0.05476   0.05717   0.06747

 Mulliken charges:
               1
     1  C   -0.298992
     2  C    0.754785
     3  H    0.220915
     4  H    0.324486
     5  H    0.324523
     6  O   -0.325718
 Sum of Mulliken charges =   1.00000

 Dipole moment (field-independent basis, Debye):
    X=              4.7514    Y=              1.6299    Z=              0.0043  Tot=              5.0232
 Quadrupole moment (field-independent basis, Debye-Ang):
   XX=             -8.3558   YY=            -14.6608   ZZ=            -14.3366
   XY=             -2.2042   XZ=             -0.0012   YZ=              0.0013

 152.4588775\CCSD(T)=-152.4802335\RMSD=5.344e-09\PG=C01 [X(C2H3O1)]\\@
 Normal termination of Gaussian 09 at Thu Mar  7 04:31:35 2019.
