 Gaussian 09, Revision E.01,
 Gaussian 09:  EM64L-G09RevE.01 30-Nov-2015

 --------------------------------------
 #p ccsd(t,maxcyc=200)/6-311++G(3df,2p)
 --------------------------------------

 -------------
 ccsd(t) iener
 -------------
 Symbolic Z-matrix:
 Charge =  0 Multiplicity = 4

                         Standard orientation:
 ---------------------------------------------------------------------
 Center     Atomic      Atomic             Coordinates (Angstroms)
 Number     Number       Type             X           Y           Z
 ---------------------------------------------------------------------
      1          6           0        0.046571    0.518690   -0.187218
      2          6           0       -1.288266   -0.077947    0.011982
      3          1           0       -1.690617   -0.769645   -0.724589
      4          1           0       -1.707787   -0.130327    1.013007
      5          1           0        1.566030   -0.608868   -0.580204
      6          8           0        1.160318   -0.141952    0.167900
 ---------------------------------------------------------------------

 SCF Done:  E(UHF) =  -152.241660548     A.U. after   16 cycles
 E2 =    -0.4854902605D+00 EUMP2 =    -0.15272715080838D+03
 CCSD(T)
 CCSD(T)= -0.15277573553D+03

 The electronic state is 4-A.
 Alpha  occ. eigenvalues --  -20.60255 -11.30489 -11.25635  -1.42521  -1.03896
 Alpha  occ. eigenvalues --   -0.84598  -0.70898  -0.64371  -0.63069  -0.59753
 Alpha  occ. eigenvalues --   -0.44346  -0.37253  -0.35772
 Alpha virt. eigenvalues --    0.04143   0.05990   0.06988   0.10333   0.13061
 Alpha virt. eigenvalues --    0.13695   0.14108   0.15243   0.18269   0.19749
 Alpha virt. eigenvalues --    0.20073   0.25126   0.25943   0.28874   0.30309

  Beta  occ. eigenvalues --  -20.59213 -11.25678 -11.23144  -1.38614  -0.91210
  Beta  occ. eigenvalues --   -0.77284  -0.62978  -0.58546  -0.56537  -0.52103
  Beta virt. eigenvalues --    0.03662   0.05094   0.06819   0.07046   0.10461
  Beta virt. eigenvalues --    0.11807   0.13917   0.14182   0.15274   0.18326
  Beta virt. eigenvalues --    0.19736   0.20164   0.21409   0.24593   0.27270

 Mulliken charges and spin densities:
               1          2
     1  C    0.336114   1.944713
     2  C   -0.217379   1.041577
     3  H    0.116439  -0.019751
     4  H    0.120537  -0.018920
     5  H    0.222653   0.033717
     6  O   -0.578363   0.018664
 Sum of Mulliken charges =  -0.00000   3.00000

 Dipole moment (field-independent basis, Debye):
    X=             -0.2124    Y=             -1.1967    Z=             -1.1823  Tot=              1.6956
 Quadrupole moment (field-independent basis, Debye-Ang):
   XX=            -17.2429   YY=            -18.8476   ZZ=            -17.6747
   XY=             -0.6883   XZ=             -2.8173   YZ=              1.4863

 Normal termination of Gaussian 09 at Thu Mar  7 04:39:08 2019.
