 Gaussian 09, Revision E.01,
 Gaussian 09:  EM64L-G09RevE.01 30-Nov-2015

 --------------------------------------
 #p ccsd(t,maxcyc=200)/6-311++G(3df,2p)
 --------------------------------------

 -------------
 ccsd(t) iener
 -------------
 Symbolic Z-matrix:
 Charge =  0 Multiplicity = 4

                         Standard orientation:
 ---------------------------------------------------------------------
 Center     Atomic      Atomic             Coordinates (Angstroms)
 Number     Number       Type             X           Y           Z
 ---------------------------------------------------------------------
      1          6           0        1.386065   -0.431978   -0.038266
      2          6           0        0.153289    0.473386    0.046514
      3          1           0        0.216734    1.200150   -0.765639
      4          1           0        0.210113    0.989613    1.012180
      5          1           0       -1.193300   -0.800259    0.629188
      6          8           0       -1.058708   -0.204744   -0.115652
 ---------------------------------------------------------------------

 SCF Done:  E(UHF) =  -152.220897701     A.U. after   16 cycles
 E2 =    -0.4809557959D+00 EUMP2 =    -0.15270185349657D+03
 CCSD(T)
 CCSD(T)= -0.15274874152D+03

 The electronic state is 4-A.
 Alpha  occ. eigenvalues --  -20.57616 -11.31607 -11.28793  -1.38833  -1.02874
 Alpha  occ. eigenvalues --   -0.83600  -0.71143  -0.64186  -0.60703  -0.53400
 Alpha  occ. eigenvalues --   -0.46595  -0.41554  -0.39802
 Alpha virt. eigenvalues --    0.04218   0.06250   0.07378   0.09431   0.13109
 Alpha virt. eigenvalues --    0.13806   0.14077   0.14385   0.16657   0.18505
 Alpha virt. eigenvalues --    0.19795   0.26792   0.27398   0.31268   0.33179

  Beta  occ. eigenvalues --  -20.57336 -11.31430 -11.21553  -1.37837  -0.95032
  Beta  occ. eigenvalues --   -0.72062  -0.65032  -0.61699  -0.52450  -0.47227
  Beta virt. eigenvalues --    0.02268   0.05212   0.06159   0.07187   0.10381
  Beta virt. eigenvalues --    0.10864   0.12733   0.13705   0.14483   0.16317
  Beta virt. eigenvalues --    0.19540   0.21789   0.22578   0.24038   0.27475

 Mulliken charges and spin densities:
               1          2
     1  C   -0.300825   3.027007
     2  C    0.502127  -0.124369
     3  H    0.119694   0.039430
     4  H    0.120857   0.038840
     5  H    0.209974   0.000848
     6  O   -0.651828   0.018244
 Sum of Mulliken charges =  -0.00000   3.00000

 Dipole moment (field-independent basis, Debye):
    X=              0.2684    Y=              0.2902    Z=              1.3969  Tot=              1.4518
 Quadrupole moment (field-independent basis, Debye-Ang):
   XX=            -20.7982   YY=            -17.1485   ZZ=            -17.6026
   XY=              1.3321   XZ=             -1.9211   YZ=             -1.4240

 88\PMP3-0=-152.722913\MP4SDQ=-152.7280329\CCSD=-152.7293861\CCSD(T)=-1
 Normal termination of Gaussian 09 at Thu Mar  7 04:39:53 2019.
