 Gaussian 09, Revision E.01,
 Gaussian 09:  EM64L-G09RevE.01 30-Nov-2015

 --------------------------------------
 #p ccsd(t,maxcyc=200)/6-311++G(3df,2p)
 --------------------------------------

 -------------
 ccsd(t) iener
 -------------
 Symbolic Z-matrix:
 Charge =  1 Multiplicity = 1

                         Standard orientation:
 ---------------------------------------------------------------------
 Center     Atomic      Atomic             Coordinates (Angstroms)
 Number     Number       Type             X           Y           Z
 ---------------------------------------------------------------------
      1          6           0       -1.280063   -0.000007    0.010767
      2          6           0       -0.009545   -0.000052    0.011913
      3          1           0       -1.827748   -0.941261    0.022255
      4          1           0       -1.827266    0.941551    0.022365
      5          1           0        1.741578   -0.000119    0.715476
      6          8           0        1.206386    0.000023   -0.112022
 ---------------------------------------------------------------------

 SCF Done:  E(RHF) =  -152.047950067     A.U. after   13 cycles
 E2 =    -0.5218370009D+00 EUMP2 =    -0.15256978706805D+03
 CCSD(T)
 CCSD(T)= -0.15261271998D+03

 The electronic state is 1-A.
 Alpha  occ. eigenvalues --  -20.95245 -11.65608 -11.51820  -1.78764  -1.33848
 Alpha  occ. eigenvalues --   -1.15882  -0.98330  -0.94509  -0.93419  -0.84365
 Alpha  occ. eigenvalues --   -0.67480
 Alpha virt. eigenvalues --   -0.15297  -0.12798  -0.09423  -0.07747  -0.07167
 Alpha virt. eigenvalues --   -0.04520  -0.03422  -0.01297  -0.00299   0.00637
 Alpha virt. eigenvalues --    0.02923   0.05123   0.05292   0.06353   0.08351

 Mulliken charges:
               1
     1  C   -0.100107
     2  C    0.785077
     3  H    0.231898
     4  H    0.231848
     5  H    0.347773
     6  O   -0.496488
 Sum of Mulliken charges =   1.00000

 Dipole moment (field-independent basis, Debye):
    X=             -0.3655    Y=             -0.0002    Z=              1.6720  Tot=              1.7115
 Quadrupole moment (field-independent basis, Debye-Ang):
   XX=             -3.9036   YY=            -13.5414   ZZ=            -15.8291
   XY=             -0.0004   XZ=              3.3159   YZ=             -0.0000

 .5887551\CCSD(T)=-152.61272\RMSD=5.017e-09\PG=C01 [X(C2H3O1)]\\@
 Normal termination of Gaussian 09 at Thu Mar  7 04:48:37 2019.
