 Gaussian 09, Revision E.01,
 Gaussian 09:  EM64L-G09RevE.01 30-Nov-2015

 --------------------------------------
 #p ccsd(t,maxcyc=200)/6-311++G(3df,2p)
 --------------------------------------

 -------------
 ccsd(t) iener
 -------------
 Symbolic Z-matrix:
 Charge =  1 Multiplicity = 1

                         Standard orientation:
 ---------------------------------------------------------------------
 Center     Atomic      Atomic             Coordinates (Angstroms)
 Number     Number       Type             X           Y           Z
 ---------------------------------------------------------------------
      1          6           0       -1.304529    0.000324   -0.183678
      2          6           0        1.178274    0.000031    0.003323
      3          1           0        1.667435   -0.966365   -0.005025
      4          1           0       -1.896320   -0.001111    0.747404
      5          8           0       -0.085109   -0.000146    0.042937
      6          1           0        1.667289    0.966517   -0.003745
 ---------------------------------------------------------------------

 SCF Done:  E(RHF) =  -151.933064369     A.U. after   15 cycles
 E2 =    -0.5176146429D+00 EUMP2 =    -0.15245067901159D+03
 CCSD(T)
 CCSD(T)= -0.15250896478D+03

 The electronic state is 1-A.
 Alpha  occ. eigenvalues --  -20.99304 -11.66145 -11.58305  -1.83300  -1.38846
 Alpha  occ. eigenvalues --   -1.08476  -1.03827  -0.99986  -0.92049  -0.83942
 Alpha  occ. eigenvalues --   -0.60301
 Alpha virt. eigenvalues --   -0.20272  -0.13946  -0.11036  -0.07627  -0.06597
 Alpha virt. eigenvalues --   -0.04929  -0.03693  -0.00742  -0.00546   0.00000
 Alpha virt. eigenvalues --    0.02769   0.03222   0.03393   0.05823   0.10600

 Mulliken charges:
               1
     1  C    0.179156
     2  C    0.457087
     3  H    0.245959
     4  H    0.224873
     5  O   -0.353061
     6  H    0.245984
 Sum of Mulliken charges =   1.00000

 Dipole moment (field-independent basis, Debye):
    X=              2.7756    Y=             -0.0016    Z=              1.4653  Tot=              3.1386
 Quadrupole moment (field-independent basis, Debye-Ang):
   XX=             -5.6394   YY=            -13.3104   ZZ=            -16.8162
   XY=              0.0043   XZ=             -3.1248   YZ=              0.0031

 .4795965\CCSD(T)=-152.5089648\RMSD=2.312e-09\PG=C01 [X(C2H3O1)]\\@
 Normal termination of Gaussian 09 at Thu Mar  7 04:32:03 2019.
