 Gaussian 09, Revision E.01,
 Gaussian 09:  EM64L-G09RevE.01 30-Nov-2015

 --------------------------------------
 #p ccsd(t,maxcyc=200)/6-311++G(3df,2p)
 --------------------------------------

 -------------
 ccsd(t) iener
 -------------
 Symbolic Z-matrix:
 Charge =  0 Multiplicity = 2

                         Standard orientation:
 ---------------------------------------------------------------------
 Center     Atomic      Atomic             Coordinates (Angstroms)
 Number     Number       Type             X           Y           Z
 ---------------------------------------------------------------------
      1          6           0        0.028291   -0.403269   -0.009423
      2          6           0        1.240634    0.101526    0.016020
      3          1           0        1.400233    1.168968    0.147229
      4          1           0        2.105264   -0.538016   -0.072695
      5          1           0       -1.802769   -0.285363    0.475764
      6          8           0       -1.164534    0.183109   -0.073735
 ---------------------------------------------------------------------

 SCF Done:  E(UHF) =  -152.309926080     A.U. after   23 cycles
 E2 =    -0.5224565473D+00 EUMP2 =    -0.15283238262751D+03
 CCSD(T)
 CCSD(T)= -0.15288399847D+03

 The electronic state is 2-A.
 Alpha  occ. eigenvalues --  -20.61469 -11.31235 -11.21507  -1.43860  -1.03817
 Alpha  occ. eigenvalues --   -0.81298  -0.71167  -0.65335  -0.63431  -0.56982
 Alpha  occ. eigenvalues --   -0.41389  -0.36545
 Alpha virt. eigenvalues --    0.04205   0.05835   0.06832   0.11133   0.11607
 Alpha virt. eigenvalues --    0.12708   0.13807   0.15160   0.19111   0.20301
 Alpha virt. eigenvalues --    0.21316   0.22192   0.25841   0.26687   0.28534

  Beta  occ. eigenvalues --  -20.60790 -11.27824 -11.22360  -1.41297  -1.01219
  Beta  occ. eigenvalues --   -0.79921  -0.65181  -0.62030  -0.59642  -0.54812
  Beta  occ. eigenvalues --   -0.37482
  Beta virt. eigenvalues --    0.03723   0.05751   0.06889   0.08944   0.12317
  Beta virt. eigenvalues --    0.13279   0.13810   0.14850   0.15799   0.19800
  Beta virt. eigenvalues --    0.21338   0.21605   0.23022   0.26424   0.27815

 Mulliken charges and spin densities:
               1          2
     1  C    0.402388   1.565571
     2  C   -0.286998  -0.742505
     3  H    0.112809   0.095755
     4  H    0.134908   0.036981
     5  H    0.247160  -0.003011
     6  O   -0.610267   0.047209
 Sum of Mulliken charges =  -0.00000   1.00000

 Dipole moment (field-independent basis, Debye):
    X=             -0.6067    Y=             -0.5942    Z=              1.0034  Tot=              1.3145
 Quadrupole moment (field-independent basis, Debye-Ang):
   XX=            -14.1152   YY=            -18.1888   ZZ=            -19.6201
   XY=              1.9925   XZ=             -2.2284   YZ=             -0.0893

 Normal termination of Gaussian 09 at Thu Mar  7 04:43:09 2019.
