 Gaussian 09, Revision E.01,
 Gaussian 09:  EM64L-G09RevE.01 30-Nov-2015

 --------------------------------------
 #p ccsd(t,maxcyc=200)/6-311++G(3df,2p)
 --------------------------------------

 -------------
 ccsd(t) iener
 -------------
 Symbolic Z-matrix:
 Charge =  1 Multiplicity = 1

                         Standard orientation:
 ---------------------------------------------------------------------
 Center     Atomic      Atomic             Coordinates (Angstroms)
 Number     Number       Type             X           Y           Z
 ---------------------------------------------------------------------
      1          6           0       -1.208758   -0.000001   -0.000002
      2          6           0        0.215806    0.000001   -0.000006
      3          1           0       -1.554976   -0.830255   -0.626150
      4          1           0       -1.554979   -0.127151    1.032094
      5          1           0       -1.554961    0.957412   -0.405920
      6          8           0        1.327828   -0.000001    0.000004
 ---------------------------------------------------------------------

 SCF Done:  E(RHF) =  -152.116197233     A.U. after   11 cycles
 E2 =    -0.5305005620D+00 EUMP2 =    -0.15264669779470D+03
 CCSD(T)
 CCSD(T)= -0.15268268352D+03

 The electronic state is 1-A.
 Alpha  occ. eigenvalues --  -20.96686 -11.70765 -11.54019  -1.82084  -1.34839
 Alpha  occ. eigenvalues --   -1.06839  -0.96095  -0.95364  -0.95363  -0.84507
 Alpha  occ. eigenvalues --   -0.84507
 Alpha virt. eigenvalues --   -0.13797  -0.13797  -0.12271  -0.07388  -0.07388
 Alpha virt. eigenvalues --   -0.06796  -0.02479  -0.01483  -0.01483  -0.01378
 Alpha virt. eigenvalues --   -0.01377   0.00519   0.03794   0.08671   0.08671

 Mulliken charges:
               1
     1  C   -0.147848
     2  C    0.943941
     3  H    0.233578
     4  H    0.233580
     5  H    0.233578
     6  O   -0.496829
 Sum of Mulliken charges =   1.00000

 Dipole moment (field-independent basis, Debye):
    X=             -3.0314    Y=              0.0000    Z=              0.0000  Tot=              3.0314
 Quadrupole moment (field-independent basis, Debye-Ang):
   XX=            -10.1299   YY=            -13.9077   ZZ=            -13.9079
   XY=              0.0000   XZ=             -0.0001   YZ=              0.0000

 6584461\CCSD(T)=-152.6826835\RMSD=8.847e-09\PG=C01 [X(C2H3O1)]\\@
 Normal termination of Gaussian 09 at Thu Mar  7 04:28:29 2019.
