 Gaussian 09, Revision E.01,
 Gaussian 09:  EM64L-G09RevE.01 30-Nov-2015

 --------------------------------------
 #p ccsd(t,maxcyc=200)/6-311++G(3df,2p)
 --------------------------------------

 -------------
 ccsd(t) iener
 -------------
 Symbolic Z-matrix:
 Charge =  1 Multiplicity = 3

                         Standard orientation:
 ---------------------------------------------------------------------
 Center     Atomic      Atomic             Coordinates (Angstroms)
 Number     Number       Type             X           Y           Z
 ---------------------------------------------------------------------
      1          6           0       -0.035615   -0.420187    0.000002
      2          6           0        1.262315    0.095534   -0.000013
      3          1           0        2.105520   -0.583097    0.000040
      4          1           0        1.421510    1.172550    0.000008
      5          1           0       -1.940268   -0.324661   -0.000038
      6          8           0       -1.118370    0.210391    0.000008
 ---------------------------------------------------------------------

 SCF Done:  E(UHF) =  -152.019931399     A.U. after   18 cycles
 E2 =    -0.4793180439D+00 EUMP2 =    -0.15249924944241D+03
 CCSD(T)
 CCSD(T)= -0.15254517162D+03

 The electronic state is 3-A.
 Alpha  occ. eigenvalues --  -20.92249 -11.66140 -11.55405  -1.76654  -1.35468
 Alpha  occ. eigenvalues --   -1.13613  -1.01981  -0.95565  -0.92395  -0.87493
 Alpha  occ. eigenvalues --   -0.71673  -0.68812
 Alpha virt. eigenvalues --   -0.13761  -0.11259  -0.08294  -0.06742  -0.04916
 Alpha virt. eigenvalues --   -0.03522  -0.02499  -0.00603   0.00204   0.01800
 Alpha virt. eigenvalues --    0.04176   0.04969   0.06891   0.08928   0.10357

  Beta  occ. eigenvalues --  -20.91182 -11.63139 -11.53692  -1.73291  -1.25456
  Beta  occ. eigenvalues --   -1.10413  -0.91762  -0.91340  -0.85358  -0.84972
  Beta virt. eigenvalues --   -0.23061  -0.17457  -0.10319  -0.07857  -0.06481
  Beta virt. eigenvalues --   -0.04329  -0.03617  -0.02478  -0.01937  -0.00248
  Beta virt. eigenvalues --    0.02938   0.04407   0.04722   0.05443   0.07963

 Mulliken charges and spin densities:
               1          2
     1  C    0.813038   1.147084
     2  C   -0.104418   0.749462
     3  H    0.221365  -0.044072
     4  H    0.207016   0.008307
     5  H    0.338164   0.003481
     6  O   -0.475165   0.135738
 Sum of Mulliken charges =   1.00000   2.00000

 Dipole moment (field-independent basis, Debye):
    X=              0.4205    Y=             -1.1469    Z=             -0.0001  Tot=              1.2215
 Quadrupole moment (field-independent basis, Debye-Ang):
   XX=             -2.7858   YY=            -14.3436   ZZ=            -16.1252
   XY=              2.5066   XZ=              0.0003   YZ=              0.0000

 Normal termination of Gaussian 09 at Thu Mar  7 05:00:27 2019.
