 Gaussian 09, Revision E.01,
 Gaussian 09:  EM64L-G09RevE.01 30-Nov-2015

 --------------------------------------
 #p ccsd(t,maxcyc=200)/6-311++G(3df,2p)
 --------------------------------------

 -------------
 ccsd(t) iener
 -------------
 Symbolic Z-matrix:
 Charge =  1 Multiplicity = 1

                         Standard orientation:
 ---------------------------------------------------------------------
 Center     Atomic      Atomic             Coordinates (Angstroms)
 Number     Number       Type             X           Y           Z
 ---------------------------------------------------------------------
      1          6           0       -0.720171    0.554711    0.000018
      2          6           0       -1.535824   -0.701280    0.000011
      3          6           0        0.684821    0.140582   -0.000072
      4          1           0       -0.894886    1.196991   -0.880969
      5          1           0       -0.894699    1.197082    0.880992
      6          1           0       -2.583961   -0.363704    0.000015
      7          8           0        1.725074   -0.249306    0.000027
 ---------------------------------------------------------------------

 SCF Done:  E(RHF) =  -189.852181547     A.U. after   14 cycles
 E2 =    -0.6453486670D+00 EUMP2 =    -0.19049753021445D+03
 CCSD(T)
 CCSD(T)= -0.19055546398D+03

 The electronic state is 1-A.
 Alpha  occ. eigenvalues --  -20.96141 -11.69778 -11.55290 -11.52007  -1.81495
 Alpha  occ. eigenvalues --   -1.36702  -1.11343  -1.04873  -0.96551  -0.94638
 Alpha  occ. eigenvalues --   -0.91501  -0.85157  -0.80199  -0.61020
 Alpha virt. eigenvalues --   -0.16462  -0.13487  -0.13286  -0.11624  -0.07812
 Alpha virt. eigenvalues --   -0.06543  -0.05704  -0.03268  -0.02279  -0.01673
 Alpha virt. eigenvalues --   -0.00067   0.00480   0.02054   0.02994   0.03905

 Mulliken charges:
               1
     1  C    0.064572
     2  C   -0.376454
     3  C    1.117495
     4  H    0.231992
     5  H    0.231998
     6  H    0.228426
     7  O   -0.498029
 Sum of Mulliken charges =   1.00000

 Dipole moment (field-independent basis, Debye):
    X=             -1.7574    Y=              3.4234    Z=             -0.0001  Tot=              3.8481
 Quadrupole moment (field-independent basis, Debye-Ang):
   XX=            -13.1710   YY=            -21.4414   ZZ=            -18.5093
   XY=             -2.1177   XZ=             -0.0002   YZ=             -0.0001

 DQ=-190.5261599\CCSD=-190.5245255\CCSD(T)=-190.555464\RMSD=7.238e-09\P
 Normal termination of Gaussian 09 at Thu Mar  7 05:06:30 2019.
