 Gaussian 09, Revision E.01,
 Gaussian 09:  EM64L-G09RevE.01 30-Nov-2015

 --------------------------------------
 #p ccsd(t,maxcyc=200)/6-311++G(3df,2p)
 --------------------------------------

 -------------
 ccsd(t) iener
 -------------
 Symbolic Z-matrix:
 Charge =  1 Multiplicity = 1

                         Standard orientation:
 ---------------------------------------------------------------------
 Center     Atomic      Atomic             Coordinates (Angstroms)
 Number     Number       Type             X           Y           Z
 ---------------------------------------------------------------------
      1          6           0       -0.979010    0.690460   -0.000005
      2          6           0       -0.995690   -0.663248   -0.000002
      3          6           0        0.204645   -0.006374   -0.000016
      4          1           0       -1.537032    1.615083    0.000029
      5          1           0        1.944939    0.738416    0.000073
      6          1           0       -1.576167   -1.573853    0.000056
      7          8           0        1.473574   -0.113084   -0.000003
 ---------------------------------------------------------------------

 SCF Done:  E(RHF) =  -189.947376306     A.U. after   13 cycles
 E2 =    -0.6594443517D+00 EUMP2 =    -0.19060682065755D+03
 CCSD(T)
 CCSD(T)= -0.19065456991D+03

 The electronic state is 1-A.
 Alpha  occ. eigenvalues --  -20.86437 -11.61314 -11.54726 -11.54368  -1.69850
 Alpha  occ. eigenvalues --   -1.49371  -1.09805  -1.05659  -0.99935  -0.91089
 Alpha  occ. eigenvalues --   -0.86891  -0.80166  -0.73821  -0.70617
 Alpha virt. eigenvalues --   -0.11794  -0.10440  -0.08077  -0.07260  -0.07212
 Alpha virt. eigenvalues --   -0.03963  -0.03897  -0.03087  -0.02220   0.01329
 Alpha virt. eigenvalues --    0.01706   0.02551   0.02559   0.04333   0.04531

 Mulliken charges:
               1
     1  C    0.127482
     2  C   -0.003402
     3  C    0.627598
     4  H    0.292461
     5  H    0.318432
     6  H    0.287678
     7  O   -0.650249
 Sum of Mulliken charges =   1.00000

 Dipole moment (field-independent basis, Debye):
    X=             -1.8781    Y=              1.6611    Z=              0.0002  Tot=              2.5073
 Quadrupole moment (field-independent basis, Debye-Ang):
   XX=            -10.6096   YY=            -13.4878   ZZ=            -21.1931
   XY=              3.7438   XZ=              0.0002   YZ=              0.0001

 MP4SDQ=-190.6241409\CCSD=-190.6231394\CCSD(T)=-190.6545699\RMSD=9.885e
 Normal termination of Gaussian 09 at Thu Mar  7 05:02:05 2019.
