 Gaussian 09, Revision E.01,
 Gaussian 09:  EM64L-G09RevE.01 30-Nov-2015

 --------------------------------------
 #p ccsd(t,maxcyc=200)/6-311++G(3df,2p)
 --------------------------------------

 -------------
 ccsd(t) iener
 -------------
 Symbolic Z-matrix:
 Charge =  1 Multiplicity = 1

                         Standard orientation:
 ---------------------------------------------------------------------
 Center     Atomic      Atomic             Coordinates (Angstroms)
 Number     Number       Type             X           Y           Z
 ---------------------------------------------------------------------
      1          6           0       -1.899655   -0.158408   -0.000027
      2          6           0       -0.721172    0.104069   -0.000045
      3          6           0        0.605509    0.487071   -0.000177
      4          1           0       -2.942422   -0.403189    0.000415
      5          1           0        1.366263   -1.258880   -0.000066
      6          1           0        0.884536    1.539324    0.000517
      7          8           0        1.597942   -0.309206    0.000078
 ---------------------------------------------------------------------

 SCF Done:  E(RHF) =  -189.916942600     A.U. after   16 cycles
 E2 =    -0.6705079886D+00 EUMP2 =    -0.19058745058842D+03
 CCSD(T)
 CCSD(T)= -0.19063649181D+03

 The electronic state is 1-A.
 Alpha  occ. eigenvalues --  -20.90224 -11.65360 -11.52585 -11.47842  -1.73425
 Alpha  occ. eigenvalues --   -1.32223  -1.20734  -1.08614  -0.96895  -0.95441
 Alpha  occ. eigenvalues --   -0.87026  -0.83485  -0.66228  -0.65849
 Alpha virt. eigenvalues --   -0.20312  -0.10953  -0.08082  -0.07725  -0.05946
 Alpha virt. eigenvalues --   -0.04764  -0.03248  -0.01513  -0.00298  -0.00197
 Alpha virt. eigenvalues --    0.01659   0.02012   0.03381   0.03925   0.05595

 Mulliken charges:
               1
     1  C    0.558811
     2  C   -0.176679
     3  C    0.195730
     4  H    0.380074
     5  H    0.316747
     6  H    0.264963
     7  O   -0.539647
 Sum of Mulliken charges =   1.00000

 Dipole moment (field-independent basis, Debye):
    X=             -1.3115    Y=             -0.3858    Z=             -0.0001  Tot=              1.3671
 Quadrupole moment (field-independent basis, Debye-Ang):
   XX=             -6.6998   YY=            -15.3457   ZZ=            -21.7723
   XY=              1.0134   XZ=             -0.0017   YZ=              0.0005

 MP4SDQ=-190.6029303\CCSD=-190.601769\CCSD(T)=-190.6364918\RMSD=9.200e-
 Normal termination of Gaussian 09 at Thu Mar  7 04:59:56 2019.
