 Gaussian 09, Revision E.01,
 Gaussian 09:  EM64L-G09RevE.01 30-Nov-2015

 --------------------------------------
 #p ccsd(t,maxcyc=200)/6-311++G(3df,2p)
 --------------------------------------

 -------------
 ccsd(t) iener
 -------------
 Symbolic Z-matrix:
 Charge =  1 Multiplicity = 1

                         Standard orientation:
 ---------------------------------------------------------------------
 Center     Atomic      Atomic             Coordinates (Angstroms)
 Number     Number       Type             X           Y           Z
 ---------------------------------------------------------------------
      1          6           0       -0.426663    1.858081    0.000000
      2          6           0       -0.000000    0.728593    0.000000
      3          6           0        0.567984   -0.530066    0.000000
      4          1           0       -0.815964    2.855933    0.000000
      5          1           0       -1.051710   -1.532110   -0.000000
      6          1           0        1.649261   -0.656434    0.000000
      7          8           0       -0.078690   -1.625879   -0.000000
 ---------------------------------------------------------------------

 SCF Done:  E(RHF) =  -189.916938797     A.U. after   16 cycles
 E2 =    -0.6705122339D+00 EUMP2 =    -0.19058745103079D+03
 CCSD(T)
 CCSD(T)= -0.19063649233D+03

 The electronic state is 1-A'.
 Alpha  occ. eigenvalues --  -20.90223 -11.65360 -11.52585 -11.47842  -1.73423
 Alpha  occ. eigenvalues --   -1.32222  -1.20732  -1.08614  -0.96894  -0.95441
 Alpha  occ. eigenvalues --   -0.87025  -0.83484  -0.66227  -0.65847
 Alpha virt. eigenvalues --   -0.20311  -0.10955  -0.08082  -0.07724  -0.05946
 Alpha virt. eigenvalues --   -0.04764  -0.03248  -0.01513  -0.00299  -0.00200
 Alpha virt. eigenvalues --    0.01662   0.02010   0.03381   0.03928   0.05595

 Mulliken charges:
               1
     1  C    0.558154
     2  C   -0.176357
     3  C    0.196156
     4  H    0.380081
     5  H    0.316735
     6  H    0.264938
     7  O   -0.539707
 Sum of Mulliken charges =   1.00000

 Dipole moment (field-independent basis, Debye):
    X=             -0.5673    Y=              1.2436    Z=             -0.0000  Tot=              1.3669
 Quadrupole moment (field-independent basis, Debye-Ang):
   XX=            -14.8918   YY=             -7.1496   ZZ=            -21.7725
   XY=             -2.1806   XZ=             -0.0000   YZ=              0.0000

 Normal termination of Gaussian 09 at Thu Mar  7 05:00:33 2019.
