 Gaussian 09, Revision E.01,
 Gaussian 09:  EM64L-G09RevE.01 30-Nov-2015

 --------------------------------------
 #p ccsd(t,maxcyc=200)/6-311++G(3df,2p)
 --------------------------------------

 -------------
 ccsd(t) iener
 -------------
 Symbolic Z-matrix:
 Charge =  1 Multiplicity = 1

                         Standard orientation:
 ---------------------------------------------------------------------
 Center     Atomic      Atomic             Coordinates (Angstroms)
 Number     Number       Type             X           Y           Z
 ---------------------------------------------------------------------
      1          6           0       -0.603325    0.850606   -0.027836
      2          6           0        1.099155   -0.494670   -0.043388
      3          8           0        0.787858    0.797924    0.014888
      4          6           0       -0.112789   -1.097773    0.171247
      5          6           0       -1.231413   -0.386555   -0.136135
      6          1           0       -1.038205    1.781908    0.310521
      7          1           0        2.110016   -0.824530   -0.219024
      8          1           0       -2.284444   -0.570410    0.006073
 ---------------------------------------------------------------------

 SCF Done:  E(RHF) =  -227.692975998     A.U. after   21 cycles
 E2 =    -0.8259403021D+00 EUMP2 =    -0.22851891629986D+03
 CCSD(T)
 CCSD(T)= -0.22858675817D+03

 The electronic state is 1-A.
 Alpha  occ. eigenvalues --  -20.90324 -11.60434 -11.58288 -11.57046 -11.50916
 Alpha  occ. eigenvalues --   -1.74456  -1.37998  -1.27075  -1.07234  -1.03782
 Alpha  occ. eigenvalues --   -0.96819  -0.91654  -0.86941  -0.85074  -0.80807
 Alpha  occ. eigenvalues --   -0.68580  -0.58778
 Alpha virt. eigenvalues --   -0.23643  -0.11388  -0.09084  -0.07317  -0.06217
 Alpha virt. eigenvalues --   -0.05853  -0.04195  -0.02990  -0.02873  -0.00770
 Alpha virt. eigenvalues --   -0.00351   0.00829   0.02093   0.02918   0.04034

 Mulliken charges:
               1
     1  C    0.353830
     2  C    0.390466
     3  O   -0.660497
     4  C    0.308827
     5  C   -0.133975
     6  H    0.222432
     7  H    0.284095
     8  H    0.234823
 Sum of Mulliken charges =   1.00000

 Dipole moment (field-independent basis, Debye):
    X=             -0.3639    Y=             -1.0810    Z=             -0.3680  Tot=              1.1985
 Quadrupole moment (field-independent basis, Debye-Ang):
   XX=            -14.3314   YY=            -20.0955   ZZ=            -27.9758
   XY=             -3.8421   XZ=             -1.1361   YZ=              1.7996

 \CCSD(T)=-228.5867582\RMSD=4.320e-09\PG=C01 [X(C4H3O1)]\\@
 Normal termination of Gaussian 09 at Thu Mar  7 08:06:10 2019.
