 Gaussian 09, Revision E.01,
 Gaussian 09:  EM64L-G09RevE.01 30-Nov-2015

 --------------------------------------
 #p ccsd(t,maxcyc=200)/6-311++G(3df,2p)
 --------------------------------------

 -------------
 ccsd(t) iener
 -------------
 Symbolic Z-matrix:
 Charge =  1 Multiplicity = 1

                         Standard orientation:
 ---------------------------------------------------------------------
 Center     Atomic      Atomic             Coordinates (Angstroms)
 Number     Number       Type             X           Y           Z
 ---------------------------------------------------------------------
      1          6           0        1.463696   -0.673627   -0.093060
      2          6           0       -1.178878   -0.004913    0.464038
      3          8           0       -1.850725    0.004927   -0.517669
      4          6           0        0.318514   -0.002085    0.234652
      5          6           0        1.462186    0.675843   -0.085005
      6          1           0        1.976335   -1.611379   -0.252293
      7          1           0       -1.536242   -0.015966    1.503071
      8          1           0        1.972595    1.616621   -0.233170
 ---------------------------------------------------------------------

 SCF Done:  E(RHF) =  -227.792103690     A.U. after   14 cycles
 E2 =    -0.7970604457D+00 EUMP2 =    -0.22858916413555D+03
 CCSD(T)
 CCSD(T)= -0.22864866718D+03

 The electronic state is 1-A.
 Alpha  occ. eigenvalues --  -20.78269 -11.56988 -11.56618 -11.56528 -11.56489
 Alpha  occ. eigenvalues --   -1.62563  -1.51675  -1.15226  -1.06908  -1.01720
 Alpha  occ. eigenvalues --   -0.95009  -0.86975  -0.81115  -0.80887  -0.76267
 Alpha  occ. eigenvalues --   -0.72309  -0.65433
 Alpha virt. eigenvalues --   -0.12703  -0.12287  -0.09751  -0.09676  -0.07427
 Alpha virt. eigenvalues --   -0.06933  -0.05037  -0.03698  -0.02769  -0.02510
 Alpha virt. eigenvalues --    0.00217   0.01711   0.02065   0.02214   0.04145

 Mulliken charges:
               1
     1  C    0.256439
     2  C    0.447679
     3  O   -0.616119
     4  C   -0.167436
     5  C    0.256210
     6  H    0.311164
     7  H    0.200815
     8  H    0.311247
 Sum of Mulliken charges =   1.00000

 Dipole moment (field-independent basis, Debye):
    X=              5.7603    Y=             -0.0204    Z=              2.1026  Tot=              6.1321
 Quadrupole moment (field-independent basis, Debye-Ang):
   XX=            -16.4493   YY=            -19.1574   ZZ=            -24.1878
   XY=              0.0472   XZ=             -5.2964   YZ=              0.0231

 Normal termination of Gaussian 09 at Thu Mar  7 07:52:33 2019.
