 Gaussian 09, Revision E.01,
 Gaussian 09:  EM64L-G09RevE.01 30-Nov-2015

 --------------------------------------
 #p ccsd(t,maxcyc=200)/6-311++G(3df,2p)
 --------------------------------------

 -------------
 ccsd(t) iener
 -------------
 Symbolic Z-matrix:
 Charge =  0 Multiplicity = 2

                         Standard orientation:
 ---------------------------------------------------------------------
 Center     Atomic      Atomic             Coordinates (Angstroms)
 Number     Number       Type             X           Y           Z
 ---------------------------------------------------------------------
      1          6           0       -0.818898   -1.005723   -0.000000
      2          6           0       -0.000000    1.097585    0.000000
      3          8           0       -1.124267    0.355166    0.000000
      4          6           0        1.129774    0.288578    0.000000
      5          6           0        0.645026   -1.003297   -0.000000
      6          1           0       -0.115855    2.170503    0.000000
      7          1           0        2.149023    0.637221    0.000000
      8          1           0        1.225553   -1.911910   -0.000000
 ---------------------------------------------------------------------

 SCF Done:  E(UHF) =  -228.026701772     A.U. after   22 cycles
 E2 =    -0.8046376736D+00 EUMP2 =    -0.22883133944528D+03
 CCSD(T)
 CCSD(T)= -0.22890697677D+03

 The electronic state is 2-A".
 Alpha  occ. eigenvalues --  -20.62846 -11.32999 -11.29901 -11.26690 -11.25380
 Alpha  occ. eigenvalues --   -1.46661  -1.11307  -1.02114  -0.81826  -0.79544
 Alpha  occ. eigenvalues --   -0.73437  -0.65497  -0.61053  -0.58668  -0.55441
 Alpha  occ. eigenvalues --   -0.43759  -0.38232  -0.36790
 Alpha virt. eigenvalues --    0.03351   0.04619   0.05783   0.09256   0.10817
 Alpha virt. eigenvalues --    0.10939   0.12098   0.13584   0.14117   0.14890
 Alpha virt. eigenvalues --    0.15406   0.16091   0.17225   0.17654   0.18001

  Beta  occ. eigenvalues --  -20.63110 -11.31362 -11.29526 -11.26387 -11.25465
  Beta  occ. eigenvalues --   -1.46251  -1.10427  -0.97243  -0.80773  -0.78414
  Beta  occ. eigenvalues --   -0.72460  -0.61512  -0.60973  -0.57920  -0.55362
  Beta  occ. eigenvalues --   -0.42009  -0.37358
  Beta virt. eigenvalues --    0.01500   0.03370   0.04660   0.05810   0.10035
  Beta virt. eigenvalues --    0.10901   0.12169   0.12909   0.13804   0.15411
  Beta virt. eigenvalues --    0.15906   0.16146   0.16768   0.17228   0.18131

 Mulliken charges and spin densities:
               1          2
     1  C   -0.271726   0.184336
     2  C    0.082723   0.854622
     3  O   -0.719499  -0.092007
     4  C    0.186891  -0.652862
     5  C    0.200255   0.777909
     6  H    0.156349  -0.053491
     7  H    0.216121   0.028790
     8  H    0.148886  -0.047297
 Sum of Mulliken charges =  -0.00000   1.00000

 Dipole moment (field-independent basis, Debye):
    X=              3.5509    Y=              2.1514    Z=              0.0000  Tot=              4.1517
 Quadrupole moment (field-independent basis, Debye-Ang):
   XX=            -31.2414   YY=            -27.1794   ZZ=            -30.2596
   XY=             -3.4149   XZ=             -0.0000   YZ=             -0.0000

 .8644587\CCSD(T)=-228.9069768\S2=0.878438\S2-1=0.831192\S2A=0.753944\R
 Normal termination of Gaussian 09 at Thu Mar  7 06:37:29 2019.
