 Gaussian 09, Revision E.01,
 Gaussian 09:  EM64L-G09RevE.01 30-Nov-2015

 --------------------------------------
 #p ccsd(t,maxcyc=200)/6-311++G(3df,2p)
 --------------------------------------

 -------------
 ccsd(t) iener
 -------------
 Symbolic Z-matrix:
 Charge =  1 Multiplicity = 1

                         Standard orientation:
 ---------------------------------------------------------------------
 Center     Atomic      Atomic             Coordinates (Angstroms)
 Number     Number       Type             X           Y           Z
 ---------------------------------------------------------------------
      1          6           0       -0.783910    0.754853   -0.022686
      2          6           0        0.101271   -1.060527    0.244608
      3          8           0       -1.084637   -0.550840   -0.116198
      4          6           0        1.214024   -0.333581   -0.125896
      5          6           0        0.619034    0.928628    0.015379
      6          1           0       -1.599489    1.432804    0.188417
      7          1           0        2.251473   -0.621682   -0.162954
      8          1           0        1.122601    1.859364    0.235693
 ---------------------------------------------------------------------

 SCF Done:  E(RHF) =  -227.701372916     A.U. after   21 cycles
 E2 =    -0.8167343524D+00 EUMP2 =    -0.22851810726814D+03
 CCSD(T)
 CCSD(T)= -0.22858985957D+03

 The electronic state is 1-A.
 Alpha  occ. eigenvalues --  -20.91454 -11.62106 -11.60323 -11.53456 -11.51644
 Alpha  occ. eigenvalues --   -1.76793  -1.38716  -1.25513  -1.07769  -1.04472
 Alpha  occ. eigenvalues --   -0.98122  -0.91668  -0.87716  -0.83983  -0.82610
 Alpha  occ. eigenvalues --   -0.66477  -0.61068
 Alpha virt. eigenvalues --   -0.24173  -0.11275  -0.09152  -0.07444  -0.06475
 Alpha virt. eigenvalues --   -0.05787  -0.04529  -0.03105  -0.02378  -0.01062
 Alpha virt. eigenvalues --   -0.00040   0.00810   0.01607   0.02651   0.03847

 Mulliken charges:
               1
     1  C    0.247110
     2  C    0.307440
     3  O   -0.574899
     4  C    0.081298
     5  C    0.224347
     6  H    0.242700
     7  H    0.252212
     8  H    0.219791
 Sum of Mulliken charges =   1.00000

 Dipole moment (field-independent basis, Debye):
    X=              1.3460    Y=              2.3288    Z=             -0.4327  Tot=              2.7244
 Quadrupole moment (field-independent basis, Debye-Ang):
   XX=            -16.7107   YY=            -19.4280   ZZ=            -27.7892
   XY=             -3.5218   XZ=             -0.8149   YZ=              2.2798

 Normal termination of Gaussian 09 at Thu Mar  7 08:17:37 2019.
