 Gaussian 09, Revision E.01,
 Gaussian 09:  EM64L-G09RevE.01 30-Nov-2015

 --------------------------------------
 #p ccsd(t,maxcyc=200)/6-311++G(3df,2p)
 --------------------------------------

 -------------
 ccsd(t) iener
 -------------
 Symbolic Z-matrix:
 Charge =  1 Multiplicity = 1

                         Standard orientation:
 ---------------------------------------------------------------------
 Center     Atomic      Atomic             Coordinates (Angstroms)
 Number     Number       Type             X           Y           Z
 ---------------------------------------------------------------------
      1          6           0        0.269673    1.387864    0.634414
      2          6           0       -0.143413   -1.003842   -0.000000
      3          8           0        0.269673   -2.044896   -0.000000
      4          6           0       -0.633749    0.308450    0.000000
      5          6           0        0.269673    1.387864   -0.634414
      6          1           0        0.494878    1.756273    1.619934
      7          1           0       -1.720254    0.364603    0.000000
      8          1           0        0.494878    1.756273   -1.619934
 ---------------------------------------------------------------------

 SCF Done:  E(RHF) =  -227.791899166     A.U. after   14 cycles
 E2 =    -0.8215247528D+00 EUMP2 =    -0.22861342391845D+03
 CCSD(T)
 CCSD(T)= -0.22866807302D+03

 The electronic state is 1-A'.
 Alpha  occ. eigenvalues --  -20.92419 -11.66615 -11.52913 -11.50849 -11.50596
 Alpha  occ. eigenvalues --   -1.77699  -1.43753  -1.21474  -1.02173  -1.01213
 Alpha  occ. eigenvalues --   -0.94063  -0.93316  -0.90390  -0.87825  -0.77513
 Alpha  occ. eigenvalues --   -0.67646  -0.63851
 Alpha virt. eigenvalues --   -0.12285  -0.11571  -0.09626  -0.08356  -0.06908
 Alpha virt. eigenvalues --   -0.06323  -0.06075  -0.02397  -0.02388  -0.01548
 Alpha virt. eigenvalues --   -0.00374   0.01162   0.01733   0.02782   0.03883

 Mulliken charges:
               1
     1  C    0.038310
     2  C    0.937706
     3  O   -0.570722
     4  C   -0.253978
     5  C    0.038310
     6  H    0.310839
     7  H    0.188696
     8  H    0.310839
 Sum of Mulliken charges =   1.00000

 Dipole moment (field-independent basis, Debye):
    X=             -0.7231    Y=              1.7711    Z=              0.0000  Tot=              1.9130
 Quadrupole moment (field-independent basis, Debye-Ang):
   XX=            -23.6605   YY=            -18.4845   ZZ=            -20.3061
   XY=              2.2375   XZ=              0.0000   YZ=              0.0000

 6248055\CCSD(T)=-228.668073\RMSD=8.629e-09\PG=CS [SG(C2H1O1),X(C2H2)]\
 Normal termination of Gaussian 09 at Thu Mar  7 07:35:05 2019.
