 Gaussian 09, Revision E.01,
 Gaussian 09:  EM64L-G09RevE.01 30-Nov-2015

 --------------------------------------
 #p ccsd(t,maxcyc=200)/6-311++G(3df,2p)
 --------------------------------------

 -------------
 ccsd(t) iener
 -------------
 Symbolic Z-matrix:
 Charge =  0 Multiplicity = 2

                         Standard orientation:
 ---------------------------------------------------------------------
 Center     Atomic      Atomic             Coordinates (Angstroms)
 Number     Number       Type             X           Y           Z
 ---------------------------------------------------------------------
      1          6           0       -1.115926   -0.521584    0.000024
      2          1           0        2.211231   -0.412018    0.000060
      3          6           0       -0.749475    0.786960    0.000028
      4          6           0        1.140646   -0.341802    0.000093
      5          6           0        0.120389   -1.216898   -0.000080
      6          1           0       -2.115548   -0.917297    0.000029
      7          1           0       -1.310360    1.704391    0.000042
      8          8           0        0.605109    0.923109   -0.000064
 ---------------------------------------------------------------------

 SCF Done:  E(UHF) =  -228.047590159     A.U. after   26 cycles
 E2 =    -0.8064735744D+00 EUMP2 =    -0.22885406373345D+03
 CCSD(T)
 CCSD(T)= -0.22893212639D+03

 The electronic state is 2-A.
 Alpha  occ. eigenvalues --  -20.62143 -11.29822 -11.27926 -11.26872 -11.23493
 Alpha  occ. eigenvalues --   -1.46082  -1.10612  -1.01331  -0.80557  -0.78602
 Alpha  occ. eigenvalues --   -0.73381  -0.63826  -0.61259  -0.59156  -0.55277
 Alpha  occ. eigenvalues --   -0.46601  -0.42710  -0.34020
 Alpha virt. eigenvalues --    0.04203   0.04953   0.05582   0.10107   0.10312
 Alpha virt. eigenvalues --    0.11114   0.12562   0.14517   0.14680   0.15319
 Alpha virt. eigenvalues --    0.16059   0.16551   0.17810   0.18656   0.19267

  Beta  occ. eigenvalues --  -20.61960 -11.29110 -11.28705 -11.24338 -11.23097
  Beta  occ. eigenvalues --   -1.45342  -1.07498  -1.00384  -0.79988  -0.76880
  Beta  occ. eigenvalues --   -0.69023  -0.63953  -0.60767  -0.58310  -0.54030
  Beta  occ. eigenvalues --   -0.40726  -0.34400
  Beta virt. eigenvalues --    0.03953   0.04577   0.05242   0.07204   0.10425
  Beta virt. eigenvalues --    0.11117   0.12713   0.13005   0.14704   0.14713
  Beta virt. eigenvalues --    0.15830   0.16301   0.16709   0.17880   0.19191

 Mulliken charges and spin densities:
               1          2
     1  C   -0.147613  -0.654173
     2  H    0.180363   0.049008
     3  C    0.131896   0.548017
     4  C    0.123304  -0.690509
     5  C    0.132075   1.710287
     6  H    0.178612   0.036055
     7  H    0.169384  -0.032266
     8  O   -0.768021   0.033582
 Sum of Mulliken charges =  -0.00000   1.00000

 Dipole moment (field-independent basis, Debye):
    X=             -0.6374    Y=             -0.0662    Z=              0.0001  Tot=              0.6409
 Quadrupole moment (field-independent basis, Debye-Ang):
   XX=            -23.8375   YY=            -28.8313   ZZ=            -31.5333
   XY=             -1.6038   XZ=              0.0001   YZ=              0.0002

 \PMP3-0=-228.8849999\MP4SDQ=-228.881018\CCSD=-228.888428\CCSD(T)=-228.
 Normal termination of Gaussian 09 at Thu Mar  7 07:04:52 2019.
