 Gaussian 09, Revision E.01,
 Gaussian 09:  EM64L-G09RevE.01 30-Nov-2015

 --------------------------------------
 #p ccsd(t,maxcyc=200)/6-311++G(3df,2p)
 --------------------------------------

 -------------
 ccsd(t) iener
 -------------
 Symbolic Z-matrix:
 Charge =  1 Multiplicity = 1

                         Standard orientation:
 ---------------------------------------------------------------------
 Center     Atomic      Atomic             Coordinates (Angstroms)
 Number     Number       Type             X           Y           Z
 ---------------------------------------------------------------------
      1          6           0        0.074797   -0.619571    0.485563
      2          6           0       -0.768447    0.673813    0.079841
      3          8           0       -1.045287   -0.544295   -0.465957
      4          6           0        0.628405    0.907071   -0.068996
      5          6           0        1.350753   -0.179873   -0.142933
      6          1           0       -0.111657   -0.968983    1.494094
      7          1           0       -1.497800    1.243395    0.643014
      8          1           0        2.258703   -0.608696   -0.530299
 ---------------------------------------------------------------------

 SCF Done:  E(RHF) =  -227.655877722     A.U. after   16 cycles
 E2 =    -0.8413549274D+00 EUMP2 =    -0.22849723264920D+03
 CCSD(T)
 CCSD(T)= -0.22855500732D+03

 The electronic state is 1-A.
 Alpha  occ. eigenvalues --  -20.86481 -11.62428 -11.61479 -11.56278 -11.55801
 Alpha  occ. eigenvalues --   -1.72987  -1.44653  -1.19859  -1.11443  -1.02509
 Alpha  occ. eigenvalues --   -0.93920  -0.91163  -0.88115  -0.84752  -0.77595
 Alpha  occ. eigenvalues --   -0.69559  -0.63753
 Alpha virt. eigenvalues --   -0.19858  -0.10006  -0.09242  -0.07881  -0.07464
 Alpha virt. eigenvalues --   -0.05136  -0.03882  -0.02831  -0.02200  -0.01126
 Alpha virt. eigenvalues --   -0.00774   0.00198   0.02352   0.03004   0.03724

 Mulliken charges:
               1
     1  C    0.226149
     2  C    0.112387
     3  O   -0.606694
     4  C    0.320340
     5  C    0.168184
     6  H    0.229987
     7  H    0.230067
     8  H    0.319580
 Sum of Mulliken charges =   1.00000

 Dipole moment (field-independent basis, Debye):
    X=              1.6423    Y=              0.6522    Z=              1.6320  Tot=              2.4054
 Quadrupole moment (field-independent basis, Debye-Ang):
   XX=            -17.6449   YY=            -22.4378   ZZ=            -24.0059
   XY=             -5.1928   XZ=             -3.6523   YZ=             -1.4130

 CCSD(T)=-228.5550073\RMSD=9.394e-09\PG=C01 [X(C4H3O1)]\\@
 Normal termination of Gaussian 09 at Thu Mar  7 07:55:57 2019.
