 Gaussian 09, Revision E.01,
 Gaussian 09:  EM64L-G09RevE.01 30-Nov-2015

 --------------------------------------
 #p ccsd(t,maxcyc=200)/6-311++G(3df,2p)
 --------------------------------------

 -------------
 ccsd(t) iener
 -------------
 Symbolic Z-matrix:
 Charge =  1 Multiplicity = 3

                         Standard orientation:
 ---------------------------------------------------------------------
 Center     Atomic      Atomic             Coordinates (Angstroms)
 Number     Number       Type             X           Y           Z
 ---------------------------------------------------------------------
      1          6           0        0.018832    0.856198   -0.000000
      2          1           0        0.331290   -1.008775    0.817592
      3          1           0        0.331290   -1.008775   -0.817592
      4          1           0       -0.926233    1.397506    0.000000
      5          8           0        0.018832   -0.564643    0.000000
 ---------------------------------------------------------------------

 SCF Done:  E(UHF) =  -114.096955523     A.U. after   14 cycles
 E2 =    -0.3393028827D+00 EUMP2 =    -0.11443625840599D+03
 CCSD(T)
 CCSD(T)= -0.11446718582D+03

 The electronic state is 3-A".
 Alpha  occ. eigenvalues --  -20.98832 -11.60034  -1.79466  -1.25622  -1.13731
 Alpha  occ. eigenvalues --   -0.98491  -0.97546  -0.74323  -0.69995
 Alpha virt. eigenvalues --   -0.15077  -0.09602  -0.08218  -0.05243  -0.03936
 Alpha virt. eigenvalues --   -0.01317   0.00222   0.01998   0.04751   0.05602
 Alpha virt. eigenvalues --    0.06827   0.09096   0.11038   0.13182   0.17188

  Beta  occ. eigenvalues --  -20.98577 -11.54405  -1.77697  -1.15605  -1.11947
  Beta  occ. eigenvalues --   -0.93947  -0.90540
  Beta virt. eigenvalues --   -0.16181  -0.13290  -0.12096  -0.09096  -0.07628
  Beta virt. eigenvalues --   -0.03717  -0.02301   0.01335   0.02139   0.02866
  Beta virt. eigenvalues --    0.05877   0.06529   0.08224   0.10471   0.13302

 Mulliken charges and spin densities:
               1          2
     1  C    0.339879   2.022863
     2  H    0.322823   0.014373
     3  H    0.322823   0.014373
     4  H    0.223780   0.007859
     5  O   -0.209304  -0.059467
 Sum of Mulliken charges =   1.00000   2.00000

 Dipole moment (field-independent basis, Debye):
    X=              0.6031    Y=             -1.8262    Z=             -0.0000  Tot=              1.9232
 Quadrupole moment (field-independent basis, Debye-Ang):
   XX=            -10.0389   YY=             -4.7543   ZZ=             -7.9813
   XY=             -3.1452   XZ=             -0.0000   YZ=              0.0000

 4.4560856\CCSD(T)=-114.4671858\S2=2.008908\S2-1=2.002292\S2A=2.000025\
 Normal termination of Gaussian 09 at Thu Mar  7 08:19:06 2019.
