 Gaussian 09, Revision E.01,
 Gaussian 09:  EM64L-G09RevE.01 30-Nov-2015

 --------------------------------------
 #p ccsd(t,maxcyc=200)/6-311++G(3df,2p)
 --------------------------------------

 -------------
 ccsd(t) iener
 -------------
 Symbolic Z-matrix:
 Charge =  1 Multiplicity = 3

                         Standard orientation:
 ---------------------------------------------------------------------
 Center     Atomic      Atomic             Coordinates (Angstroms)
 Number     Number       Type             X           Y           Z
 ---------------------------------------------------------------------
      1          6           0       -0.647046   -0.000007    0.159328
      2          1           0        1.261028   -0.000055    0.623090
      3          1           0       -1.206593    0.900068   -0.225070
      4          1           0       -1.206610   -0.900049   -0.225133
      5          8           0        0.629306    0.000010   -0.141107
 ---------------------------------------------------------------------

 SCF Done:  E(UHF) =  -114.076267390     A.U. after   18 cycles
 E2 =    -0.3386847102D+00 EUMP2 =    -0.11441495210048D+03
 CCSD(T)
 CCSD(T)= -0.11446079301D+03

 The electronic state is 3-A.
 Alpha  occ. eigenvalues --  -21.06728 -11.59363  -1.87117  -1.29091  -1.10392
 Alpha  occ. eigenvalues --   -1.08942  -1.02723  -0.82989  -0.70721
 Alpha virt. eigenvalues --   -0.14214  -0.09710  -0.07117  -0.06074  -0.03511
 Alpha virt. eigenvalues --   -0.02516   0.00098   0.02248   0.05283   0.06495
 Alpha virt. eigenvalues --    0.06780   0.08577   0.12829   0.14216   0.20105

  Beta  occ. eigenvalues --  -21.02477 -11.56810  -1.73439  -1.21882  -0.99108
  Beta  occ. eigenvalues --   -0.96107  -0.84425
  Beta virt. eigenvalues --   -0.29478  -0.15631  -0.13435  -0.09223  -0.06848
  Beta virt. eigenvalues --   -0.04818  -0.02276  -0.01156   0.01159   0.03581
  Beta virt. eigenvalues --    0.06507   0.07256   0.08519   0.11966   0.14414

 Mulliken charges and spin densities:
               1          2
     1  C    0.267216   0.942016
     2  H    0.355284  -0.041794
     3  H    0.232319   0.096637
     4  H    0.232320   0.096640
     5  O   -0.087138   0.906501
 Sum of Mulliken charges =   1.00000   2.00000

 Dipole moment (field-independent basis, Debye):
    X=              0.5261    Y=             -0.0001    Z=              0.9069  Tot=              1.0485
 Quadrupole moment (field-independent basis, Debye-Ang):
   XX=             -4.0197   YY=             -9.0148   ZZ=            -10.5022
   XY=             -0.0002   XZ=              3.0607   YZ=             -0.0000

 =-114.4423829\CCSD=-114.4476434\CCSD(T)=-114.460793\S2=2.015875\S2-1=2
 Normal termination of Gaussian 09 at Thu Mar  7 08:21:19 2019.
