 Gaussian 09, Revision E.01,
 Gaussian 09:  EM64L-G09RevE.01 30-Nov-2015

 --------------------------------------
 #p ccsd(t,maxcyc=200)/6-311++G(3df,2p)
 --------------------------------------

 -------------
 ccsd(t) iener
 -------------
 Symbolic Z-matrix:
 Charge =  0 Multiplicity = 2

                         Standard orientation:
 ---------------------------------------------------------------------
 Center     Atomic      Atomic             Coordinates (Angstroms)
 Number     Number       Type             X           Y           Z
 ---------------------------------------------------------------------
      1          6           0       -0.683317    0.027617   -0.057692
      2          1           0        1.103476    0.728195   -0.051703
      3          1           0       -1.116175    0.996096    0.149876
      4          1           0       -1.236325   -0.884636    0.093439
      5          8           0        0.668615   -0.125670    0.019318
 ---------------------------------------------------------------------

 SCF Done:  E(UHF) =  -114.462085104     A.U. after   16 cycles
 E2 =    -0.3912320870D+00 EUMP2 =    -0.11485331719073D+03
 CCSD(T)
 CCSD(T)= -0.11488610867D+03

 The electronic state is 2-A.
 Alpha  occ. eigenvalues --  -20.58823 -11.27730  -1.40132  -0.92556  -0.72210
 Alpha  occ. eigenvalues --   -0.63102  -0.60740  -0.52764  -0.33688
 Alpha virt. eigenvalues --    0.04134   0.06166   0.07399   0.11886   0.12675
 Alpha virt. eigenvalues --    0.15868   0.17155   0.24472   0.26475   0.28312
 Alpha virt. eigenvalues --    0.28971   0.31283   0.33581   0.36850   0.45057

  Beta  occ. eigenvalues --  -20.58144 -11.25333  -1.38091  -0.85961  -0.70639
  Beta  occ. eigenvalues --   -0.61853  -0.52808  -0.51235
  Beta virt. eigenvalues --    0.04229   0.06271   0.07446   0.09087   0.12689
  Beta virt. eigenvalues --    0.15954   0.17405   0.21196   0.25211   0.27273
  Beta virt. eigenvalues --    0.28607   0.29760   0.31818   0.33940   0.37377

 Mulliken charges and spin densities:
               1          2
     1  C    0.101369   1.107413
     2  H    0.217483  -0.008413
     3  H    0.125098  -0.068399
     4  H    0.121581  -0.063814
     5  O   -0.565531   0.033213
 Sum of Mulliken charges =  -0.00000   1.00000

 Dipole moment (field-independent basis, Debye):
    X=             -0.2808    Y=              1.5699    Z=              0.1867  Tot=              1.6057
 Quadrupole moment (field-independent basis, Debye-Ang):
   XX=            -11.7721   YY=            -10.9168   ZZ=            -14.2952
   XY=              2.2381   XZ=             -0.5807   YZ=             -0.0274

 -114.8716781\CCSD=-114.8718418\CCSD(T)=-114.8861087\S2=0.76233\S2-1=0.
 Normal termination of Gaussian 09 at Thu Mar  7 07:08:38 2019.
