 Gaussian 09, Revision E.01,
 Gaussian 09:  EM64L-G09RevE.01 30-Nov-2015

 --------------------------------------
 #p ccsd(t,maxcyc=200)/6-311++G(3df,2p)
 --------------------------------------

 -------------
 ccsd(t) iener
 -------------
 Symbolic Z-matrix:
 Charge =  0 Multiplicity = 2

                         Standard orientation:
 ---------------------------------------------------------------------
 Center     Atomic      Atomic             Coordinates (Angstroms)
 Number     Number       Type             X           Y           Z
 ---------------------------------------------------------------------
      1          6           0        0.572278    0.000004   -0.014174
      2          1           0        1.003348    0.908298   -0.454813
      3          1           0        0.871016   -0.000127    1.052101
      4          1           0        1.003356   -0.908193   -0.455013
      5          8           0       -0.788924    0.000000   -0.007154
 ---------------------------------------------------------------------

 SCF Done:  E(UHF) =  -114.464564011     A.U. after   16 cycles
 E2 =    -0.3665587923D+00 EUMP2 =    -0.11483112280364D+03
 CCSD(T)
 CCSD(T)= -0.11487268606D+03

 The electronic state is 2-A.
 Alpha  occ. eigenvalues --  -20.62183 -11.28109  -1.41107  -0.92278  -0.70885
 Alpha  occ. eigenvalues --   -0.65765  -0.63161  -0.51655  -0.48019
 Alpha virt. eigenvalues --    0.03995   0.07109   0.07156   0.09254   0.14215
 Alpha virt. eigenvalues --    0.14853   0.17750   0.25306   0.27701   0.28607
 Alpha virt. eigenvalues --    0.28915   0.30665   0.31970   0.33799   0.43692

  Beta  occ. eigenvalues --  -20.58166 -11.28401  -1.28028  -0.89127  -0.64213
  Beta  occ. eigenvalues --   -0.59742  -0.58049  -0.44703
  Beta virt. eigenvalues --    0.04017   0.07100   0.07131   0.09048   0.09507
  Beta virt. eigenvalues --    0.14911   0.15074   0.17825   0.25465   0.27800
  Beta virt. eigenvalues --    0.28580   0.30930   0.32729   0.33920   0.34385

 Mulliken charges and spin densities:
               1          2
     1  C    0.151922  -0.138845
     2  H    0.106475   0.015835
     3  H    0.115731   0.090530
     4  H    0.106476   0.015842
     5  O   -0.480604   1.016638
 Sum of Mulliken charges =  -0.00000   1.00000

 Dipole moment (field-independent basis, Debye):
    X=              1.9019    Y=             -0.0000    Z=              0.1023  Tot=              1.9046
 Quadrupole moment (field-independent basis, Debye-Ang):
   XX=            -13.7118   YY=            -12.6921   ZZ=            -11.6593
   XY=             -0.0000   XZ=              0.1613   YZ=             -0.0001

 -114.858641\CCSD=-114.8597189\CCSD(T)=-114.8726861\S2=0.76028\S2-1=0.7
 Normal termination of Gaussian 09 at Thu Mar  7 07:09:02 2019.
