 Gaussian 09, Revision E.01,
 Gaussian 09:  EM64L-G09RevE.01 30-Nov-2015

 --------------------------------------
 #p ccsd(t,maxcyc=200)/6-311++G(3df,2p)
 --------------------------------------

 -------------
 ccsd(t) iener
 -------------
 Symbolic Z-matrix:
 Charge =  1 Multiplicity = 1

                         Standard orientation:
 ---------------------------------------------------------------------
 Center     Atomic      Atomic             Coordinates (Angstroms)
 Number     Number       Type             X           Y           Z
 ---------------------------------------------------------------------
      1          6           0       -0.848966   -0.183341   -0.000039
      2          1           0       -1.237745    0.851300    0.000238
      3          1           0        1.088934   -0.786127    0.000231
      4          1           0        1.016000    0.879854   -0.000070
      5          8           0        0.528326    0.019377   -0.000020
 ---------------------------------------------------------------------

 SCF Done:  E(RHF) =  -114.083762911     A.U. after   11 cycles
 E2 =    -0.3677223205D+00 EUMP2 =    -0.11445148523178D+03
 CCSD(T)
 CCSD(T)= -0.11448938144D+03

 The electronic state is 1-A.
 Alpha  occ. eigenvalues --  -21.01078 -11.61369  -1.81099  -1.24536  -1.15742
 Alpha  occ. eigenvalues --   -0.95349  -0.94481  -0.68015
 Alpha virt. eigenvalues --   -0.17469  -0.15635  -0.10400  -0.07953  -0.03838
 Alpha virt. eigenvalues --   -0.03308  -0.00414  -0.00130   0.01930   0.04192
 Alpha virt. eigenvalues --    0.05732   0.06075   0.10075   0.13124   0.14717

 Mulliken charges:
               1
     1  C    0.287095
     2  H    0.187960
     3  H    0.313694
     4  H    0.339451
     5  O   -0.128200
 Sum of Mulliken charges =   1.00000

 Dipole moment (field-independent basis, Debye):
    X=              2.8078    Y=              1.8118    Z=              0.0006  Tot=              3.3417
 Quadrupole moment (field-independent basis, Debye-Ang):
   XX=             -5.4629   YY=             -8.3097   ZZ=            -10.9074
   XY=             -2.2285   XZ=              0.0001   YZ=             -0.0009

 713521\MP4SDQ=-114.4745451\CCSD=-114.4757526\CCSD(T)=-114.4893814\RMSD
 Normal termination of Gaussian 09 at Thu Mar  7 07:06:08 2019.
