 Gaussian 09, Revision E.01,
 Gaussian 09:  EM64L-G09RevE.01 30-Nov-2015

 --------------------------------------
 #p ccsd(t,maxcyc=200)/6-311++G(3df,2p)
 --------------------------------------

 -------------
 ccsd(t) iener
 -------------
 Symbolic Z-matrix:
 Charge =  0 Multiplicity = 1

                         Standard orientation:
 ---------------------------------------------------------------------
 Center     Atomic      Atomic             Coordinates (Angstroms)
 Number     Number       Type             X           Y           Z
 ---------------------------------------------------------------------
      1          6           0        0.037499    0.411926   -0.000022
      2          6           0        1.223191   -0.179323    0.000007
      3          1           0        2.119866    0.419814    0.000077
      4          1           0       -1.880303    0.305478    0.000071
      5          1           0        1.319290   -1.255749   -0.000046
      6          1           0       -0.068721    1.491314   -0.000031
      7          8           0       -1.131784   -0.294559    0.000002
 ---------------------------------------------------------------------

 SCF Done:  E(RHF) =  -152.952070887     A.U. after   13 cycles
 E2 =    -0.5669457068D+00 EUMP2 =    -0.15351901659359D+03
 CCSD(T)
 CCSD(T)= -0.15356426186D+03

 The electronic state is 1-A.
 Alpha  occ. eigenvalues --  -20.58991 -11.29487 -11.20921  -1.40225  -1.02648
 Alpha  occ. eigenvalues --   -0.79835  -0.74266  -0.62419  -0.57783  -0.57354
 Alpha  occ. eigenvalues --   -0.52027  -0.34783
 Alpha virt. eigenvalues --    0.03865   0.05845   0.06537   0.08099   0.11901
 Alpha virt. eigenvalues --    0.12629   0.13773   0.14362   0.16815   0.19059
 Alpha virt. eigenvalues --    0.20692   0.22231   0.22340   0.25072   0.27975

 Mulliken charges:
               1
     1  C    0.366307
     2  C   -0.321589
     3  H    0.126989
     4  H    0.237724
     5  H    0.124388
     6  H    0.132925
     7  O   -0.666743
 Sum of Mulliken charges =  -0.00000

 Dipole moment (field-independent basis, Debye):
    X=             -0.7796    Y=              1.7696    Z=              0.0001  Tot=              1.9337
 Quadrupole moment (field-independent basis, Debye-Ang):
   XX=            -15.0034   YY=            -17.3428   ZZ=            -21.3211
   XY=             -2.7904   XZ=             -0.0001   YZ=              0.0002

 MP4SDQ=-153.5406716\CCSD=-153.5398497\CCSD(T)=-153.5642619\RMSD=4.311e
 Normal termination of Gaussian 09 at Thu Mar  7 08:24:32 2019.
