 Gaussian 09, Revision E.01,
 Gaussian 09:  EM64L-G09RevE.01 30-Nov-2015

 --------------------------------------
 #p ccsd(t,maxcyc=200)/6-311++G(3df,2p)
 --------------------------------------

 -------------
 ccsd(t) iener
 -------------
 Symbolic Z-matrix:
 Charge =  0 Multiplicity = 1

                         Standard orientation:
 ---------------------------------------------------------------------
 Center     Atomic      Atomic             Coordinates (Angstroms)
 Number     Number       Type             X           Y           Z
 ---------------------------------------------------------------------
      1          6           0       -0.000000    0.649427    0.000000
      2          6           0        1.085426   -0.369094   -0.000000
      3          1           0        1.722098   -0.190577    0.870330
      4          1           0        0.740733   -1.418650   -0.000000
      5          1           0        1.722098   -0.190577   -0.870330
      6          1           0       -1.195716   -0.865100   -0.000000
      7          8           0       -1.187722    0.122863    0.000000
 ---------------------------------------------------------------------

 SCF Done:  E(RHF) =  -152.889172225     A.U. after   13 cycles
 E2 =    -0.5556005260D+00 EUMP2 =    -0.15344477275104D+03
 CCSD(T)
 CCSD(T)= -0.15349602212D+03

 The electronic state is 1-A'.
 Alpha  occ. eigenvalues --  -20.63149 -11.29762 -11.23570  -1.44832  -1.01836
 Alpha  occ. eigenvalues --   -0.84856  -0.69780  -0.62442  -0.61349  -0.55246
 Alpha  occ. eigenvalues --   -0.53782  -0.35360
 Alpha virt. eigenvalues --    0.03710   0.05771   0.07230   0.07572   0.10994
 Alpha virt. eigenvalues --    0.12302   0.13437   0.13841   0.14309   0.17911
 Alpha virt. eigenvalues --    0.18220   0.19086   0.20632   0.23128   0.27788

 Mulliken charges:
               1
     1  C    0.122901
     2  C   -0.157943
     3  H    0.141402
     4  H    0.066455
     5  H    0.141402
     6  H    0.225968
     7  O   -0.540185
 Sum of Mulliken charges =  -0.00000

 Dipole moment (field-independent basis, Debye):
    X=              0.8618    Y=             -3.3224    Z=             -0.0000  Tot=              3.4324
 Quadrupole moment (field-independent basis, Debye-Ang):
   XX=            -18.7302   YY=            -21.7008   ZZ=            -18.4756
   XY=              1.7884   XZ=             -0.0000   YZ=              0.0000

 3.4726216\CCSD=-153.4721351\CCSD(T)=-153.4960221\RMSD=3.014e-09\PG=CS
 Normal termination of Gaussian 09 at Thu Mar  7 08:23:33 2019.
