 Gaussian 09, Revision E.01,
 Gaussian 09:  EM64L-G09RevE.01 30-Nov-2015

 --------------------------------------
 #p ccsd(t,maxcyc=200)/6-311++G(3df,2p)
 --------------------------------------

 -------------
 ccsd(t) iener
 -------------
 Symbolic Z-matrix:
 Charge =  0 Multiplicity = 1

                         Standard orientation:
 ---------------------------------------------------------------------
 Center     Atomic      Atomic             Coordinates (Angstroms)
 Number     Number       Type             X           Y           Z
 ---------------------------------------------------------------------
      1          6           0        0.038121    0.439346    0.000006
      2          6           0        1.197986   -0.206360   -0.000026
      3          1           0        2.123243    0.348115    0.000064
      4          1           0       -1.135470   -1.073896    0.000298
      5          1           0       -0.028416    1.519186    0.000123
      6          1           0        1.258889   -1.287600   -0.000018
      7          8           0       -1.204361   -0.112966   -0.000043
 ---------------------------------------------------------------------

 SCF Done:  E(RHF) =  -152.954196378     A.U. after   13 cycles
 E2 =    -0.5669428354D+00 EUMP2 =    -0.15352113921352D+03
 CCSD(T)
 CCSD(T)= -0.15356621709D+03

 The electronic state is 1-A.
 Alpha  occ. eigenvalues --  -20.59297 -11.29919 -11.21485  -1.40659  -1.02604
 Alpha  occ. eigenvalues --   -0.83523  -0.68274  -0.67216  -0.58148  -0.54994
 Alpha  occ. eigenvalues --   -0.54258  -0.35289
 Alpha virt. eigenvalues --    0.04453   0.05466   0.06417   0.08178   0.11824
 Alpha virt. eigenvalues --    0.12730   0.12887   0.15328   0.17101   0.18897
 Alpha virt. eigenvalues --    0.20745   0.20996   0.22247   0.24550   0.27366

 Mulliken charges:
               1
     1  C    0.455425
     2  C   -0.376151
     3  H    0.117181
     4  H    0.243528
     5  H    0.144437
     6  H    0.097140
     7  O   -0.681561
 Sum of Mulliken charges =  -0.00000

 Dipole moment (field-independent basis, Debye):
    X=              0.6074    Y=             -0.8412    Z=              0.0007  Tot=              1.0376
 Quadrupole moment (field-independent basis, Debye-Ang):
   XX=            -20.1664   YY=            -14.4975   ZZ=            -21.3291
   XY=              1.6182   XZ=             -0.0006   YZ=             -0.0006

 P4SDQ=-153.5426495\CCSD=-153.5417656\CCSD(T)=-153.5662171\RMSD=8.527e-
 Normal termination of Gaussian 09 at Thu Mar  7 08:25:18 2019.
