 Gaussian 09, Revision E.01,
 Gaussian 09:  EM64L-G09RevE.01 30-Nov-2015

 --------------------------------------
 #p ccsd(t,maxcyc=200)/6-311++G(3df,2p)
 --------------------------------------

 -------------
 ccsd(t) iener
 -------------
 Symbolic Z-matrix:
 Charge =  0 Multiplicity = 1

                         Standard orientation:
 ---------------------------------------------------------------------
 Center     Atomic      Atomic             Coordinates (Angstroms)
 Number     Number       Type             X           Y           Z
 ---------------------------------------------------------------------
      1          6           0        0.126460   -0.604945   -0.000191
      2          6           0       -1.164886    0.136184    0.000056
      3          1           0       -1.738091   -0.203073    0.867742
      4          1           0        1.945226   -0.202378    0.001560
      5          1           0       -1.739158   -0.203865   -0.866555
      6          1           0       -1.082236    1.227803   -0.000354
      7          8           0        1.105601    0.274259   -0.000197
 ---------------------------------------------------------------------

 SCF Done:  E(RHF) =  -152.897440114     A.U. after   13 cycles
 E2 =    -0.5537066888D+00 EUMP2 =    -0.15345114680305D+03
 CCSD(T)
 CCSD(T)= -0.15350188952D+03

 The electronic state is 1-A.
 Alpha  occ. eigenvalues --  -20.62659 -11.29661 -11.21948  -1.44417  -1.01596
 Alpha  occ. eigenvalues --   -0.82737  -0.68944  -0.61115  -0.60513  -0.54505
 Alpha  occ. eigenvalues --   -0.54177  -0.35522
 Alpha virt. eigenvalues --    0.04335   0.05537   0.07578   0.07613   0.10734
 Alpha virt. eigenvalues --    0.12505   0.13359   0.15342   0.15763   0.17451
 Alpha virt. eigenvalues --    0.17695   0.19676   0.20704   0.26139   0.28056

 Mulliken charges:
               1
     1  C   -0.028244
     2  C   -0.108067
     3  H    0.138103
     4  H    0.277424
     5  H    0.138061
     6  H    0.096827
     7  O   -0.514104
 Sum of Mulliken charges =  -0.00000

 Dipole moment (field-independent basis, Debye):
    X=              0.3822    Y=              0.7781    Z=              0.0029  Tot=              0.8669
 Quadrupole moment (field-independent basis, Debye-Ang):
   XX=            -13.5221   YY=            -23.3045   ZZ=            -18.6154
   XY=             -0.9719   XZ=              0.0065   YZ=             -0.0004

 SDQ=-153.4791821\CCSD=-153.4785467\CCSD(T)=-153.5018895\RMSD=5.824e-09
 Normal termination of Gaussian 09 at Thu Mar  7 08:25:15 2019.
