 Gaussian 09, Revision E.01,
 Gaussian 09:  EM64L-G09RevE.01 30-Nov-2015

 --------------------------------------
 #p ccsd(t,maxcyc=200)/6-311++G(3df,2p)
 --------------------------------------

 -------------
 ccsd(t) iener
 -------------
 Symbolic Z-matrix:
 Charge =  1 Multiplicity = 4

                         Standard orientation:
 ---------------------------------------------------------------------
 Center     Atomic      Atomic             Coordinates (Angstroms)
 Number     Number       Type             X           Y           Z
 ---------------------------------------------------------------------
      1          6           0        2.027401   -0.006076    0.000083
      2          6           0       -0.495461    0.436125   -0.000413
      3          6           0        0.635453   -0.415069   -0.000361
      4          1           0       -1.821645   -0.976788    0.001686
      5          1           0        0.459768   -1.491375   -0.000773
      6          1           0       -0.422238    1.515716   -0.000860
      7          1           0        2.569707    0.928418    0.002154
      8          8           0       -1.723744   -0.008231    0.000242
 ---------------------------------------------------------------------

 SCF Done:  E(UHF) =  -190.434225678     A.U. after   19 cycles
 E2 =    -0.6088919120D+00 EUMP2 =    -0.19104311759010D+03
 CCSD(T)
 CCSD(T)= -0.19110642288D+03

 The electronic state is 4-A.
 Alpha  occ. eigenvalues --  -20.87266 -11.59660 -11.57630 -11.50756  -1.69980
 Alpha  occ. eigenvalues --   -1.37011  -1.19634  -1.09065  -0.98158  -0.92843
 Alpha  occ. eigenvalues --   -0.88842  -0.83293  -0.81690  -0.75724  -0.67361
 Alpha  occ. eigenvalues --   -0.56257
 Alpha virt. eigenvalues --   -0.12315  -0.10458  -0.08428  -0.06866  -0.04563
 Alpha virt. eigenvalues --   -0.04533  -0.02294  -0.01626   0.00269   0.00956
 Alpha virt. eigenvalues --    0.01609   0.02462   0.03878   0.04007   0.05440

  Beta  occ. eigenvalues --  -20.86142 -11.58824 -11.56682 -11.45914  -1.67210
  Beta  occ. eigenvalues --   -1.27377  -1.12299  -1.01252  -0.95851  -0.90054
  Beta  occ. eigenvalues --   -0.80816  -0.79573  -0.78178
  Beta virt. eigenvalues --   -0.25505  -0.11096  -0.10235  -0.08837  -0.08091
  Beta virt. eigenvalues --   -0.06263  -0.04296  -0.04099  -0.02237  -0.01449
  Beta virt. eigenvalues --    0.00201   0.01305   0.02455   0.03613   0.04315

 Mulliken charges and spin densities:
               1          2
     1  C   -0.400975   2.057668
     2  C    0.554533   0.373437
     3  C    0.452977   0.494009
     4  H    0.300158  -0.017639
     5  H    0.189438  -0.008762
     6  H    0.233519  -0.021674
     7  H    0.214726  -0.056322
     8  O   -0.544376   0.179283
 Sum of Mulliken charges =   1.00000   3.00000

 Dipole moment (field-independent basis, Debye):
    X=              0.9986    Y=             -0.9264    Z=              0.0025  Tot=              1.3621
 Quadrupole moment (field-independent basis, Debye-Ang):
   XX=            -14.3653   YY=            -14.6489   ZZ=            -22.6607
   XY=              4.2843   XZ=             -0.0007   YZ=             -0.0019

 Normal termination of Gaussian 09 at Thu Mar  7 09:42:02 2019.
