 Gaussian 09, Revision E.01,
 Gaussian 09:  EM64L-G09RevE.01 30-Nov-2015

 --------------------------------------
 #p ccsd(t,maxcyc=200)/6-311++G(3df,2p)
 --------------------------------------

 -------------
 ccsd(t) iener
 -------------
 Symbolic Z-matrix:
 Charge =  0 Multiplicity = 1

                         Standard orientation:
 ---------------------------------------------------------------------
 Center     Atomic      Atomic             Coordinates (Angstroms)
 Number     Number       Type             X           Y           Z
 ---------------------------------------------------------------------
      1          6           0        0.775220    0.156274   -0.004193
      2          6           0       -0.620725    0.587833    0.035364
      3          6           0        1.914739   -0.217699   -0.012897
      4          1           0       -1.321833   -1.169320    0.535437
      5          1           0       -0.798609    1.148222    0.960349
      6          1           0       -0.824187    1.263206   -0.796390
      7          1           0        2.924507   -0.545915   -0.030358
      8          8           0       -1.549410   -0.481830   -0.097335
 ---------------------------------------------------------------------

 SCF Done:  E(RHF) =  -190.783307497     A.U. after   14 cycles
 E2 =    -0.7122810163D+00 EUMP2 =    -0.19149558851322D+03
 CCSD(T)
 CCSD(T)= -0.19154793432D+03

 The electronic state is 1-A.
 Alpha  occ. eigenvalues --  -20.57264 -11.31113 -11.24220 -11.23530  -1.37520
 Alpha  occ. eigenvalues --   -1.05732  -0.95235  -0.75082  -0.70461  -0.66140
 Alpha  occ. eigenvalues --   -0.62602  -0.54432  -0.48229  -0.40717  -0.39786
 Alpha virt. eigenvalues --    0.03661   0.05012   0.06474   0.07431   0.10998
 Alpha virt. eigenvalues --    0.11527   0.12025   0.13257   0.14648   0.16418
 Alpha virt. eigenvalues --    0.16837   0.17316   0.17913   0.18874   0.22663

 Mulliken charges:
               1
     1  C   -0.414287
     2  C   -0.142985
     3  C    0.452272
     4  H    0.215196
     5  H    0.131878
     6  H    0.140042
     7  H    0.314765
     8  O   -0.696880
 Sum of Mulliken charges =  -0.00000

 Dipole moment (field-independent basis, Debye):
    X=              1.0306    Y=              0.1667    Z=              1.1157  Tot=              1.5280
 Quadrupole moment (field-independent basis, Debye-Ang):
   XX=            -23.5264   YY=            -22.2691   ZZ=            -24.5393
   XY=             -2.1898   XZ=             -1.7614   YZ=             -1.7034

 Normal termination of Gaussian 09 at Thu Mar  7 08:37:15 2019.
