 Gaussian 09, Revision E.01,
 Gaussian 09:  EM64L-G09RevE.01 30-Nov-2015

 --------------------------------------
 #p ccsd(t,maxcyc=200)/6-311++G(3df,2p)
 --------------------------------------

 -------------
 ccsd(t) iener
 -------------
 Symbolic Z-matrix:
 Charge =  1 Multiplicity = 4

                         Standard orientation:
 ---------------------------------------------------------------------
 Center     Atomic      Atomic             Coordinates (Angstroms)
 Number     Number       Type             X           Y           Z
 ---------------------------------------------------------------------
      1          6           0       -1.623534   -0.313188    0.067235
      2          6           0        0.748589    0.429937    0.380185
      3          6           0       -0.610702    0.514307   -0.277724
      4          1           0        1.434231    1.277313    0.208974
      5          1           0        0.769274    0.225113    1.466806
      6          1           0       -1.882612   -1.033153    0.832347
      7          1           0       -0.693285    1.136794   -1.166009
      8          8           0        1.160785   -0.674050   -0.295036
 ---------------------------------------------------------------------

 SCF Done:  E(UHF) =  -190.395472533     A.U. after   28 cycles
 E2 =    -0.5878085990D+00 EUMP2 =    -0.19098328113233D+03
 CCSD(T)
 CCSD(T)= -0.19106539052D+03

 The electronic state is 4-A.
 Alpha  occ. eigenvalues --  -20.88038 -11.58461 -11.57538 -11.53246  -1.68041
 Alpha  occ. eigenvalues --   -1.38661  -1.18365  -1.06203  -0.96901  -0.94412
 Alpha  occ. eigenvalues --   -0.89643  -0.87621  -0.78595  -0.75199  -0.71934
 Alpha  occ. eigenvalues --   -0.68010
 Alpha virt. eigenvalues --   -0.15761  -0.09675  -0.08268  -0.07052  -0.05219
 Alpha virt. eigenvalues --   -0.04072  -0.02540  -0.01545  -0.00350   0.00517
 Alpha virt. eigenvalues --    0.01882   0.02212   0.03519   0.04082   0.04943

  Beta  occ. eigenvalues --  -20.83152 -11.58044 -11.53559 -11.53343  -1.53622
  Beta  occ. eigenvalues --   -1.28063  -1.11072  -1.01084  -0.89749  -0.88761
  Beta  occ. eigenvalues --   -0.82719  -0.79420  -0.67150
  Beta virt. eigenvalues --   -0.25173  -0.14928  -0.13465  -0.09381  -0.08056
  Beta virt. eigenvalues --   -0.06403  -0.05592  -0.04261  -0.03613  -0.00866
  Beta virt. eigenvalues --   -0.00494   0.00654   0.02074   0.02753   0.03664

 Mulliken charges and spin densities:
               1          2
     1  C   -0.099491   1.682742
     2  C    0.210944  -0.061567
     3  C    0.401320   0.162049
     4  H    0.181971   0.060532
     5  H    0.204115   0.062158
     6  H    0.262294  -0.038059
     7  H    0.217493   0.017004
     8  O   -0.378645   1.115141
 Sum of Mulliken charges =   1.00000   3.00000

 Dipole moment (field-independent basis, Debye):
    X=             -2.7661    Y=              1.8100    Z=              1.0833  Tot=              3.4787
 Quadrupole moment (field-independent basis, Debye-Ang):
   XX=            -14.3769   YY=            -18.2795   ZZ=            -18.2370
   XY=              3.5420   XZ=              0.1243   YZ=             -2.4916

 3-0=-191.0253517\MP4SDQ=-191.0311872\CCSD=-191.0372419\CCSD(T)=-191.06
 Normal termination of Gaussian 09 at Thu Mar  7 10:31:06 2019.
