 Gaussian 09, Revision E.01,
 Gaussian 09:  EM64L-G09RevE.01 30-Nov-2015

 --------------------------------------
 #p ccsd(t,maxcyc=200)/6-311++G(3df,2p)
 --------------------------------------

 -------------
 ccsd(t) iener
 -------------
 Symbolic Z-matrix:
 Charge =  1 Multiplicity = 4

                         Standard orientation:
 ---------------------------------------------------------------------
 Center     Atomic      Atomic             Coordinates (Angstroms)
 Number     Number       Type             X           Y           Z
 ---------------------------------------------------------------------
      1          6           0        1.701838   -0.357257   -0.333371
      2          6           0       -0.577075    0.689206   -0.202983
      3          6           0        0.712264    0.241789    0.409100
      4          1           0       -1.529937   -0.798875    0.773014
      5          1           0       -1.128735    1.417485    0.385326
      6          1           0       -0.530913    0.945490   -1.254771
      7          1           0        0.813363    0.248107    1.496081
      8          8           0       -1.080742   -0.656829   -0.079515
 ---------------------------------------------------------------------

 SCF Done:  E(UHF) =  -190.365311606     A.U. after   23 cycles
 E2 =    -0.6105486308D+00 EUMP2 =    -0.19097586023727D+03
 CCSD(T)
 CCSD(T)= -0.19104114396D+03

 The electronic state is 4-A.
 Alpha  occ. eigenvalues --  -20.83117 -11.60404 -11.59293 -11.53226  -1.63078
 Alpha  occ. eigenvalues --   -1.38371  -1.19712  -1.04499  -0.95518  -0.90423
 Alpha  occ. eigenvalues --   -0.88107  -0.82476  -0.77034  -0.75465  -0.70940
 Alpha  occ. eigenvalues --   -0.66662
 Alpha virt. eigenvalues --   -0.15429  -0.10216  -0.07378  -0.06787  -0.05946
 Alpha virt. eigenvalues --   -0.03104  -0.02315  -0.02069  -0.01561   0.00826
 Alpha virt. eigenvalues --    0.01643   0.02582   0.03370   0.04158   0.04861

  Beta  occ. eigenvalues --  -20.82149 -11.59938 -11.53037 -11.51780  -1.60464
  Beta  occ. eigenvalues --   -1.28850  -1.12892  -0.97612  -0.91408  -0.86650
  Beta  occ. eigenvalues --   -0.82808  -0.75021  -0.68579
  Beta virt. eigenvalues --   -0.23443  -0.19440  -0.10979  -0.09084  -0.06701
  Beta virt. eigenvalues --   -0.06271  -0.04977  -0.03848  -0.02063  -0.01226
  Beta virt. eigenvalues --   -0.00737   0.00009   0.02357   0.02704   0.03900

 Mulliken charges and spin densities:
               1          2
     1  C    0.029662   2.778170
     2  C    0.308594   0.066713
     3  C    0.379917  -0.004647
     4  H    0.290795  -0.007660
     5  H    0.179215   0.000453
     6  H    0.189611   0.001984
     7  H    0.217861   0.045495
     8  O   -0.595654   0.119492
 Sum of Mulliken charges =   1.00000   3.00000

 Dipole moment (field-independent basis, Debye):
    X=              1.5907    Y=              1.5193    Z=              1.9837  Tot=              2.9621
 Quadrupole moment (field-independent basis, Debye-Ang):
   XX=            -12.8492   YY=            -19.6982   ZZ=            -17.1783
   XY=             -1.2184   XZ=             -2.3717   YZ=             -1.0714

 934\PMP3-0=-191.0021129\MP4SDQ=-191.0105427\CCSD=-191.0127399\CCSD(T)=
 Normal termination of Gaussian 09 at Thu Mar  7 10:08:54 2019.
