 Gaussian 09, Revision E.01,
 Gaussian 09:  EM64L-G09RevE.01 30-Nov-2015

 --------------------------------------
 #p ccsd(t,maxcyc=200)/6-311++G(3df,2p)
 --------------------------------------

 -------------
 ccsd(t) iener
 -------------
 Symbolic Z-matrix:
 Charge =  0 Multiplicity = 3

                         Standard orientation:
 ---------------------------------------------------------------------
 Center     Atomic      Atomic             Coordinates (Angstroms)
 Number     Number       Type             X           Y           Z
 ---------------------------------------------------------------------
      1          6           0        1.723923   -0.277386   -0.365212
      2          6           0       -0.656860   -0.272494    0.292681
      3          6           0        0.637663    0.537159    0.175270
      4          1           0       -0.590413   -1.159839    0.953102
      5          1           0        0.433654    1.405078   -0.456344
      6          1           0        2.396143   -1.022958    0.032239
      7          1           0        0.894693    0.905890    1.181545
      8          8           0       -1.670304   -0.006481   -0.290872
 ---------------------------------------------------------------------

 SCF Done:  E(UHF) =  -190.749942740     A.U. after   21 cycles
 E2 =    -0.6591703504D+00 EUMP2 =    -0.19140911309023D+03
 CCSD(T)
 CCSD(T)= -0.19146945321D+03

 The electronic state is 3-A.
 Alpha  occ. eigenvalues --  -20.56613 -11.34114 -11.27739 -11.25897  -1.40659
 Alpha  occ. eigenvalues --   -1.09267  -0.89766  -0.80380  -0.68139  -0.64723
 Alpha  occ. eigenvalues --   -0.64079  -0.58072  -0.52921  -0.45818  -0.43083
 Alpha  occ. eigenvalues --   -0.38087
 Alpha virt. eigenvalues --    0.03817   0.05429   0.05937   0.07108   0.10856
 Alpha virt. eigenvalues --    0.11191   0.12551   0.13557   0.13920   0.15715
 Alpha virt. eigenvalues --    0.16896   0.17287   0.17993   0.18688   0.19652

  Beta  occ. eigenvalues --  -20.56614 -11.33809 -11.26270 -11.22934  -1.40577
  Beta  occ. eigenvalues --   -1.04864  -0.81910  -0.75263  -0.66947  -0.63124
  Beta  occ. eigenvalues --   -0.61339  -0.55794  -0.51976  -0.43131
  Beta virt. eigenvalues --    0.03917   0.05167   0.05760   0.06543   0.07953
  Beta virt. eigenvalues --    0.08831   0.11289   0.11725   0.13926   0.15692
  Beta virt. eigenvalues --    0.16157   0.17175   0.17595   0.18128   0.19539

 Mulliken charges and spin densities:
               1          2
     1  C   -0.393436   2.275163
     2  C    0.659377   0.049428
     3  C   -0.053338  -0.384707
     4  H    0.114399   0.002459
     5  H    0.133350   0.043266
     6  H    0.171369  -0.061659
     7  H    0.108422   0.077688
     8  O   -0.740143  -0.001640
 Sum of Mulliken charges =  -0.00000   2.00000

 Dipole moment (field-independent basis, Debye):
    X=              2.6186    Y=             -0.3275    Z=              1.9060  Tot=              3.2553
 Quadrupole moment (field-independent basis, Debye-Ang):
   XX=            -29.6201   YY=            -22.7509   ZZ=            -24.0340
   XY=             -0.3459   XZ=             -0.4875   YZ=             -0.5762

 99\PMP3-0=-191.4338268\MP4SDQ=-191.4412356\CCSD=-191.4402638\CCSD(T)=-
 Normal termination of Gaussian 09 at Thu Mar  7 10:00:35 2019.
