 Gaussian 09, Revision E.01,
 Gaussian 09:  EM64L-G09RevE.01 30-Nov-2015

 --------------------------------------
 #p ccsd(t,maxcyc=200)/6-311++G(3df,2p)
 --------------------------------------

 -------------
 ccsd(t) iener
 -------------
 Symbolic Z-matrix:
 Charge =  0 Multiplicity = 1

                         Standard orientation:
 ---------------------------------------------------------------------
 Center     Atomic      Atomic             Coordinates (Angstroms)
 Number     Number       Type             X           Y           Z
 ---------------------------------------------------------------------
      1          6           0        0.902867    0.337591    0.040410
      2          6           0       -0.575420    0.621045   -0.025970
      3          6           0        1.711842   -0.661134   -0.062733
      4          1           0       -1.238451   -1.049338    0.734943
      5          1           0       -0.849965    1.263759    0.817496
      6          1           0       -0.793679    1.174019   -0.940265
      7          1           0        1.601888    1.166633    0.253422
      8          8           0       -1.369441   -0.542510   -0.071979
 ---------------------------------------------------------------------

 SCF Done:  E(RHF) =  -190.720525322     A.U. after   16 cycles
 E2 =    -0.6869008188D+00 EUMP2 =    -0.19140742614107D+03
 CCSD(T)
 CCSD(T)= -0.19147216261D+03

 The electronic state is 1-A.
 Alpha  occ. eigenvalues --  -20.58137 -11.31959 -11.29071 -11.24331  -1.38819
 Alpha  occ. eigenvalues --   -1.08744  -0.94771  -0.74167  -0.67171  -0.65948
 Alpha  occ. eigenvalues --   -0.61818  -0.53371  -0.49193  -0.45127  -0.40275
 Alpha virt. eigenvalues --    0.03158   0.05316   0.06294   0.06795   0.07224
 Alpha virt. eigenvalues --    0.11441   0.12170   0.12797   0.13579   0.14625
 Alpha virt. eigenvalues --    0.15823   0.17640   0.18333   0.18566   0.19845

 Mulliken charges:
               1
     1  C    0.294030
     2  C    0.378335
     3  C   -0.571114
     4  H    0.219806
     5  H    0.118317
     6  H    0.134377
     7  H    0.128285
     8  O   -0.702035
 Sum of Mulliken charges =  -0.00000

 Dipole moment (field-independent basis, Debye):
    X=             -0.9430    Y=              2.4053    Z=              1.4534  Tot=              2.9643
 Quadrupole moment (field-independent basis, Debye-Ang):
   XX=            -30.7870   YY=            -23.1363   ZZ=            -24.4183
   XY=              3.5368   XZ=             -1.1964   YZ=             -1.5529

 Normal termination of Gaussian 09 at Thu Mar  7 09:10:38 2019.
