 Gaussian 09, Revision E.01,
 Gaussian 09:  EM64L-G09RevE.01 30-Nov-2015

 --------------------------------------
 #p ccsd(t,maxcyc=200)/6-311++G(3df,2p)
 --------------------------------------

 -------------
 ccsd(t) iener
 -------------
 Symbolic Z-matrix:
 Charge =  1 Multiplicity = 2

                         Standard orientation:
 ---------------------------------------------------------------------
 Center     Atomic      Atomic             Coordinates (Angstroms)
 Number     Number       Type             X           Y           Z
 ---------------------------------------------------------------------
      1          6           0        0.633904    0.138634   -0.000025
      2          6           0       -0.687700    0.505977   -0.000083
      3          6           0        1.879494   -0.154211    0.000018
      4          1           0       -1.414261   -1.270188    0.000181
      5          1           0        2.434593   -0.286467    0.929910
      6          1           0       -0.993098    1.547843   -0.000151
      7          1           0        2.434414   -0.287456   -0.929828
      8          8           0       -1.676980   -0.330766    0.000053
 ---------------------------------------------------------------------

 SCF Done:  E(UHF) =  -190.505744871     A.U. after   25 cycles
 E2 =    -0.6557350228D+00 EUMP2 =    -0.19116147989408D+03
 CCSD(T)
 CCSD(T)= -0.19122627376D+03

 The electronic state is 2-A.
 Alpha  occ. eigenvalues --  -20.88557 -11.61808 -11.53775 -11.48439  -1.71604
 Alpha  occ. eigenvalues --   -1.35435  -1.21446  -1.08161  -0.95083  -0.92145
 Alpha  occ. eigenvalues --   -0.90147  -0.84735  -0.82618  -0.66456  -0.63889
 Alpha virt. eigenvalues --   -0.11117  -0.10821  -0.08928  -0.07769  -0.06097
 Alpha virt. eigenvalues --   -0.05848  -0.02783  -0.01924  -0.01843   0.00279
 Alpha virt. eigenvalues --    0.01789   0.02963   0.03935   0.04432   0.05458

  Beta  occ. eigenvalues --  -20.87361 -11.61540 -11.51867 -11.49346  -1.68754
  Beta  occ. eigenvalues --   -1.30435  -1.20197  -1.06530  -0.93637  -0.90888
  Beta  occ. eigenvalues --   -0.82996  -0.81166  -0.79147  -0.64962
  Beta virt. eigenvalues --   -0.22084  -0.11033  -0.08453  -0.07717  -0.06081
  Beta virt. eigenvalues --   -0.05953  -0.02612  -0.02604  -0.01668  -0.01212
  Beta virt. eigenvalues --   -0.00350   0.01895   0.02936   0.04190   0.05676

 Mulliken charges and spin densities:
               1          2
     1  C    0.343006   0.944910
     2  C    0.378897   0.202373
     3  C   -0.187359  -0.451101
     4  H    0.310444  -0.015945
     5  H    0.225106   0.064488
     6  H    0.253294  -0.008837
     7  H    0.225103   0.064486
     8  O   -0.548490   0.199626
 Sum of Mulliken charges =   1.00000   1.00000

 Dipole moment (field-independent basis, Debye):
    X=              1.6526    Y=             -0.3804    Z=              0.0001  Tot=              1.6958
 Quadrupole moment (field-independent basis, Debye-Ang):
   XX=            -10.5974   YY=            -16.6132   ZZ=            -20.3482
   XY=             -0.5110   XZ=              0.0003   YZ=              0.0007

 3\PMP3-0=-191.190318\MP4SDQ=-191.1934298\CCSD=-191.1953505\CCSD(T)=-19
 Normal termination of Gaussian 09 at Thu Mar  7 09:50:02 2019.
