 Gaussian 09, Revision E.01,
 Gaussian 09:  EM64L-G09RevE.01 30-Nov-2015

 --------------------------------------
 #p ccsd(t,maxcyc=200)/6-311++G(3df,2p)
 --------------------------------------

 -------------
 ccsd(t) iener
 -------------
 Symbolic Z-matrix:
 Charge =  0 Multiplicity = 1

                         Standard orientation:
 ---------------------------------------------------------------------
 Center     Atomic      Atomic             Coordinates (Angstroms)
 Number     Number       Type             X           Y           Z
 ---------------------------------------------------------------------
      1          6           0       -1.081683   -0.658995   -0.000016
      2          6           0        0.207410    0.048558   -0.000104
      3          6           0       -0.796832    0.855280    0.000048
      4          1           0        2.007604    0.625146   -0.000395
      5          1           0       -1.438148   -1.137941    0.911964
      6          1           0       -1.438501   -1.137799   -0.911926
      7          1           0       -1.243349    1.829967    0.000150
      8          8           0        1.517378   -0.206054    0.000080
 ---------------------------------------------------------------------

 SCF Done:  E(RHF) =  -190.752504984     A.U. after   14 cycles
 E2 =    -0.7194136513D+00 EUMP2 =    -0.19147191863487D+03
 CCSD(T)
 CCSD(T)= -0.19152348619D+03

 The electronic state is 1-A.
 Alpha  occ. eigenvalues --  -20.61435 -11.30633 -11.23882 -11.22851  -1.42636
 Alpha  occ. eigenvalues --   -1.15616  -0.82861  -0.81656  -0.70965  -0.65234
 Alpha  occ. eigenvalues --   -0.62850  -0.56033  -0.48449  -0.43334  -0.33977
 Alpha virt. eigenvalues --    0.03810   0.05530   0.05993   0.07108   0.11260
 Alpha virt. eigenvalues --    0.12453   0.12848   0.13401   0.13891   0.15725
 Alpha virt. eigenvalues --    0.17014   0.18825   0.20713   0.21286   0.21482

 Mulliken charges:
               1
     1  C   -0.387119
     2  C    0.401206
     3  C    0.051526
     4  H    0.249624
     5  H    0.086433
     6  H    0.086427
     7  H    0.239607
     8  O   -0.727705
 Sum of Mulliken charges =  -0.00000

 Dipole moment (field-independent basis, Debye):
    X=              0.4994    Y=              1.6860    Z=             -0.0007  Tot=              1.7584
 Quadrupole moment (field-independent basis, Debye-Ang):
   XX=            -22.0387   YY=            -22.3835   ZZ=            -25.1263
   XY=              2.8551   XZ=             -0.0021   YZ=             -0.0005

 Normal termination of Gaussian 09 at Thu Mar  7 08:38:58 2019.
