 Gaussian 09, Revision E.01,
 Gaussian 09:  EM64L-G09RevE.01 30-Nov-2015

 --------------------------------------
 #p ccsd(t,maxcyc=200)/6-311++G(3df,2p)
 --------------------------------------

 -------------
 ccsd(t) iener
 -------------
 Symbolic Z-matrix:
 Charge =  1 Multiplicity = 2

                         Standard orientation:
 ---------------------------------------------------------------------
 Center     Atomic      Atomic             Coordinates (Angstroms)
 Number     Number       Type             X           Y           Z
 ---------------------------------------------------------------------
      1          6           0        1.511140   -0.765399   -0.130771
      2          6           0       -0.429517    0.104410    0.483176
      3          6           0        0.847552    0.535440   -0.113935
      4          1           0       -1.481652    0.070495   -1.120296
      5          1           0        0.830816    1.085052   -1.063560
      6          1           0       -0.493281   -0.141645    1.538216
      7          1           0        1.466400    1.094094    0.617921
      8          8           0       -1.487167   -0.169338   -0.175388
 ---------------------------------------------------------------------

 SCF Done:  E(UHF) =  -190.406438458     A.U. after   30 cycles
 E2 =    -0.6373916424D+00 EUMP2 =    -0.19104383010044D+03
 CCSD(T)
 CCSD(T)= -0.19111513613D+03

 The electronic state is 2-A.
 Alpha  occ. eigenvalues --  -20.90919 -11.65151 -11.54370 -11.49873  -1.74117
 Alpha  occ. eigenvalues --   -1.36417  -1.17926  -1.03715  -0.98904  -0.96264
 Alpha  occ. eigenvalues --   -0.87463  -0.82782  -0.81622  -0.67687  -0.60574
 Alpha virt. eigenvalues --   -0.16161  -0.15042  -0.10896  -0.08906  -0.07394
 Alpha virt. eigenvalues --   -0.04956  -0.04538  -0.02800  -0.00813  -0.00149
 Alpha virt. eigenvalues --    0.00358   0.01907   0.02778   0.03264   0.03837

  Beta  occ. eigenvalues --  -20.90672 -11.64839 -11.52287 -11.50134  -1.73532
  Beta  occ. eigenvalues --   -1.34414  -1.16926  -0.99210  -0.98142  -0.93923
  Beta  occ. eigenvalues --   -0.84910  -0.82222  -0.80542  -0.64348
  Beta virt. eigenvalues --   -0.18017  -0.14081  -0.10993  -0.09085  -0.08032
  Beta virt. eigenvalues --   -0.06657  -0.04512  -0.04011  -0.02064  -0.00013
  Beta virt. eigenvalues --    0.00437   0.00689   0.02734   0.02991   0.03630

 Mulliken charges and spin densities:
               1          2
     1  C   -0.268505   0.947077
     2  C    0.841022   0.149368
     3  C    0.006218  -0.182292
     4  H    0.308935  -0.002582
     5  H    0.189845   0.045246
     6  H    0.257085  -0.007619
     7  H    0.200257   0.006396
     8  O   -0.534857   0.044406
 Sum of Mulliken charges =   1.00000   1.00000

 Dipole moment (field-independent basis, Debye):
    X=             -0.6518    Y=              2.7269    Z=             -0.2513  Tot=              2.8149
 Quadrupole moment (field-independent basis, Debye-Ang):
   XX=            -18.8315   YY=            -22.6365   ZZ=            -15.0223
   XY=              2.9574   XZ=              2.5612   YZ=             -0.2872

 384\PMP3-0=-191.0756377\MP4SDQ=-191.0833247\CCSD=-191.0854214\CCSD(T)=
 Normal termination of Gaussian 09 at Thu Mar  7 10:37:18 2019.
