 Gaussian 09, Revision E.01,
 Gaussian 09:  EM64L-G09RevE.01 30-Nov-2015

 --------------------------------------
 #p ccsd(t,maxcyc=200)/6-311++G(3df,2p)
 --------------------------------------

 -------------
 ccsd(t) iener
 -------------
 Symbolic Z-matrix:
 Charge =  1 Multiplicity = 2

                         Standard orientation:
 ---------------------------------------------------------------------
 Center     Atomic      Atomic             Coordinates (Angstroms)
 Number     Number       Type             X           Y           Z
 ---------------------------------------------------------------------
      1          8           0        2.315247    1.063407    0.000000
      2          6           0       -1.761762   -1.496653    0.000000
      3          6           0       -1.257963   -0.101546    0.000000
      4          6           0        0.000000    0.276535    0.000000
      5          6           0        1.232973    0.701592    0.000000
      6          1           0       -2.411313   -1.621965    0.873347
      7          1           0       -2.411313   -1.621965   -0.873347
      8          1           0       -0.974025   -2.241988    0.000000
      9          1           0       -2.004811    0.699083    0.000000
 ---------------------------------------------------------------------

 SCF Done:  E(UHF) =  -228.389685282     A.U. after   28 cycles
 E2 =    -0.7970613256D+00 EUMP2 =    -0.22918674660717D+03
 CCSD(T)
 CCSD(T)= -0.22926242588D+03

 The electronic state is 2-A'.
 Alpha  occ. eigenvalues --  -20.92665 -11.64551 -11.54570 -11.54314 -11.43835
 Alpha  occ. eigenvalues --   -1.77385  -1.38477  -1.25833  -1.12437  -1.01296
 Alpha  occ. eigenvalues --   -0.95295  -0.92840  -0.91653  -0.82807  -0.77790
 Alpha  occ. eigenvalues --   -0.75287  -0.68104  -0.65957
 Alpha virt. eigenvalues --   -0.17019  -0.09915  -0.07256  -0.06539  -0.05394
 Alpha virt. eigenvalues --   -0.03617  -0.03122  -0.02429  -0.02110  -0.01602
 Alpha virt. eigenvalues --   -0.00666   0.01106   0.01851   0.03160   0.04018

  Beta  occ. eigenvalues --  -20.90056 -11.65385 -11.55245 -11.52327 -11.43610
  Beta  occ. eigenvalues --   -1.72258  -1.34473  -1.22753  -1.12372  -0.98006
  Beta  occ. eigenvalues --   -0.92240  -0.86673  -0.82913  -0.80131  -0.78741
  Beta  occ. eigenvalues --   -0.74890  -0.64003
  Beta virt. eigenvalues --   -0.21258  -0.18812  -0.09704  -0.06883  -0.06391
  Beta virt. eigenvalues --   -0.05337  -0.03130  -0.02306  -0.02060  -0.01687
  Beta virt. eigenvalues --   -0.00542   0.00986   0.01700   0.03145   0.03360

 Mulliken charges and spin densities:
               1          2
     1  O   -0.577645   0.545954
     2  C   -0.461191   0.080211
     3  C    0.123715  -0.430778
     4  C    0.891963   1.308857
     5  C    0.270999  -0.534668
     6  H    0.189086  -0.013087
     7  H    0.189086  -0.013087
     8  H    0.171069  -0.005004
     9  H    0.202918   0.061602
 Sum of Mulliken charges =   1.00000   1.00000

 Dipole moment (field-independent basis, Debye):
    X=             -2.5348    Y=             -0.2798    Z=             -0.0000  Tot=              2.5502
 Quadrupole moment (field-independent basis, Debye-Ang):
   XX=            -14.4859   YY=            -21.0852   ZZ=            -26.4924
   XY=              4.3708   XZ=              0.0000   YZ=              0.0000

 29.2166847\MP4SDQ=-229.2195623\CCSD=-229.2208999\CCSD(T)=-229.2624259\
 Normal termination of Gaussian 09 at Wed Mar  6 20:05:49 2019.
