 Gaussian 09, Revision E.01,
 Gaussian 09:  EM64L-G09RevE.01 30-Nov-2015

 --------------------------------------
 #p ccsd(t,maxcyc=200)/6-311++G(3df,2p)
 --------------------------------------

 -------------
 ccsd(t) iener
 -------------
 Symbolic Z-matrix:
 Charge =  0 Multiplicity = 1

                         Standard orientation:
 ---------------------------------------------------------------------
 Center     Atomic      Atomic             Coordinates (Angstroms)
 Number     Number       Type             X           Y           Z
 ---------------------------------------------------------------------
      1          8           0        2.352483   -0.493065    0.000064
      2          6           0       -2.530521   -0.124830   -0.000095
      3          6           0       -1.091419    0.056901   -0.000320
      4          6           0        0.106791    0.181299   -0.000267
      5          6           0        1.529308    0.392297    0.000052
      6          1           0       -2.848136   -0.649099    0.903006
      7          1           0       -2.840386   -0.725070   -0.857289
      8          1           0       -3.053434    0.831109   -0.042897
      9          1           0        1.837135    1.453583    0.000449
 ---------------------------------------------------------------------

 SCF Done:  E(RHF) =  -228.668418069     A.U. after   17 cycles
 E2 =    -0.8547060678D+00 EUMP2 =    -0.22952312413727D+03
 CCSD(T)
 CCSD(T)= -0.22958482794D+03

 The electronic state is 1-A.
 Alpha  occ. eigenvalues --  -20.56857 -11.35625 -11.27003 -11.26753 -11.24135
 Alpha  occ. eigenvalues --   -1.40343  -1.09140  -1.00327  -0.89170  -0.72560
 Alpha  occ. eigenvalues --   -0.66354  -0.64982  -0.61275  -0.61222  -0.55184
 Alpha  occ. eigenvalues --   -0.45339  -0.40754  -0.40339
 Alpha virt. eigenvalues --    0.03286   0.05246   0.06496   0.06621   0.07843
 Alpha virt. eigenvalues --    0.09680   0.10881   0.11916   0.13853   0.14181
 Alpha virt. eigenvalues --    0.14226   0.16200   0.17187   0.17908   0.17945

 Mulliken charges:
               1
     1  O   -0.732979
     2  C   -0.562418
     3  C    0.252661
     4  C    0.375785
     5  C    0.101443
     6  H    0.144899
     7  H    0.145155
     8  H    0.138910
     9  H    0.136542
 Sum of Mulliken charges =  -0.00000

 Dipole moment (field-independent basis, Debye):
    X=             -3.8126    Y=              1.8241    Z=              0.0027  Tot=              4.2265
 Quadrupole moment (field-independent basis, Debye-Ang):
   XX=            -29.1169   YY=            -29.3000   ZZ=            -29.3478
   XY=              5.2376   XZ=             -0.0067   YZ=              0.0005

 229.5445519\CCSD=-229.5418393\CCSD(T)=-229.5848279\RMSD=1.617e-09\PG=C
 Normal termination of Gaussian 09 at Wed Mar  6 11:21:52 2019.
