 Gaussian 09, Revision E.01,
 Gaussian 09:  EM64L-G09RevE.01 30-Nov-2015

 --------------------------------------
 #p ccsd(t,maxcyc=200)/6-311++G(3df,2p)
 --------------------------------------

 -------------
 ccsd(t) iener
 -------------
 Symbolic Z-matrix:
 Charge =  0 Multiplicity = 1

                         Standard orientation:
 ---------------------------------------------------------------------
 Center     Atomic      Atomic             Coordinates (Angstroms)
 Number     Number       Type             X           Y           Z
 ---------------------------------------------------------------------
      1          8           0       -1.813677    1.831572    0.000000
      2          6           0        1.894031   -1.445541    0.000000
      3          6           0        0.454124   -1.059866    0.000000
      4          6           0        0.000000    0.186727    0.000000
      5          6           0       -1.018399    0.976893    0.000000
      6          1           0        2.116540   -2.065314    0.874009
      7          1           0        2.116540   -2.065314   -0.874009
      8          1           0        2.546509   -0.576261    0.000000
      9          1           0       -0.248711   -1.894967    0.000000
 ---------------------------------------------------------------------

 SCF Done:  E(RHF) =  -228.660306015     A.U. after   17 cycles
 E2 =    -0.8616167764D+00 EUMP2 =    -0.22952192279160D+03
 CCSD(T)
 CCSD(T)= -0.22958432920D+03

 The electronic state is 1-A'.
 Alpha  occ. eigenvalues --  -20.61287 -11.37409 -11.30522 -11.24462 -11.22921
 Alpha  occ. eigenvalues --   -1.45585  -1.11007  -1.00912  -0.87545  -0.72718
 Alpha  occ. eigenvalues --   -0.69795  -0.63450  -0.60982  -0.58920  -0.58868
 Alpha  occ. eigenvalues --   -0.55374  -0.39378  -0.34888
 Alpha virt. eigenvalues --    0.03315   0.05015   0.05354   0.06522   0.06780
 Alpha virt. eigenvalues --    0.09300   0.11162   0.11755   0.12534   0.13308
 Alpha virt. eigenvalues --    0.13370   0.14750   0.16140   0.17982   0.18425

 Mulliken charges:
               1
     1  O   -0.779971
     2  C   -0.474647
     3  C   -0.152999
     4  C    0.226886
     5  C    0.649824
     6  H    0.131510
     7  H    0.131510
     8  H    0.144821
     9  H    0.123068
 Sum of Mulliken charges =  -0.00000

 Dipole moment (field-independent basis, Debye):
    X=              1.8076    Y=             -3.3808    Z=              0.0000  Tot=              3.8337
 Quadrupole moment (field-independent basis, Debye-Ang):
   XX=            -30.9416   YY=            -30.3333   ZZ=            -29.6833
   XY=              1.5104   XZ=              0.0000   YZ=              0.0000

 DQ=-229.5284819\MP4SDQ=-229.5413723\CCSD=-229.5378584\CCSD(T)=-229.584
 Normal termination of Gaussian 09 at Wed Mar  6 10:54:02 2019.
