 Gaussian 09, Revision E.01,
 Gaussian 09:  EM64L-G09RevE.01 30-Nov-2015

 --------------------------------------
 #p ccsd(t,maxcyc=200)/6-311++G(3df,2p)
 --------------------------------------

 -------------
 ccsd(t) iener
 -------------
 Symbolic Z-matrix:
 Charge =  1 Multiplicity = 2

                         Standard orientation:
 ---------------------------------------------------------------------
 Center     Atomic      Atomic             Coordinates (Angstroms)
 Number     Number       Type             X           Y           Z
 ---------------------------------------------------------------------
      1          6           0        1.425448    0.211190    0.248133
      2          6           0       -2.171375   -0.393464    0.091329
      3          8           0        1.646929   -0.873294   -0.179073
      4          6           0       -1.039870    0.238759   -0.063208
      5          6           0        0.091386    0.878623   -0.144340
      6          1           0        2.122202    0.802770    0.858155
      7          1           0       -2.777492   -0.667154   -0.769969
      8          1           0       -2.545394   -0.652930    1.079230
      9          1           0        0.191716    1.893015   -0.526321
 ---------------------------------------------------------------------

 SCF Done:  E(UHF) =  -228.346913460     A.U. after   37 cycles
 E2 =    -0.7846140048D+00 EUMP2 =    -0.22913152746438D+03
 CCSD(T)
 CCSD(T)= -0.22922305620D+03

 The electronic state is 2-A.
 Alpha  occ. eigenvalues --  -20.79200 -11.56144 -11.54721 -11.53494 -11.52851
 Alpha  occ. eigenvalues --   -1.64315  -1.38016  -1.27085  -1.07241  -0.96428
 Alpha  occ. eigenvalues --   -0.91959  -0.90659  -0.88186  -0.85532  -0.78132
 Alpha  occ. eigenvalues --   -0.70300  -0.67610  -0.64135
 Alpha virt. eigenvalues --   -0.15612  -0.10604  -0.09079  -0.07262  -0.06677
 Alpha virt. eigenvalues --   -0.05451  -0.04717  -0.02934  -0.02145  -0.00905
 Alpha virt. eigenvalues --   -0.00445   0.01505   0.02153   0.02503   0.03103

  Beta  occ. eigenvalues --  -20.77664 -11.56561 -11.55433 -11.52317 -11.51798
  Beta  occ. eigenvalues --   -1.60921  -1.34451  -1.22590  -1.07063  -0.95156
  Beta  occ. eigenvalues --   -0.90547  -0.89416  -0.85994  -0.84084  -0.72344
  Beta  occ. eigenvalues --   -0.67066  -0.63363
  Beta virt. eigenvalues --   -0.25399  -0.10694  -0.09980  -0.08051  -0.06795
  Beta virt. eigenvalues --   -0.06419  -0.05084  -0.04420  -0.02390  -0.00836
  Beta virt. eigenvalues --   -0.00314   0.00283   0.01985   0.02621   0.02825

 Mulliken charges and spin densities:
               1          2
     1  C    0.437134  -0.373917
     2  C   -0.102140   0.589199
     3  O   -0.579904   0.359571
     4  C    0.534095  -0.217317
     5  C   -0.161075   0.681112
     6  H    0.184035   0.012057
     7  H    0.240344  -0.014857
     8  H    0.235470  -0.014662
     9  H    0.212041  -0.021185
 Sum of Mulliken charges =   1.00000   1.00000

 Dipole moment (field-independent basis, Debye):
    X=             -4.4664    Y=              2.8673    Z=              0.8525  Tot=              5.3756
 Quadrupole moment (field-independent basis, Debye-Ang):
   XX=             -9.5785   YY=            -23.7030   ZZ=            -24.2558
   XY=              7.8261   XZ=              1.7225   YZ=             -1.4279

 2\CCSD=-229.1798475\CCSD(T)=-229.2230562\S2=0.942634\S2-1=0.883711\S2A
 Normal termination of Gaussian 09 at Wed Mar  6 13:59:51 2019.
