 Gaussian 09, Revision E.01,
 Gaussian 09:  EM64L-G09RevE.01 30-Nov-2015

 --------------------------------------
 #p ccsd(t,maxcyc=200)/6-311++G(3df,2p)
 --------------------------------------

 -------------
 ccsd(t) iener
 -------------
 Symbolic Z-matrix:
 Charge =  1 Multiplicity = 2

                         Standard orientation:
 ---------------------------------------------------------------------
 Center     Atomic      Atomic             Coordinates (Angstroms)
 Number     Number       Type             X           Y           Z
 ---------------------------------------------------------------------
      1          8           0       -0.000000   -0.000000    2.287060
      2          6           0        0.000000    0.749349   -1.452940
      3          6           0       -0.000000   -0.749349   -1.452940
      4          6           0        0.000000    0.000000   -0.176134
      5          6           0       -0.000000   -0.000000    1.151937
      6          1           0       -0.917142    1.284814   -1.679004
      7          1           0        0.917142    1.284814   -1.679004
      8          1           0        0.917142   -1.284814   -1.679004
      9          1           0       -0.917142   -1.284814   -1.679004
 ---------------------------------------------------------------------

 SCF Done:  E(UHF) =  -228.379428032     A.U. after   22 cycles
 E2 =    -0.8120749753D+00 EUMP2 =    -0.22919150300737D+03
 CCSD(T)
 CCSD(T)= -0.22925774190D+03

 The electronic state is 2-B1.
 Alpha  occ. eigenvalues --  -20.93215 -11.65620 -11.55654 -11.48875 -11.48804
 Alpha  occ. eigenvalues --   -1.78066  -1.43683  -1.25626  -1.07282  -1.02154
 Alpha  occ. eigenvalues --   -0.95689  -0.93019  -0.90749  -0.89791  -0.75786
 Alpha  occ. eigenvalues --   -0.71655  -0.71471  -0.66071
 Alpha virt. eigenvalues --   -0.12914  -0.09672  -0.08115  -0.06849  -0.06681
 Alpha virt. eigenvalues --   -0.03866  -0.02706  -0.02612  -0.02534  -0.01764
 Alpha virt. eigenvalues --   -0.01629   0.01701   0.02222   0.03862   0.04259

  Beta  occ. eigenvalues --  -20.91193 -11.66270 -11.53801 -11.49061 -11.48990
  Beta  occ. eigenvalues --   -1.74149  -1.40456  -1.21877  -1.07244  -0.99471
  Beta  occ. eigenvalues --   -0.92077  -0.88436  -0.88133  -0.83472  -0.74872
  Beta  occ. eigenvalues --   -0.71629  -0.69250
  Beta virt. eigenvalues --   -0.21725  -0.12891  -0.09555  -0.06964  -0.06766
  Beta virt. eigenvalues --   -0.06651  -0.02702  -0.02544  -0.02426  -0.01649
  Beta virt. eigenvalues --   -0.01598   0.01856   0.02255   0.02710   0.03869

 Mulliken charges and spin densities:
               1          2
     1  O   -0.553393   0.414680
     2  C   -0.222528  -0.082673
     3  C   -0.222528  -0.082673
     4  C    0.393294   1.117025
     5  C    0.773154  -0.463850
     6  H    0.208000   0.024373
     7  H    0.208000   0.024373
     8  H    0.208000   0.024373
     9  H    0.208000   0.024373
 Sum of Mulliken charges =   1.00000   1.00000

 Dipole moment (field-independent basis, Debye):
    X=             -0.0000    Y=             -0.0000    Z=             -1.9224  Tot=              1.9224
 Quadrupole moment (field-independent basis, Debye-Ang):
   XX=            -23.8985   YY=            -22.6880   ZZ=            -18.2008
   XY=              0.0000   XZ=              0.0000   YZ=              0.0000

 -229.2189392\CCSD=-229.2171276\CCSD(T)=-229.2577419\S2=0.803906\S2-1=0
 Normal termination of Gaussian 09 at Wed Mar  6 15:19:58 2019.
