 Gaussian 09, Revision E.01,
 Gaussian 09:  EM64L-G09RevE.01 30-Nov-2015

 --------------------------------------
 #p ccsd(t,maxcyc=200)/6-311++G(3df,2p)
 --------------------------------------

 -------------
 ccsd(t) iener
 -------------
 Symbolic Z-matrix:
 Charge =  1 Multiplicity = 2

                         Standard orientation:
 ---------------------------------------------------------------------
 Center     Atomic      Atomic             Coordinates (Angstroms)
 Number     Number       Type             X           Y           Z
 ---------------------------------------------------------------------
      1          6           0       -0.981735   -0.401594   -0.000346
      2          6           0        2.531476   -0.197245    0.000263
      3          8           0       -2.238695   -0.124467    0.000339
      4          6           0        1.359754    0.143116   -0.000227
      5          6           0        0.050930    0.543420   -0.000364
      6          1           0       -0.776601   -1.466791   -0.000874
      7          1           0       -2.454470    0.824870    0.001295
      8          1           0        3.558484   -0.493844    0.001249
      9          1           0       -0.180406    1.605317   -0.000334
 ---------------------------------------------------------------------

 SCF Done:  E(UHF) =  -228.384254867     A.U. after   26 cycles
 E2 =    -0.7934810586D+00 EUMP2 =    -0.22917773592533D+03
 CCSD(T)
 CCSD(T)= -0.22925478202D+03

 The electronic state is 2-A.
 Alpha  occ. eigenvalues --  -20.87365 -11.60416 -11.51190 -11.48059 -11.46090
 Alpha  occ. eigenvalues --   -1.70590  -1.34137  -1.25209  -1.13103  -1.00124
 Alpha  occ. eigenvalues --   -0.95974  -0.92025  -0.87114  -0.84855  -0.79856
 Alpha  occ. eigenvalues --   -0.71108  -0.62865  -0.59604
 Alpha virt. eigenvalues --   -0.12573  -0.09724  -0.07686  -0.06371  -0.04769
 Alpha virt. eigenvalues --   -0.03671  -0.03530  -0.01486  -0.01347  -0.00768
 Alpha virt. eigenvalues --   -0.00050   0.01136   0.03391   0.03749   0.04324

  Beta  occ. eigenvalues --  -20.86671 -11.60263 -11.50111 -11.47486 -11.45896
  Beta  occ. eigenvalues --   -1.69008  -1.32201  -1.20444  -1.11577  -0.99352
  Beta  occ. eigenvalues --   -0.95487  -0.90643  -0.84795  -0.81063  -0.79386
  Beta  occ. eigenvalues --   -0.63714  -0.61767
  Beta virt. eigenvalues --   -0.21783  -0.09637  -0.07688  -0.06904  -0.06394
  Beta virt. eigenvalues --   -0.04671  -0.03443  -0.03333  -0.01238  -0.00719
  Beta virt. eigenvalues --   -0.00429   0.00015   0.03682   0.03776   0.04450

 Mulliken charges and spin densities:
               1          2
     1  C    0.417675   0.105338
     2  C    0.127357   0.945156
     3  O   -0.586711   0.117610
     4  C   -0.046414  -0.590577
     5  C    0.006074   0.542516
     6  H    0.241134  -0.008162
     7  H    0.313590  -0.011496
     8  H    0.353218  -0.058369
     9  H    0.174077  -0.042015
 Sum of Mulliken charges =   1.00000   1.00000

 Dipole moment (field-independent basis, Debye):
    X=              0.2345    Y=              0.7478    Z=              0.0017  Tot=              0.7837
 Quadrupole moment (field-independent basis, Debye-Ang):
   XX=             -5.0260   YY=            -21.6739   ZZ=            -28.2950
   XY=             -5.7335   XZ=              0.0012   YZ=              0.0028

 3092\CCSD=-229.2145215\CCSD(T)=-229.254782\S2=0.922044\S2-1=0.864727\S
 Normal termination of Gaussian 09 at Wed Mar  6 17:20:31 2019.
