 Gaussian 09, Revision E.01,
 Gaussian 09:  EM64L-G09RevE.01 30-Nov-2015

 --------------------------------------
 #p ccsd(t,maxcyc=200)/6-311++G(3df,2p)
 --------------------------------------

 -------------
 ccsd(t) iener
 -------------
 Symbolic Z-matrix:
 Charge =  0 Multiplicity = 1

                         Standard orientation:
 ---------------------------------------------------------------------
 Center     Atomic      Atomic             Coordinates (Angstroms)
 Number     Number       Type             X           Y           Z
 ---------------------------------------------------------------------
      1          8           0       -1.880368   -0.683549   -0.000000
      2          6           0        0.551647    0.104089   -0.000001
      3          6           0       -0.873844   -0.023010    0.000000
      4          6           0       -0.190334    1.224909    0.000000
      5          6           0        1.914612   -0.464054   -0.000000
      6          1           0       -0.148368    2.305915   -0.000000
      7          1           0        2.049826   -1.100671    0.875957
      8          1           0        2.679168    0.312218    0.000001
      9          1           0        2.049826   -1.100672   -0.875956
 ---------------------------------------------------------------------

 SCF Done:  E(RHF) =  -228.660593106     A.U. after   14 cycles
 E2 =    -0.8540155446D+00 EUMP2 =    -0.22951460865098D+03
 CCSD(T)
 CCSD(T)= -0.22957551206D+03

 The electronic state is 1-A.
 Alpha  occ. eigenvalues --  -20.51980 -11.34359 -11.29422 -11.28159 -11.26306
 Alpha  occ. eigenvalues --   -1.36828  -1.21183  -1.02260  -0.79936  -0.72472
 Alpha  occ. eigenvalues --   -0.65992  -0.62178  -0.61794  -0.58552  -0.55710
 Alpha  occ. eigenvalues --   -0.52155  -0.40299  -0.38083
 Alpha virt. eigenvalues --    0.02915   0.04574   0.06533   0.06577   0.09520
 Alpha virt. eigenvalues --    0.09763   0.10589   0.12907   0.13238   0.14070
 Alpha virt. eigenvalues --    0.15378   0.15643   0.16431   0.17486   0.17517

 Mulliken charges:
               1
     1  O   -0.946552
     2  C   -0.195425
     3  C    0.776396
     4  C    0.050400
     5  C   -0.338497
     6  H    0.232771
     7  H    0.148660
     8  H    0.123587
     9  H    0.148660
 Sum of Mulliken charges =  -0.00000

 Dipole moment (field-independent basis, Debye):
    X=              4.9111    Y=              2.2831    Z=              0.0000  Tot=              5.4158
 Quadrupole moment (field-independent basis, Debye-Ang):
   XX=            -34.5869   YY=            -26.7166   ZZ=            -28.9905
   XY=             -4.5279   XZ=              0.0000   YZ=              0.0000

 DQ=-229.5353298\CCSD=-229.5325128\CCSD(T)=-229.5755121\RMSD=7.589e-09\
 Normal termination of Gaussian 09 at Wed Mar  6 07:17:04 2019.
