 Gaussian 09, Revision E.01,
 Gaussian 09:  EM64L-G09RevE.01 30-Nov-2015

 --------------------------------------
 #p ccsd(t,maxcyc=200)/6-311++G(3df,2p)
 --------------------------------------

 -------------
 ccsd(t) iener
 -------------
 Symbolic Z-matrix:
 Charge =  1 Multiplicity = 2

                         Standard orientation:
 ---------------------------------------------------------------------
 Center     Atomic      Atomic             Coordinates (Angstroms)
 Number     Number       Type             X           Y           Z
 ---------------------------------------------------------------------
      1          6           0       -1.098999    0.422626    0.000000
      2          6           0        0.536300   -1.055054    0.000000
      3          8           0       -0.689477   -1.019512    0.000000
      4          6           0        1.214601    0.257497    0.000000
      5          6           0        0.000000    1.153818    0.000000
      6          1           0       -2.167573    0.542501    0.000000
      7          1           0        1.866021    0.354204    0.877557
      8          1           0        1.866021    0.354204   -0.877557
      9          1           0        0.039931    2.231863    0.000000
 ---------------------------------------------------------------------

 SCF Done:  E(UHF) =  -228.361692224     A.U. after   27 cycles
 E2 =    -0.8015417970D+00 EUMP2 =    -0.22916323402053D+03
 CCSD(T)
 CCSD(T)= -0.22923618384D+03

 The electronic state is 2-A'.
 Alpha  occ. eigenvalues --  -20.91383 -11.65015 -11.53675 -11.49884 -11.47509
 Alpha  occ. eigenvalues --   -1.76509  -1.34692  -1.27021  -1.08433  -1.02226
 Alpha  occ. eigenvalues --   -0.97576  -0.90905  -0.86704  -0.83132  -0.79562
 Alpha  occ. eigenvalues --   -0.78735  -0.71322  -0.61793
 Alpha virt. eigenvalues --   -0.15671  -0.09225  -0.06920  -0.06730  -0.06286
 Alpha virt. eigenvalues --   -0.06035  -0.03851  -0.03064  -0.02230  -0.00791
 Alpha virt. eigenvalues --    0.00864   0.00940   0.02589   0.03828   0.04737

  Beta  occ. eigenvalues --  -20.91851 -11.61823 -11.52827 -11.49528 -11.47999
  Beta  occ. eigenvalues --   -1.76223  -1.34077  -1.23079  -1.07891  -1.00556
  Beta  occ. eigenvalues --   -0.92401  -0.91710  -0.83142  -0.82639  -0.81222
  Beta  occ. eigenvalues --   -0.78413  -0.61132
  Beta virt. eigenvalues --   -0.18152  -0.11964  -0.08830  -0.07020  -0.06571
  Beta virt. eigenvalues --   -0.05662  -0.05640  -0.03534  -0.02467  -0.02001
  Beta virt. eigenvalues --   -0.00398   0.01214   0.01385   0.02814   0.04308

 Mulliken charges and spin densities:
               1          2
     1  C    0.082325   0.407999
     2  C    0.690185   1.143439
     3  O   -0.651414  -0.194278
     4  C   -0.181460   0.022281
     5  C    0.226129  -0.350730
     6  H    0.261753  -0.015030
     7  H    0.183492  -0.017041
     8  H    0.183492  -0.017041
     9  H    0.205498   0.020400
 Sum of Mulliken charges =   1.00000   1.00000

 Dipole moment (field-independent basis, Debye):
    X=              1.5248    Y=              0.8310    Z=              0.0000  Tot=              1.7366
 Quadrupole moment (field-independent basis, Debye-Ang):
   XX=            -16.7483   YY=            -20.9609   ZZ=            -26.4820
   XY=             -1.3644   XZ=              0.0000   YZ=              0.0000

 1894707\MP4SDQ=-229.1944171\CCSD=-229.1952553\CCSD(T)=-229.2361838\S2=
 Normal termination of Gaussian 09 at Wed Mar  6 16:44:24 2019.
