 Gaussian 09, Revision E.01,
 Gaussian 09:  EM64L-G09RevE.01 30-Nov-2015

 --------------------------------------
 #p ccsd(t,maxcyc=200)/6-311++G(3df,2p)
 --------------------------------------

 -------------
 ccsd(t) iener
 -------------
 Symbolic Z-matrix:
 Charge =  0 Multiplicity = 1

                         Standard orientation:
 ---------------------------------------------------------------------
 Center     Atomic      Atomic             Coordinates (Angstroms)
 Number     Number       Type             X           Y           Z
 ---------------------------------------------------------------------
      1          8           0       -0.027269   -0.558596    0.000001
      2          6           0        0.987269    0.394548    0.000000
      3          6           0        2.252673    0.021626   -0.000000
      4          6           0       -1.257813   -0.140530   -0.000001
      5          6           0       -2.407486    0.193243   -0.000000
      6          1           0        0.631250    1.415435    0.000001
      7          1           0        3.025616    0.773715   -0.000001
      8          1           0        2.539824   -1.019681   -0.000000
      9          1           0       -3.426385    0.485977    0.000001
 ---------------------------------------------------------------------

 SCF Done:  E(RHF) =  -228.619692413     A.U. after   15 cycles
 E2 =    -0.8510695395D+00 EUMP2 =    -0.22947076195270D+03
 CCSD(T)
 CCSD(T)= -0.22953564734D+03

 The electronic state is 1-A.
 Alpha  occ. eigenvalues --  -20.64448 -11.31915 -11.30039 -11.23793 -11.22618
 Alpha  occ. eigenvalues --   -1.47456  -1.07726  -1.01698  -0.85676  -0.78640
 Alpha  occ. eigenvalues --   -0.70652  -0.67031  -0.65779  -0.60928  -0.55953
 Alpha  occ. eigenvalues --   -0.41835  -0.39973  -0.35569
 Alpha virt. eigenvalues --    0.04050   0.04791   0.05946   0.07209   0.10143
 Alpha virt. eigenvalues --    0.10252   0.11296   0.12421   0.13596   0.13648
 Alpha virt. eigenvalues --    0.14573   0.17213   0.18339   0.18508   0.19004

 Mulliken charges:
               1
     1  O   -0.791155
     2  C    0.204611
     3  C   -0.237746
     4  C   -0.230522
     5  C    0.278414
     6  H    0.158811
     7  H    0.144775
     8  H    0.147133
     9  H    0.325679
 Sum of Mulliken charges =  -0.00000

 Dipole moment (field-independent basis, Debye):
    X=              0.8619    Y=              1.1508    Z=              0.0000  Tot=              1.4378
 Quadrupole moment (field-independent basis, Debye-Ang):
   XX=            -23.0327   YY=            -29.0349   ZZ=            -32.7290
   XY=             -1.1194   XZ=             -0.0000   YZ=              0.0000

 \CCSD=-229.4931045\CCSD(T)=-229.5356473\RMSD=3.540e-09\PG=C01 [X(C4H4O
 Normal termination of Gaussian 09 at Wed Mar  6 11:15:03 2019.
