 Gaussian 09, Revision E.01,
 Gaussian 09:  EM64L-G09RevE.01 30-Nov-2015

 --------------------------------------
 #p ccsd(t,maxcyc=200)/6-311++G(3df,2p)
 --------------------------------------

 -------------
 ccsd(t) iener
 -------------
 Symbolic Z-matrix:
 Charge =  1 Multiplicity = 2

                         Standard orientation:
 ---------------------------------------------------------------------
 Center     Atomic      Atomic             Coordinates (Angstroms)
 Number     Number       Type             X           Y           Z
 ---------------------------------------------------------------------
      1          6           0        1.167976    0.077536   -0.065837
      2          6           0       -1.992333   -0.588519   -0.305555
      3          8           0        2.031106   -0.619386    0.050592
      4          6           0       -1.189279    0.115333    0.433832
      5          6           0       -0.005447    0.892952   -0.182396
      6          1           0        0.197440    1.842562    0.325995
      7          1           0       -2.892279   -1.179068   -0.272952
      8          1           0       -1.294672    0.214468    1.512794
      9          1           0       -0.144848    1.093314   -1.250842
 ---------------------------------------------------------------------

 SCF Done:  E(UHF) =  -228.376804874     A.U. after   23 cycles
 E2 =    -0.7941097902D+00 EUMP2 =    -0.22917091466427D+03
 CCSD(T)
 CCSD(T)= -0.22924395455D+03

 The electronic state is 2-A.
 Alpha  occ. eigenvalues --  -20.94633 -11.68598 -11.53106 -11.45618 -11.44786
 Alpha  occ. eigenvalues --   -1.79937  -1.35642  -1.23578  -1.05123  -0.98961
 Alpha  occ. eigenvalues --   -0.94355  -0.93775  -0.90476  -0.86818  -0.80150
 Alpha  occ. eigenvalues --   -0.79105  -0.60842  -0.59784
 Alpha virt. eigenvalues --   -0.13016  -0.12013  -0.10319  -0.07279  -0.06470
 Alpha virt. eigenvalues --   -0.05665  -0.04511  -0.03473  -0.02004  -0.01648
 Alpha virt. eigenvalues --   -0.00340   0.00309   0.00917   0.02603   0.02904

  Beta  occ. eigenvalues --  -20.94617 -11.68695 -11.52785 -11.46079 -11.42193
  Beta  occ. eigenvalues --   -1.79922  -1.35522  -1.19716  -1.04791  -0.95678
  Beta  occ. eigenvalues --   -0.94597  -0.93290  -0.89548  -0.85711  -0.78600
  Beta  occ. eigenvalues --   -0.77286  -0.60325
  Beta virt. eigenvalues --   -0.12853  -0.12284  -0.11205  -0.07787  -0.06978
  Beta virt. eigenvalues --   -0.06076  -0.05295  -0.03559  -0.03460  -0.01998
  Beta virt. eigenvalues --   -0.00342  -0.00161   0.00531   0.01275   0.03015

 Mulliken charges and spin densities:
               1          2
     1  C    1.040504  -0.000798
     2  C   -0.407983   1.725363
     3  O   -0.535361   0.004164
     4  C    0.066403  -0.868493
     5  C   -0.027113   0.102313
     6  H    0.202249  -0.012467
     7  H    0.243133  -0.036184
     8  H    0.191318   0.093648
     9  H    0.226850  -0.007547
 Sum of Mulliken charges =   1.00000   1.00000

 Dipole moment (field-independent basis, Debye):
    X=              0.3712    Y=              1.8583    Z=             -0.1970  Tot=              1.9052
 Quadrupole moment (field-independent basis, Debye-Ang):
   XX=            -16.8723   YY=            -22.8376   ZZ=            -24.1747
   XY=              3.9867   XZ=             -0.6377   YZ=              0.0703

 2025598\CCSD=-229.204114\CCSD(T)=-229.2439545\S2=0.917536\S2-1=0.87766
 Normal termination of Gaussian 09 at Wed Mar  6 13:01:35 2019.
