 Gaussian 09, Revision E.01,
 Gaussian 09:  EM64L-G09RevE.01 30-Nov-2015

 --------------------------------------
 #p ccsd(t,maxcyc=200)/6-311++G(3df,2p)
 --------------------------------------

 -------------
 ccsd(t) iener
 -------------
 Symbolic Z-matrix:
 Charge =  1 Multiplicity = 2

                         Standard orientation:
 ---------------------------------------------------------------------
 Center     Atomic      Atomic             Coordinates (Angstroms)
 Number     Number       Type             X           Y           Z
 ---------------------------------------------------------------------
      1          6           0       -0.723768    0.824311    0.000094
      2          6           0        1.166665   -0.369494    0.000026
      3          8           0        0.556856    0.966909   -0.000070
      4          6           0       -0.023765   -1.218556    0.000007
      5          6           0       -1.173511   -0.522989   -0.000028
      6          1           0       -1.310844    1.736250   -0.000012
      7          1           0        1.790577   -0.447727   -0.893393
      8          1           0        1.790554   -0.447656    0.893467
      9          1           0       -2.198867   -0.855768   -0.000100
 ---------------------------------------------------------------------

 SCF Done:  E(UHF) =  -228.381685210     A.U. after   25 cycles
 E2 =    -0.7929203690D+00 EUMP2 =    -0.22917460557862D+03
 CCSD(T)
 CCSD(T)= -0.22924950187D+03

 The electronic state is 2-A.
 Alpha  occ. eigenvalues --  -20.87587 -11.60865 -11.54540 -11.53237 -11.47943
 Alpha  occ. eigenvalues --   -1.71713  -1.36671  -1.26222  -1.06397  -1.03629
 Alpha  occ. eigenvalues --   -0.97994  -0.91121  -0.86980  -0.82107  -0.78388
 Alpha  occ. eigenvalues --   -0.75487  -0.70873  -0.64801
 Alpha virt. eigenvalues --   -0.18672  -0.09190  -0.07050  -0.06261  -0.05828
 Alpha virt. eigenvalues --   -0.04199  -0.03075  -0.03059  -0.01961  -0.01314
 Alpha virt. eigenvalues --    0.00819   0.01955   0.02840   0.03739   0.04219

  Beta  occ. eigenvalues --  -20.87822 -11.60701 -11.53247 -11.50787 -11.48617
  Beta  occ. eigenvalues --   -1.71803  -1.33391  -1.25627  -1.05547  -1.01193
  Beta  occ. eigenvalues --   -0.93997  -0.92083  -0.86424  -0.80594  -0.77502
  Beta  occ. eigenvalues --   -0.76641  -0.64668
  Beta virt. eigenvalues --   -0.15114  -0.15035  -0.09095  -0.06883  -0.05849
  Beta virt. eigenvalues --   -0.05711  -0.03880  -0.02782  -0.01930  -0.01830
  Beta virt. eigenvalues --   -0.01568   0.00820   0.02277   0.03008   0.03893

 Mulliken charges and spin densities:
               1          2
     1  C    0.458138   0.015304
     2  C    0.130525  -0.042547
     3  O   -0.751618  -0.040403
     4  C    0.241796   1.573157
     5  C    0.046725  -0.561189
     6  H    0.241414   0.005207
     7  H    0.197727   0.007515
     8  H    0.197729   0.007512
     9  H    0.237563   0.035444
 Sum of Mulliken charges =   1.00000   1.00000

 Dipole moment (field-independent basis, Debye):
    X=             -1.1109    Y=             -0.3569    Z=              0.0002  Tot=              1.1669
 Quadrupole moment (field-independent basis, Debye-Ang):
   XX=            -15.5401   YY=            -21.9615   ZZ=            -26.1963
   XY=             -3.7831   XZ=              0.0003   YZ=              0.0004

 066312\CCSD=-229.2086668\CCSD(T)=-229.2495019\S2=0.914294\S2-1=0.87904
 Normal termination of Gaussian 09 at Wed Mar  6 17:32:47 2019.
