 Gaussian 09, Revision E.01,
 Gaussian 09:  EM64L-G09RevE.01 30-Nov-2015

 --------------------------------------
 #p ccsd(t,maxcyc=200)/6-311++G(3df,2p)
 --------------------------------------

 -------------
 ccsd(t) iener
 -------------
 Symbolic Z-matrix:
 Charge =  0 Multiplicity = 1

                         Standard orientation:
 ---------------------------------------------------------------------
 Center     Atomic      Atomic             Coordinates (Angstroms)
 Number     Number       Type             X           Y           Z
 ---------------------------------------------------------------------
      1          8           0        2.107898    0.000133    0.088836
      2          6           0       -0.245148   -0.000497    0.471927
      3          6           0       -1.506299    0.639811   -0.082967
      4          6           0       -1.506810   -0.639338   -0.083264
      5          6           0        0.986288   -0.000105   -0.352657
      6          1           0       -0.060917   -0.000863    1.543695
      7          1           0       -1.985418    1.584271   -0.260771
      8          1           0       -1.986827   -1.583275   -0.261510
      9          1           0        0.801797   -0.000419   -1.450334
 ---------------------------------------------------------------------

 SCF Done:  E(RHF) =  -228.635119067     A.U. after   13 cycles
 E2 =    -0.8582540239D+00 EUMP2 =    -0.22949337309115D+03
 CCSD(T)
 CCSD(T)= -0.22955590311D+03

 The electronic state is 1-A.
 Alpha  occ. eigenvalues --  -20.54883 -11.32290 -11.27690 -11.27451 -11.26674
 Alpha  occ. eigenvalues --   -1.38759  -1.19615  -0.92549  -0.79854  -0.78392
 Alpha  occ. eigenvalues --   -0.71865  -0.64482  -0.63229  -0.54300  -0.53360
 Alpha  occ. eigenvalues --   -0.44046  -0.43162  -0.38844
 Alpha virt. eigenvalues --    0.03440   0.04359   0.05817   0.06309   0.07878
 Alpha virt. eigenvalues --    0.10413   0.11613   0.11789   0.12757   0.14898
 Alpha virt. eigenvalues --    0.15174   0.15872   0.17599   0.17670   0.17956

 Mulliken charges:
               1
     1  O   -0.779852
     2  C   -0.077456
     3  C   -0.074837
     4  C   -0.074228
     5  C    0.267169
     6  H    0.130810
     7  H    0.249745
     8  H    0.249736
     9  H    0.108913
 Sum of Mulliken charges =  -0.00000

 Dipole moment (field-independent basis, Debye):
    X=             -4.1647    Y=             -0.0002    Z=             -0.8460  Tot=              4.2498
 Quadrupole moment (field-independent basis, Debye-Ang):
   XX=            -36.0391   YY=            -25.8408   ZZ=            -29.0574
   XY=             -0.0005   XZ=             -0.7607   YZ=              0.0005

 Q=-229.5150618\CCSD=-229.5129376\CCSD(T)=-229.5559031\RMSD=9.776e-09\P
 Normal termination of Gaussian 09 at Wed Mar  6 09:52:51 2019.
