 Gaussian 09, Revision E.01,
 Gaussian 09:  EM64L-G09RevE.01 30-Nov-2015

 --------------------------------------
 #p ccsd(t,maxcyc=200)/6-311++G(3df,2p)
 --------------------------------------

 -------------
 ccsd(t) iener
 -------------
 Symbolic Z-matrix:
 Charge =  0 Multiplicity = 1

                         Standard orientation:
 ---------------------------------------------------------------------
 Center     Atomic      Atomic             Coordinates (Angstroms)
 Number     Number       Type             X           Y           Z
 ---------------------------------------------------------------------
      1          6           0        0.970130   -0.393858   -0.000071
      2          6           0       -2.564926   -0.167078   -0.000085
      3          8           0        2.289647   -0.104395    0.000066
      4          6           0       -1.396109    0.118840    0.000094
      5          6           0       -0.032339    0.494582   -0.000075
      6          1           0        0.799048   -1.461268   -0.000107
      7          1           0        2.425168    0.850034    0.000068
      8          1           0       -3.594048   -0.426220    0.000392
      9          1           0        0.192118    1.557696   -0.000057
 ---------------------------------------------------------------------

 SCF Done:  E(RHF) =  -228.652940379     A.U. after   15 cycles
 E2 =    -0.8566940797D+00 EUMP2 =    -0.22950963445825D+03
 CCSD(T)
 CCSD(T)= -0.22957167059D+03

 The electronic state is 1-A.
 Alpha  occ. eigenvalues --  -20.61172 -11.32201 -11.24786 -11.23813 -11.22238
 Alpha  occ. eigenvalues --   -1.42758  -1.08894  -0.99859  -0.86786  -0.75571
 Alpha  occ. eigenvalues --   -0.70455  -0.68911  -0.60122  -0.59637  -0.56728
 Alpha  occ. eigenvalues --   -0.45641  -0.39443  -0.32632
 Alpha virt. eigenvalues --    0.03629   0.04680   0.05964   0.07147   0.09872
 Alpha virt. eigenvalues --    0.11591   0.11943   0.13366   0.13530   0.13752
 Alpha virt. eigenvalues --    0.14494   0.17617   0.17947   0.18760   0.19132

 Mulliken charges:
               1
     1  C    0.172726
     2  C   -0.040097
     3  O   -0.709375
     4  C   -0.339878
     5  C    0.090156
     6  H    0.169298
     7  H    0.258714
     8  H    0.292831
     9  H    0.105625
 Sum of Mulliken charges =  -0.00000

 Dipole moment (field-independent basis, Debye):
    X=              0.5972    Y=              0.9214    Z=              0.0005  Tot=              1.0980
 Quadrupole moment (field-independent basis, Debye-Ang):
   XX=            -27.0792   YY=            -26.3793   ZZ=            -32.7448
   XY=              4.8293   XZ=             -0.0021   YZ=              0.0000

 9.5298768\CCSD=-229.5284527\CCSD(T)=-229.5716706\RMSD=9.317e-09\PG=C01
 Normal termination of Gaussian 09 at Wed Mar  6 08:39:25 2019.
