 Gaussian 09, Revision E.01,
 Gaussian 09:  EM64L-G09RevE.01 30-Nov-2015

 --------------------------------------
 #p ccsd(t,maxcyc=200)/6-311++G(3df,2p)
 --------------------------------------

 -------------
 ccsd(t) iener
 -------------
 Symbolic Z-matrix:
 Charge =  0 Multiplicity = 1

                         Standard orientation:
 ---------------------------------------------------------------------
 Center     Atomic      Atomic             Coordinates (Angstroms)
 Number     Number       Type             X           Y           Z
 ---------------------------------------------------------------------
      1          6           0       -2.114870   -0.625694    0.000000
      2          6           0        1.354341    0.274152    0.000000
      3          8           0        1.536778   -0.908847    0.000000
      4          6           0        0.000000    0.968871    0.000000
      5          6           0       -1.159207    0.096231    0.000000
      6          1           0       -0.011579    1.636941    0.869851
      7          1           0        2.205283    0.986667    0.000000
      8          1           0       -0.011579    1.636941   -0.869851
      9          1           0       -2.957928   -1.271136    0.000000
 ---------------------------------------------------------------------

 SCF Done:  E(RHF) =  -228.662920022     A.U. after   16 cycles
 E2 =    -0.8530884184D+00 EUMP2 =    -0.22951600844001D+03
 CCSD(T)
 CCSD(T)= -0.22957872597D+03

 The electronic state is 1-A'.
 Alpha  occ. eigenvalues --  -20.57073 -11.34734 -11.28061 -11.24236 -11.23105
 Alpha  occ. eigenvalues --   -1.41202  -1.09147  -0.99871  -0.83102  -0.72688
 Alpha  occ. eigenvalues --   -0.69315  -0.65840  -0.63788  -0.61514  -0.52497
 Alpha  occ. eigenvalues --   -0.44521  -0.39796  -0.39603
 Alpha virt. eigenvalues --    0.03443   0.04514   0.06043   0.06203   0.09812
 Alpha virt. eigenvalues --    0.10797   0.11758   0.12185   0.13483   0.13916
 Alpha virt. eigenvalues --    0.14205   0.15214   0.16990   0.17544   0.17613

 Mulliken charges:
               1
     1  C    0.485121
     2  C    0.260867
     3  O   -0.740631
     4  C   -0.271087
     5  C   -0.488111
     6  H    0.156174
     7  H    0.122995
     8  H    0.156174
     9  H    0.318499
 Sum of Mulliken charges =  -0.00000

 Dipole moment (field-independent basis, Debye):
    X=             -0.4560    Y=              3.0652    Z=              0.0000  Tot=              3.0989
 Quadrupole moment (field-independent basis, Debye-Ang):
   XX=            -28.0131   YY=            -28.7105   ZZ=            -29.6225
   XY=              7.3300   XZ=             -0.0000   YZ=             -0.0000

 =-229.5283879\MP4SDQ=-229.5390489\CCSD=-229.5365501\CCSD(T)=-229.57872
 Normal termination of Gaussian 09 at Wed Mar  6 09:33:01 2019.
