 Gaussian 09, Revision E.01,
 Gaussian 09:  EM64L-G09RevE.01 30-Nov-2015

 --------------------------------------
 #p ccsd(t,maxcyc=200)/6-311++G(3df,2p)
 --------------------------------------

 -------------
 ccsd(t) iener
 -------------
 Symbolic Z-matrix:
 Charge =  0 Multiplicity = 1

                         Standard orientation:
 ---------------------------------------------------------------------
 Center     Atomic      Atomic             Coordinates (Angstroms)
 Number     Number       Type             X           Y           Z
 ---------------------------------------------------------------------
      1          6           0       -0.244622   -1.018520    0.000000
      2          6           0       -0.244622    1.488955    0.639583
      3          8           0        0.315058   -2.086126    0.000000
      4          6           0       -0.244622    1.488955   -0.639583
      5          6           0        0.442785    0.294356   -0.000000
      6          1           0       -1.355727   -0.953265    0.000000
      7          1           0       -0.473202    1.946634   -1.583766
      8          1           0       -0.473202    1.946634    1.583766
      9          1           0        1.528152    0.226531   -0.000000
 ---------------------------------------------------------------------

 SCF Done:  E(RHF) =  -228.635112670     A.U. after   13 cycles
 E2 =    -0.8582612145D+00 EUMP2 =    -0.22949337388477D+03
 CCSD(T)
 CCSD(T)= -0.22955590450D+03

 The electronic state is 1-A'.
 Alpha  occ. eigenvalues --  -20.54883 -11.32291 -11.27691 -11.27452 -11.26675
 Alpha  occ. eigenvalues --   -1.38757  -1.19610  -0.92552  -0.79853  -0.78393
 Alpha  occ. eigenvalues --   -0.71865  -0.64481  -0.63229  -0.54299  -0.53359
 Alpha  occ. eigenvalues --   -0.44046  -0.43159  -0.38846
 Alpha virt. eigenvalues --    0.03440   0.04359   0.05817   0.06309   0.07878
 Alpha virt. eigenvalues --    0.10413   0.11613   0.11788   0.12757   0.14897
 Alpha virt. eigenvalues --    0.15174   0.15871   0.17599   0.17670   0.17956

 Mulliken charges:
               1
     1  C    0.267020
     2  C   -0.074531
     3  O   -0.779836
     4  C   -0.074531
     5  C   -0.077386
     6  H    0.108955
     7  H    0.249742
     8  H    0.249742
     9  H    0.130826
 Sum of Mulliken charges =  -0.00000

 Dipole moment (field-independent basis, Debye):
    X=             -1.2895    Y=              4.0498    Z=              0.0000  Tot=              4.2501
 Quadrupole moment (field-independent basis, Debye-Ang):
   XX=            -29.3004   YY=            -35.7956   ZZ=            -25.8413
   XY=              1.4902   XZ=             -0.0000   YZ=              0.0000

 368\CCSD(T)=-229.5559045\RMSD=9.783e-09\PG=CS [SG(C2H2O1),X(C2H2)]\\@
 Normal termination of Gaussian 09 at Wed Mar  6 08:15:17 2019.
