 Gaussian 09, Revision E.01,
 Gaussian 09:  EM64L-G09RevE.01 30-Nov-2015

 --------------------------------------
 #p ccsd(t,maxcyc=200)/6-311++G(3df,2p)
 --------------------------------------

 -------------
 ccsd(t) iener
 -------------
 Symbolic Z-matrix:
 Charge =  1 Multiplicity = 2

                         Standard orientation:
 ---------------------------------------------------------------------
 Center     Atomic      Atomic             Coordinates (Angstroms)
 Number     Number       Type             X           Y           Z
 ---------------------------------------------------------------------
      1          6           0        1.521710   -0.866312   -0.000045
      2          6           0        0.422864    0.130045   -0.000031
      3          8           0        0.630629    1.348098   -0.000023
      4          6           0       -0.964501   -0.141714    0.000253
      5          6           0       -2.164619   -0.281272   -0.000121
      6          1           0        2.496416   -0.385767   -0.001314
      7          1           0        1.393395   -1.498480   -0.884679
      8          1           0        1.394925   -1.496829    0.886014
      9          1           0       -3.222495   -0.448196   -0.000174
 ---------------------------------------------------------------------

 SCF Done:  E(UHF) =  -228.350410806     A.U. after   36 cycles
 E2 =    -0.7838040004D+00 EUMP2 =    -0.22913421480686D+03
 CCSD(T)
 CCSD(T)= -0.22921442374D+03

 The electronic state is 2-A.
 Alpha  occ. eigenvalues --  -20.97326 -11.64902 -11.50077 -11.47537 -11.47304
 Alpha  occ. eigenvalues --   -1.80442  -1.32404  -1.25771  -1.14238  -1.04218
 Alpha  occ. eigenvalues --   -0.97684  -0.93979  -0.93074  -0.81896  -0.79885
 Alpha  occ. eigenvalues --   -0.79774  -0.64948  -0.64399
 Alpha virt. eigenvalues --   -0.17591  -0.09174  -0.06570  -0.05682  -0.05506
 Alpha virt. eigenvalues --   -0.04975  -0.04170  -0.02188  -0.01051  -0.00500
 Alpha virt. eigenvalues --    0.00081   0.00598   0.01620   0.04029   0.04496

  Beta  occ. eigenvalues --  -20.92655 -11.65360 -11.50680 -11.47072 -11.46708
  Beta  occ. eigenvalues --   -1.67493  -1.29764  -1.24932  -1.10733  -0.97826
  Beta  occ. eigenvalues --   -0.93040  -0.88551  -0.86945  -0.79345  -0.78098
  Beta  occ. eigenvalues --   -0.64652  -0.64123
  Beta virt. eigenvalues --   -0.19502  -0.17605  -0.09040  -0.06476  -0.05544
  Beta virt. eigenvalues --   -0.05018  -0.04479  -0.04080  -0.01824  -0.00962
  Beta virt. eigenvalues --   -0.00341  -0.00011   0.01099   0.01318   0.04253

 Mulliken charges and spin densities:
               1          2
     1  C   -0.288125   0.074871
     2  C    0.510220  -0.181949
     3  O   -0.332349   1.108138
     4  C    0.093374   0.274397
     5  C    0.048342  -0.282319
     6  H    0.182313  -0.005830
     7  H    0.215429  -0.001809
     8  H    0.215488  -0.001827
     9  H    0.355309   0.016328
 Sum of Mulliken charges =   1.00000   1.00000

 Dipole moment (field-independent basis, Debye):
    X=             -0.2340    Y=             -1.6061    Z=             -0.0003  Tot=              1.6231
 Quadrupole moment (field-independent basis, Debye-Ang):
   XX=             -6.4048   YY=            -24.6699   ZZ=            -26.5685
   XY=             -0.4477   XZ=              0.0016   YZ=             -0.0002

 30355\CCSD(T)=-229.2144237\S2=0.821228\S2-1=0.799747\S2A=0.752704\RMSD
 Normal termination of Gaussian 09 at Wed Mar  6 17:37:48 2019.
