 Gaussian 09, Revision E.01,
 Gaussian 09:  EM64L-G09RevE.01 30-Nov-2015

 --------------------------------------
 #p ccsd(t,maxcyc=200)/6-311++G(3df,2p)
 --------------------------------------

 -------------
 ccsd(t) iener
 -------------
 Symbolic Z-matrix:
 Charge =  0 Multiplicity = 1

                         Standard orientation:
 ---------------------------------------------------------------------
 Center     Atomic      Atomic             Coordinates (Angstroms)
 Number     Number       Type             X           Y           Z
 ---------------------------------------------------------------------
      1          8           0       -0.000000   -0.000000    2.289751
      2          6           0        0.000000    0.753215   -1.435118
      3          6           0       -0.000000   -0.753215   -1.435118
      4          6           0        0.000000    0.000000   -0.159831
      5          6           0       -0.000000   -0.000000    1.121501
      6          1           0       -0.913353    1.263742   -1.716651
      7          1           0        0.913353    1.263742   -1.716651
      8          1           0        0.913353   -1.263742   -1.716651
      9          1           0       -0.913353   -1.263742   -1.716651
 ---------------------------------------------------------------------

 SCF Done:  E(RHF) =  -228.654450518     A.U. after   15 cycles
 E2 =    -0.8634719897D+00 EUMP2 =    -0.22951792250756D+03
 CCSD(T)
 CCSD(T)= -0.22957729376D+03

 The electronic state is 1-A1.
 Alpha  occ. eigenvalues --  -20.60601 -11.36607 -11.26778 -11.26708 -11.24075
 Alpha  occ. eigenvalues --   -1.44941  -1.17161  -0.97740  -0.85229  -0.72842
 Alpha  occ. eigenvalues --   -0.69828  -0.67879  -0.61887  -0.60170  -0.54372
 Alpha  occ. eigenvalues --   -0.48241  -0.45164  -0.34574
 Alpha virt. eigenvalues --    0.03959   0.05167   0.05660   0.07923   0.08374
 Alpha virt. eigenvalues --    0.10720   0.10914   0.11995   0.12520   0.13304
 Alpha virt. eigenvalues --    0.15684   0.16346   0.17169   0.18006   0.19119

 Mulliken charges:
               1
     1  O   -0.801783
     2  C   -0.311389
     3  C   -0.311389
     4  C    0.313345
     5  C    0.547132
     6  H    0.141021
     7  H    0.141021
     8  H    0.141021
     9  H    0.141021
 Sum of Mulliken charges =  -0.00000

 Dipole moment (field-independent basis, Debye):
    X=             -0.0000    Y=             -0.0000    Z=             -3.1683  Tot=              3.1683
 Quadrupole moment (field-independent basis, Debye-Ang):
   XX=            -28.7149   YY=            -27.5590   ZZ=            -34.1422
   XY=              0.0000   XZ=              0.0000   YZ=             -0.0000

 DQ=-229.5255116\MP4SDQ=-229.5369056\CCSD=-229.5332885\CCSD(T)=-229.577
 Normal termination of Gaussian 09 at Wed Mar  6 09:14:08 2019.
