 Gaussian 09, Revision E.01,
 Gaussian 09:  EM64L-G09RevE.01 30-Nov-2015

 --------------------------------------
 #p ccsd(t,maxcyc=200)/6-311++G(3df,2p)
 --------------------------------------

 -------------
 ccsd(t) iener
 -------------
 Symbolic Z-matrix:
 Charge =  1 Multiplicity = 2

                         Standard orientation:
 ---------------------------------------------------------------------
 Center     Atomic      Atomic             Coordinates (Angstroms)
 Number     Number       Type             X           Y           Z
 ---------------------------------------------------------------------
      1          6           0        1.158115    0.113793   -0.000137
      2          6           0       -1.812560   -0.712900   -0.000101
      3          8           0        1.744825   -0.841396    0.000038
      4          6           0       -1.166613    0.403891    0.000017
      5          6           0        0.112191    1.133411    0.000041
      6          1           0        0.259278    1.760559   -0.888378
      7          1           0       -1.324311   -1.689610    0.000296
      8          1           0       -2.899847   -0.729118    0.000161
      9          1           0        0.259486    1.760159    0.888700
 ---------------------------------------------------------------------

 SCF Done:  E(UHF) =  -228.367383406     A.U. after   27 cycles
 E2 =    -0.7987081423D+00 EUMP2 =    -0.22916609154796D+03
 CCSD(T)
 CCSD(T)= -0.22924046768D+03

 The electronic state is 2-A.
 Alpha  occ. eigenvalues --  -20.95305 -11.69549 -11.54896 -11.47673 -11.42147
 Alpha  occ. eigenvalues --   -1.80249  -1.37576  -1.22673  -1.06565  -1.00050
 Alpha  occ. eigenvalues --   -0.95718  -0.93937  -0.90576  -0.85048  -0.83142
 Alpha  occ. eigenvalues --   -0.79688  -0.60788  -0.58679
 Alpha virt. eigenvalues --   -0.14301  -0.13102  -0.10433  -0.07406  -0.06413
 Alpha virt. eigenvalues --   -0.05229  -0.03875  -0.03195  -0.03046  -0.01480
 Alpha virt. eigenvalues --   -0.00929   0.01278   0.01570   0.02238   0.02805

  Beta  occ. eigenvalues --  -20.95185 -11.69194 -11.55140 -11.44268 -11.43340
  Beta  occ. eigenvalues --   -1.79923  -1.35064  -1.21249  -1.05781  -0.96408
  Beta  occ. eigenvalues --   -0.94701  -0.93618  -0.88435  -0.84081  -0.81789
  Beta  occ. eigenvalues --   -0.76612  -0.59084
  Beta virt. eigenvalues --   -0.15819  -0.12556  -0.10402  -0.07848  -0.07108
  Beta virt. eigenvalues --   -0.06370  -0.04296  -0.03061  -0.02988  -0.02531
  Beta virt. eigenvalues --   -0.00933   0.00004   0.00507   0.01513   0.02470

 Mulliken charges and spin densities:
               1          2
     1  C    0.824138   0.073047
     2  C   -0.272574  -0.813460
     3  O   -0.497218   0.019460
     4  C    0.143083   1.652662
     5  C    0.012647  -0.161383
     6  H    0.226839   0.025665
     7  H    0.147460   0.105838
     8  H    0.188743   0.072523
     9  H    0.226882   0.025648
 Sum of Mulliken charges =   1.00000   1.00000

 Dipole moment (field-independent basis, Debye):
    X=              1.4529    Y=              2.2443    Z=              0.0002  Tot=              2.6735
 Quadrupole moment (field-independent basis, Debye-Ang):
   XX=            -18.0863   YY=            -19.8356   ZZ=            -26.5038
   XY=              4.0611   XZ=             -0.0012   YZ=             -0.0005

 37\CCSD=-229.1996923\CCSD(T)=-229.2404677\S2=0.914313\S2-1=0.872289\S2
 Normal termination of Gaussian 09 at Wed Mar  6 12:52:28 2019.
