 Gaussian 09, Revision E.01,
 Gaussian 09:  EM64L-G09RevE.01 30-Nov-2015

 --------------------------------------
 #p ccsd(t,maxcyc=200)/6-311++G(3df,2p)
 --------------------------------------

 -------------
 ccsd(t) iener
 -------------
 Symbolic Z-matrix:
 Charge =  0 Multiplicity = 1

                         Standard orientation:
 ---------------------------------------------------------------------
 Center     Atomic      Atomic             Coordinates (Angstroms)
 Number     Number       Type             X           Y           Z
 ---------------------------------------------------------------------
      1          6           0       -2.086376   -0.637194    0.000000
      2          6           0        1.385665    0.393995    0.000000
      3          8           0        1.695468   -0.771212    0.000000
      4          6           0        0.000000    0.920500    0.000000
      5          6           0       -1.057604    0.147260    0.000000
      6          1           0       -2.530493   -0.980482    0.926683
      7          1           0        2.162398    1.183862    0.000000
      8          1           0       -0.115264    1.999429    0.000000
      9          1           0       -2.530493   -0.980482   -0.926683
 ---------------------------------------------------------------------

 SCF Done:  E(RHF) =  -228.667724656     A.U. after   15 cycles
 E2 =    -0.8494147392D+00 EUMP2 =    -0.22951713939513D+03
 CCSD(T)
 CCSD(T)= -0.22958432075D+03

 The electronic state is 1-A'.
 Alpha  occ. eigenvalues --  -20.55467 -11.33787 -11.29156 -11.25836 -11.25444
 Alpha  occ. eigenvalues --   -1.39359  -1.10814  -1.00718  -0.85168  -0.71717
 Alpha  occ. eigenvalues --   -0.68890  -0.65786  -0.63137  -0.61016  -0.54336
 Alpha  occ. eigenvalues --   -0.44185  -0.40071  -0.39287
 Alpha virt. eigenvalues --    0.03704   0.04865   0.05816   0.06472   0.07162
 Alpha virt. eigenvalues --    0.09724   0.10820   0.12675   0.12849   0.13996
 Alpha virt. eigenvalues --    0.14753   0.15706   0.16294   0.18248   0.19300

 Mulliken charges:
               1
     1  C   -0.344696
     2  C    0.401256
     3  O   -0.785634
     4  C   -0.178630
     5  C    0.341513
     6  H    0.162616
     7  H    0.118496
     8  H    0.122465
     9  H    0.162616
 Sum of Mulliken charges =  -0.00000

 Dipole moment (field-independent basis, Debye):
    X=             -2.2053    Y=              2.2339    Z=              0.0000  Tot=              3.1390
 Quadrupole moment (field-independent basis, Debye-Ang):
   XX=            -28.3735   YY=            -29.1489   ZZ=            -29.1761
   XY=              7.3467   XZ=              0.0000   YZ=             -0.0000

 4DQ=-229.5323765\MP4SDQ=-229.5432141\CCSD=-229.5409018\CCSD(T)=-229.58
 Normal termination of Gaussian 09 at Wed Mar  6 08:17:19 2019.
