 Gaussian 09, Revision E.01,
 Gaussian 09:  EM64L-G09RevE.01 30-Nov-2015

 --------------------------------------
 #p ccsd(t,maxcyc=200)/6-311++G(3df,2p)
 --------------------------------------

 -------------
 ccsd(t) iener
 -------------
 Symbolic Z-matrix:
 Charge =  1 Multiplicity = 2

                         Standard orientation:
 ---------------------------------------------------------------------
 Center     Atomic      Atomic             Coordinates (Angstroms)
 Number     Number       Type             X           Y           Z
 ---------------------------------------------------------------------
      1          8           0       -1.769538   -0.783935   -0.000001
      2          6           0        0.599535    0.238647    0.000000
      3          6           0       -0.881906   -0.006222    0.000002
      4          6           0       -0.236167    1.249960   -0.000000
      5          6           0        1.864483   -0.486501   -0.000000
      6          1           0       -0.462329    2.310216   -0.000002
      7          1           0        1.928461   -1.123620    0.884555
      8          1           0        2.686055    0.233216   -0.000011
      9          1           0        1.928451   -1.123635   -0.884545
 ---------------------------------------------------------------------

 SCF Done:  E(UHF) =  -228.371082776     A.U. after   23 cycles
 E2 =    -0.7963300257D+00 EUMP2 =    -0.22916741280151D+03
 CCSD(T)
 CCSD(T)= -0.22924582398D+03

 The electronic state is 2-A.
 Alpha  occ. eigenvalues --  -20.92543 -11.60898 -11.57438 -11.54836 -11.45296
 Alpha  occ. eigenvalues --   -1.76756  -1.48806  -1.23771  -1.05150  -1.03126
 Alpha  occ. eigenvalues --   -0.97028  -0.92136  -0.90862  -0.85309  -0.80461
 Alpha  occ. eigenvalues --   -0.77794  -0.68893  -0.67310
 Alpha virt. eigenvalues --   -0.10332  -0.09851  -0.07189  -0.06505  -0.06116
 Alpha virt. eigenvalues --   -0.05280  -0.03765  -0.03086  -0.01646  -0.01442
 Alpha virt. eigenvalues --    0.00821   0.01549   0.01728   0.02337   0.04029

  Beta  occ. eigenvalues --  -20.88795 -11.61590 -11.56715 -11.54539 -11.45261
  Beta  occ. eigenvalues --   -1.67245  -1.45661  -1.22920  -1.01512  -0.98951
  Beta  occ. eigenvalues --   -0.91114  -0.88090  -0.83914  -0.79707  -0.78879
  Beta  occ. eigenvalues --   -0.73529  -0.67457
  Beta virt. eigenvalues --   -0.20062  -0.09796  -0.09739  -0.06985  -0.06429
  Beta virt. eigenvalues --   -0.06037  -0.05274  -0.03686  -0.02873  -0.01591
  Beta virt. eigenvalues --   -0.01394   0.00575   0.01729   0.01777   0.02427

 Mulliken charges and spin densities:
               1          2
     1  O   -0.509990   0.855653
     2  C   -0.122581   0.303110
     3  C    0.429672  -0.328437
     4  C    0.639509   0.116932
     5  C   -0.305090  -0.009181
     6  H    0.319006   0.043444
     7  H    0.190120  -0.000559
     8  H    0.169236   0.019597
     9  H    0.190119  -0.000559
 Sum of Mulliken charges =   1.00000   1.00000

 Dipole moment (field-independent basis, Debye):
    X=              1.6398    Y=              2.0132    Z=              0.0000  Tot=              2.5965
 Quadrupole moment (field-independent basis, Debye-Ang):
   XX=            -17.9757   YY=            -18.9255   ZZ=            -26.1052
   XY=             -3.4275   XZ=             -0.0000   YZ=             -0.0000

 2003193\CCSD=-229.2042565\CCSD(T)=-229.245824\S2=0.790797\S2-1=0.76610
 Normal termination of Gaussian 09 at Wed Mar  6 12:55:11 2019.
