 Gaussian 09, Revision E.01,
 Gaussian 09:  EM64L-G09RevE.01 30-Nov-2015

 --------------------------------------
 #p ccsd(t,maxcyc=200)/6-311++G(3df,2p)
 --------------------------------------

 -------------
 ccsd(t) iener
 -------------
 Symbolic Z-matrix:
 Charge =  0 Multiplicity = 1

                         Standard orientation:
 ---------------------------------------------------------------------
 Center     Atomic      Atomic             Coordinates (Angstroms)
 Number     Number       Type             X           Y           Z
 ---------------------------------------------------------------------
      1          6           0        0.000000    1.109027    0.000000
      2          6           0       -0.576809   -1.038664    0.000000
      3          8           0       -1.099554    0.424310    0.000000
      4          6           0        0.869589   -1.003076    0.000000
      5          6           0        1.173598    0.361730    0.000000
      6          1           0       -0.120309    2.186551    0.000000
      7          1           0       -1.019574   -1.480963    0.892314
      8          1           0       -1.019574   -1.480963   -0.892314
      9          1           0        2.157623    0.806783    0.000000
 ---------------------------------------------------------------------

 SCF Done:  E(RHF) =  -228.617210656     A.U. after   16 cycles
 E2 =    -0.8495319087D+00 EUMP2 =    -0.22946674256443D+03
 CCSD(T)
 CCSD(T)= -0.22953568363D+03

 The electronic state is 1-A'.
 Alpha  occ. eigenvalues --  -20.62428 -11.35477 -11.30180 -11.22975 -11.22276
 Alpha  occ. eigenvalues --   -1.45612  -1.09122  -1.01477  -0.81931  -0.77729
 Alpha  occ. eigenvalues --   -0.72000  -0.67632  -0.62371  -0.54609  -0.54268
 Alpha  occ. eigenvalues --   -0.53478  -0.38023  -0.35263
 Alpha virt. eigenvalues --    0.03579   0.05239   0.05662   0.06043   0.07114
 Alpha virt. eigenvalues --    0.10495   0.11204   0.12902   0.12936   0.15028
 Alpha virt. eigenvalues --    0.15581   0.16889   0.17057   0.18009   0.18089

 Mulliken charges:
               1
     1  C    0.397917
     2  C    0.280756
     3  O   -0.878960
     4  C   -0.577883
     5  C    0.152777
     6  H    0.197657
     7  H    0.143016
     8  H    0.143016
     9  H    0.141704
 Sum of Mulliken charges =  -0.00000

 Dipole moment (field-independent basis, Debye):
    X=             -1.6694    Y=              2.3235    Z=             -0.0000  Tot=              2.8610
 Quadrupole moment (field-independent basis, Debye-Ang):
   XX=            -33.4190   YY=            -28.1013   ZZ=            -29.7285
   XY=              6.4947   XZ=             -0.0000   YZ=              0.0000

 4DQ=-229.4795291\MP4SDQ=-229.4920919\CCSD=-229.4904728\CCSD(T)=-229.53
 Normal termination of Gaussian 09 at Wed Mar  6 09:37:53 2019.
