 Gaussian 09, Revision E.01,
 Gaussian 09:  EM64L-G09RevE.01 30-Nov-2015

 --------------------------------------
 #p ccsd(t,maxcyc=200)/6-311++G(3df,2p)
 --------------------------------------

 -------------
 ccsd(t) iener
 -------------
 Symbolic Z-matrix:
 Charge =  0 Multiplicity = 1

                         Standard orientation:
 ---------------------------------------------------------------------
 Center     Atomic      Atomic             Coordinates (Angstroms)
 Number     Number       Type             X           Y           Z
 ---------------------------------------------------------------------
      1          6           0        0.666454   -0.020443   -0.000003
      2          1           0       -1.150541   -0.749357    0.000034
      3          1           0        1.025461   -0.544583   -0.890789
      4          1           0        1.083870    0.984344   -0.000023
      5          1           0        1.025479   -0.544503    0.890827
      6          8           0       -0.747874    0.122095   -0.000004
 ---------------------------------------------------------------------

 SCF Done:  E(RHF) =  -115.088673477     A.U. after   10 cycles
 E2 =    -0.4252299221D+00 EUMP2 =    -0.11551390339878D+03
 CCSD(T)
 CCSD(T)= -0.11554785155D+03

 The electronic state is 1-A.
 Alpha  occ. eigenvalues --  -20.55832 -11.27057  -1.35694  -0.92627  -0.69149
 Alpha  occ. eigenvalues --   -0.62020  -0.59413  -0.50381  -0.45192
 Alpha virt. eigenvalues --    0.03921   0.06341   0.07199   0.07907   0.12377
 Alpha virt. eigenvalues --    0.14281   0.15559   0.18218   0.26808   0.28166
 Alpha virt. eigenvalues --    0.28852   0.28881   0.30236   0.32430   0.34089

 Mulliken charges:
               1
     1  C    0.155663
     2  H    0.209317
     3  H    0.099543
     4  H    0.105107
     5  H    0.099541
     6  O   -0.669172
 Sum of Mulliken charges =  -0.00000

 Dipole moment (field-independent basis, Debye):
    X=              0.9319    Y=             -1.5580    Z=              0.0001  Tot=              1.8154
 Quadrupole moment (field-independent basis, Debye-Ang):
   XX=            -12.9410   YY=            -12.1130   ZZ=            -13.7396
   XY=              2.3272   XZ=             -0.0001   YZ=             -0.0000

 \CCSD(T)=-115.5478515\RMSD=9.976e-09\PG=C01 [X(C1H4O1)]\\@
 Normal termination of Gaussian 09 at Thu Mar  7 08:40:50 2019.
