 Gaussian 09, Revision E.01,
 Gaussian 09:  EM64L-G09RevE.01 30-Nov-2015

 --------------------------------------
 #p ccsd(t,maxcyc=200)/6-311++G(3df,2p)
 --------------------------------------

 -------------
 ccsd(t) iener
 -------------
 Symbolic Z-matrix:
 Charge =  1 Multiplicity = 2

                         Standard orientation:
 ---------------------------------------------------------------------
 Center     Atomic      Atomic             Coordinates (Angstroms)
 Number     Number       Type             X           Y           Z
 ---------------------------------------------------------------------
      1          6           0        0.633341    0.069106   -0.000008
      2          1           0        1.057265   -0.574648    0.823404
      3          1           0        1.057383   -0.574741   -0.823281
      4          1           0       -1.243969    0.691474    0.000022
      5          1           0        0.971889    1.099065   -0.000025
      6          8           0       -0.705327   -0.131973   -0.000009
 ---------------------------------------------------------------------

 SCF Done:  E(UHF) =  -114.727352652     A.U. after   18 cycles
 E2 =    -0.3743552533D+00 EUMP2 =    -0.11510170790509D+03
 CCSD(T)
 CCSD(T)= -0.11514818257D+03

 The electronic state is 2-A.
 Alpha  occ. eigenvalues --  -21.04232 -11.56267  -1.83591  -1.26856  -1.07872
 Alpha  occ. eigenvalues --   -1.07399  -0.99723  -0.84036  -0.79012
 Alpha virt. eigenvalues --   -0.13815  -0.09489  -0.07189  -0.06657  -0.04108
 Alpha virt. eigenvalues --   -0.03291  -0.00995   0.00772   0.02481   0.06116
 Alpha virt. eigenvalues --    0.06215   0.08528   0.08577   0.12331   0.14532

  Beta  occ. eigenvalues --  -21.00161 -11.56465  -1.71074  -1.23943  -1.04816
  Beta  occ. eigenvalues --   -0.95957  -0.82313  -0.82018
  Beta virt. eigenvalues --   -0.27024  -0.13433  -0.09313  -0.07170  -0.06533
  Beta virt. eigenvalues --   -0.04017  -0.02473  -0.00883   0.01174   0.02605
  Beta virt. eigenvalues --    0.06642   0.07188   0.08685   0.11562   0.12702

 Mulliken charges and spin densities:
               1          2
     1  C    0.170894  -0.098252
     2  H    0.219842   0.113440
     3  H    0.219841   0.113406
     4  H    0.337450  -0.065530
     5  H    0.199642  -0.006614
     6  O   -0.147669   0.943549
 Sum of Mulliken charges =   1.00000   1.00000

 Dipole moment (field-independent basis, Debye):
    X=             -0.2225    Y=              1.3736    Z=              0.0001  Tot=              1.3915
 Quadrupole moment (field-independent basis, Debye-Ang):
   XX=             -5.4934   YY=             -8.9479   ZZ=            -10.4481
   XY=             -2.7801   XZ=             -0.0000   YZ=             -0.0000

 Normal termination of Gaussian 09 at Thu Mar  7 10:41:47 2019.
