 Gaussian 09, Revision E.01,
 Gaussian 09:  EM64L-G09RevE.01 30-Nov-2015

 --------------------------------------
 #p ccsd(t,maxcyc=200)/6-311++G(3df,2p)
 --------------------------------------

 -------------
 ccsd(t) iener
 -------------
 Symbolic Z-matrix:
 Charge =  0 Multiplicity = 4

                         Standard orientation:
 ---------------------------------------------------------------------
 Center     Atomic      Atomic             Coordinates (Angstroms)
 Number     Number       Type             X           Y           Z
 ---------------------------------------------------------------------
      1          6           0       -0.137780   -0.522278    0.000002
      2          6           0       -1.357445    0.245414   -0.000001
      3          1           0        0.906169    1.055654    0.000008
      4          8           0        1.008148    0.075691   -0.000002
 ---------------------------------------------------------------------

 SCF Done:  E(UHF) =  -150.997428778     A.U. after   24 cycles
 E2 =    -0.4543831525D+00 EUMP2 =    -0.15145181193012D+03
 CCSD(T)
 CCSD(T)= -0.15150524413D+03

 The electronic state is 4-A.
 Alpha  occ. eigenvalues --  -20.66860 -11.39119 -11.29131  -1.51057  -1.06089
 Alpha  occ. eigenvalues --   -0.88392  -0.71027  -0.68453  -0.58982  -0.47520
 Alpha  occ. eigenvalues --   -0.41061  -0.37082
 Alpha virt. eigenvalues --    0.04577   0.08492   0.08526   0.11205   0.11404
 Alpha virt. eigenvalues --    0.13076   0.14922   0.15383   0.17870   0.20174
 Alpha virt. eigenvalues --    0.22374   0.26703   0.28764   0.32933   0.36309

  Beta  occ. eigenvalues --  -20.65614 -11.35792 -11.25953  -1.46919  -0.91101
  Beta  occ. eigenvalues --   -0.81272  -0.64263  -0.60057  -0.41814
  Beta virt. eigenvalues --    0.01724   0.02593   0.04371   0.09304   0.11554
  Beta virt. eigenvalues --    0.12932   0.13211   0.14061   0.14376   0.16258
  Beta virt. eigenvalues --    0.20700   0.20823   0.25407   0.26722   0.29172

 Mulliken charges and spin densities:
               1          2
     1  C    0.756345   1.388995
     2  C   -0.525855   1.512406
     3  H    0.290288   0.069093
     4  O   -0.520777   0.029506
 Sum of Mulliken charges =  -0.00000   3.00000

 Dipole moment (field-independent basis, Debye):
    X=              2.1114    Y=              0.1525    Z=              0.0000  Tot=              2.1169
 Quadrupole moment (field-independent basis, Debye-Ang):
   XX=            -22.7946   YY=            -16.4427   ZZ=            -17.4198
   XY=              3.5970   XZ=              0.0000   YZ=              0.0000

 Normal termination of Gaussian 09 at Thu Mar  7 10:49:28 2019.
