 Gaussian 09, Revision E.01,
 Gaussian 09:  EM64L-G09RevE.01 30-Nov-2015

 --------------------------------------
 #p ccsd(t,maxcyc=200)/6-311++G(3df,2p)
 --------------------------------------

 -------------
 ccsd(t) iener
 -------------
 Symbolic Z-matrix:
 Charge =  0 Multiplicity = 4

                         Standard orientation:
 ---------------------------------------------------------------------
 Center     Atomic      Atomic             Coordinates (Angstroms)
 Number     Number       Type             X           Y           Z
 ---------------------------------------------------------------------
      1          6           0       -1.218093    0.303415   -0.000010
      2          6           0        1.133578    0.041126   -0.000023
      3          1           0        1.448758    1.081721    0.000069
      4          8           0       -0.117708   -0.393621    0.000016
 ---------------------------------------------------------------------

 SCF Done:  E(UHF) =  -151.000986151     A.U. after   19 cycles
 E2 =    -0.4390589199D+00 EUMP2 =    -0.15144004507071D+03
 CCSD(T)
 CCSD(T)= -0.15148804938D+03

 The electronic state is 4-A.
 Alpha  occ. eigenvalues --  -20.67903 -11.34836 -11.33855  -1.52253  -1.05596
 Alpha  occ. eigenvalues --   -0.84562  -0.70865  -0.68560  -0.58627  -0.48554
 Alpha  occ. eigenvalues --   -0.39924  -0.37739
 Alpha virt. eigenvalues --    0.04584   0.06262   0.09007   0.10377   0.12604
 Alpha virt. eigenvalues --    0.13005   0.13453   0.16213   0.17122   0.18519
 Alpha virt. eigenvalues --    0.24359   0.29541   0.30511   0.32981   0.38946

  Beta  occ. eigenvalues --  -20.67707 -11.31089 -11.29401  -1.49691  -0.94456
  Beta  occ. eigenvalues --   -0.75439  -0.64501  -0.62824  -0.48553
  Beta virt. eigenvalues --    0.04527   0.05148   0.07515   0.07892   0.09504
  Beta virt. eigenvalues --    0.10425   0.12802   0.15577   0.16895   0.18828
  Beta virt. eigenvalues --    0.19371   0.21529   0.22894   0.26835   0.29923

 Mulliken charges and spin densities:
               1          2
     1  C   -0.003419   1.163972
     2  C    0.137433   2.052485
     3  H    0.173400   0.010642
     4  O   -0.307414  -0.227099
 Sum of Mulliken charges =  -0.00000   3.00000

 Dipole moment (field-independent basis, Debye):
    X=              1.9702    Y=              0.4802    Z=              0.0001  Tot=              2.0279
 Quadrupole moment (field-independent basis, Debye-Ang):
   XX=            -19.5806   YY=            -17.7649   ZZ=            -17.0545
   XY=              2.0345   XZ=              0.0001   YZ=              0.0002

 Normal termination of Gaussian 09 at Thu Mar  7 10:47:01 2019.
