 Gaussian 09, Revision E.01,
 Gaussian 09:  EM64L-G09RevE.01 30-Nov-2015

 --------------------------------------
 #p ccsd(t,maxcyc=200)/6-311++G(3df,2p)
 --------------------------------------

 -------------
 ccsd(t) iener
 -------------
 Symbolic Z-matrix:
 Charge =  0 Multiplicity = 4

                         Standard orientation:
 ---------------------------------------------------------------------
 Center     Atomic      Atomic             Coordinates (Angstroms)
 Number     Number       Type             X           Y           Z
 ---------------------------------------------------------------------
      1          6           0       -0.097410   -0.466257    0.000004
      2          6           0        1.246972   -0.001297   -0.000004
      3          1           0        1.682754    0.996618    0.000013
      4          8           0       -1.072516    0.226088   -0.000001
 ---------------------------------------------------------------------

 SCF Done:  E(UHF) =  -151.090554503     A.U. after   22 cycles
 E2 =    -0.4595878980D+00 EUMP2 =    -0.15155014240080D+03
 CCSD(T)
 CCSD(T)= -0.15159192615D+03

 The electronic state is 4-A.
 Alpha  occ. eigenvalues --  -20.63350 -11.35110 -11.32570  -1.47701  -1.07527
 Alpha  occ. eigenvalues --   -0.79789  -0.70486  -0.68855  -0.64183  -0.49516
 Alpha  occ. eigenvalues --   -0.46215  -0.40476
 Alpha virt. eigenvalues --    0.04436   0.08858   0.10459   0.10773   0.11633
 Alpha virt. eigenvalues --    0.13036   0.14290   0.17254   0.18484   0.19917
 Alpha virt. eigenvalues --    0.24864   0.30300   0.30638   0.32431   0.34636

  Beta  occ. eigenvalues --  -20.60153 -11.33666 -11.27433  -1.40260  -0.90515
  Beta  occ. eigenvalues --   -0.71556  -0.65173  -0.53532  -0.51137
  Beta virt. eigenvalues --    0.03243   0.03467   0.05374   0.07682   0.11569
  Beta virt. eigenvalues --    0.13106   0.13269   0.13623   0.14973   0.17135
  Beta virt. eigenvalues --    0.18655   0.21539   0.25798   0.27250   0.31699

 Mulliken charges and spin densities:
               1          2
     1  C    0.624298   0.388645
     2  C   -0.209268   2.052271
     3  H    0.155009   0.008204
     4  O   -0.570039   0.550880
 Sum of Mulliken charges =  -0.00000   3.00000

 Dipole moment (field-independent basis, Debye):
    X=              2.2904    Y=              0.3901    Z=              0.0000  Tot=              2.3234
 Quadrupole moment (field-independent basis, Debye-Ang):
   XX=            -17.7943   YY=            -17.0574   ZZ=            -16.7893
   XY=              1.8076   XZ=              0.0000   YZ=              0.0000

 Normal termination of Gaussian 09 at Thu Mar  7 10:45:35 2019.
