 Gaussian 09, Revision E.01,
 Gaussian 09:  EM64L-G09RevE.01 30-Nov-2015

 --------------------------------------
 #p ccsd(t,maxcyc=200)/6-311++G(3df,2p)
 --------------------------------------

 -------------
 ccsd(t) iener
 -------------
 Symbolic Z-matrix:
 Charge =  0 Multiplicity = 4

                         Standard orientation:
 ---------------------------------------------------------------------
 Center     Atomic      Atomic             Coordinates (Angstroms)
 Number     Number       Type             X           Y           Z
 ---------------------------------------------------------------------
      1          6           0        1.409554   -0.205568    0.000006
      2          6           0        0.140185    0.483929   -0.000007
      3          1           0       -1.737927    0.311407    0.000053
      4          8           0       -0.945063   -0.247697   -0.000006
 ---------------------------------------------------------------------

 SCF Done:  E(UHF) =  -150.994235633     A.U. after   25 cycles
 E2 =    -0.4520531602D+00 EUMP2 =    -0.15144628879321D+03
 CCSD(T)
 CCSD(T)= -0.15150128367D+03

 The electronic state is 4-A.
 Alpha  occ. eigenvalues --  -20.66547 -11.38144 -11.28640  -1.50293  -1.06554
 Alpha  occ. eigenvalues --   -0.82915  -0.76193  -0.67947  -0.56864  -0.47120
 Alpha  occ. eigenvalues --   -0.40718  -0.36388
 Alpha virt. eigenvalues --    0.03078   0.08899   0.09281   0.10976   0.11172
 Alpha virt. eigenvalues --    0.13444   0.15201   0.15941   0.18215   0.20822
 Alpha virt. eigenvalues --    0.23545   0.26876   0.27208   0.34008   0.37381

  Beta  occ. eigenvalues --  -20.65234 -11.34754 -11.25561  -1.45981  -0.92645
  Beta  occ. eigenvalues --   -0.75311  -0.66587  -0.59512  -0.41040
  Beta virt. eigenvalues --    0.01663   0.03031   0.03440   0.10452   0.10475
  Beta virt. eigenvalues --    0.12328   0.13967   0.15235   0.15339   0.16477
  Beta virt. eigenvalues --    0.21362   0.22122   0.25364   0.25781   0.27548

 Mulliken charges and spin densities:
               1          2
     1  C   -0.423627   1.399359
     2  C    0.619429   1.514131
     3  H    0.270855   0.003399
     4  O   -0.466657   0.083111
 Sum of Mulliken charges =  -0.00000   3.00000

 Dipole moment (field-independent basis, Debye):
    X=             -3.7300    Y=              2.2253    Z=              0.0001  Tot=              4.3433
 Quadrupole moment (field-independent basis, Debye-Ang):
   XX=            -18.1714   YY=            -18.9676   ZZ=            -17.3681
   XY=             -0.2874   XZ=             -0.0003   YZ=              0.0001

 Normal termination of Gaussian 09 at Thu Mar  7 10:49:45 2019.
