 Gaussian 09, Revision E.01,
 Gaussian 09:  EM64L-G09RevE.01 30-Nov-2015

 --------------------------------------
 #p ccsd(t,maxcyc=200)/6-311++G(3df,2p)
 --------------------------------------

 -------------
 ccsd(t) iener
 -------------
 Symbolic Z-matrix:
 Charge =  1 Multiplicity = 3

                         Standard orientation:
 ---------------------------------------------------------------------
 Center     Atomic      Atomic             Coordinates (Angstroms)
 Number     Number       Type             X           Y           Z
 ---------------------------------------------------------------------
      1          6           0       -1.183880   -0.163770    0.000017
      2          6           0        1.318139    0.003044    0.000034
      3          1           0       -1.918051    0.642399    0.000048
      4          8           0        0.139062    0.040245   -0.000044
 ---------------------------------------------------------------------

 SCF Done:  E(UHF) =  -150.728971642     A.U. after   21 cycles
 E2 =    -0.4325519298D+00 EUMP2 =    -0.15116152357184D+03
 CCSD(T)
 CCSD(T)= -0.15120623683D+03

 The electronic state is 3-A.
 Alpha  occ. eigenvalues --  -21.03809 -11.73251 -11.64214  -1.89107  -1.43763
 Alpha  occ. eigenvalues --   -1.06593  -1.03605  -1.02661  -0.86302  -0.77179
 Alpha  occ. eigenvalues --   -0.69805
 Alpha virt. eigenvalues --   -0.18162  -0.17633  -0.10606  -0.06866  -0.05344
 Alpha virt. eigenvalues --   -0.04879  -0.03649  -0.01511  -0.00620   0.02101
 Alpha virt. eigenvalues --    0.02655   0.05329   0.09624   0.11514   0.11860

  Beta  occ. eigenvalues --  -21.04613 -11.72631 -11.58590  -1.89121  -1.37291
  Beta  occ. eigenvalues --   -1.03233  -1.02215  -0.95958  -0.84860
  Beta virt. eigenvalues --   -0.20994  -0.19534  -0.13807  -0.11024  -0.10066
  Beta virt. eigenvalues --   -0.06396  -0.03560  -0.01935  -0.00331   0.00255
  Beta virt. eigenvalues --    0.02017   0.02726   0.03326   0.08279   0.11222

 Mulliken charges and spin densities:
               1          2
     1  C    0.363823   2.022835
     2  C    0.473495   0.255161
     3  H    0.251554  -0.014138
     4  O   -0.088872  -0.263858
 Sum of Mulliken charges =   1.00000   2.00000

 Dipole moment (field-independent basis, Debye):
    X=             -0.7029    Y=              0.4562    Z=              0.0001  Tot=              0.8379
 Quadrupole moment (field-independent basis, Debye-Ang):
   XX=             -7.5214   YY=            -13.5612   ZZ=            -14.6111
   XY=             -1.2743   XZ=             -0.0001   YZ=              0.0000

 Normal termination of Gaussian 09 at Thu Mar  7 10:56:37 2019.
