 Gaussian 09, Revision E.01,
 Gaussian 09:  EM64L-G09RevE.01 30-Nov-2015

 --------------------------------------
 #p ccsd(t,maxcyc=200)/6-311++G(3df,2p)
 --------------------------------------

 -------------
 ccsd(t) iener
 -------------
 Symbolic Z-matrix:
 Charge =  1 Multiplicity = 1

                         Standard orientation:
 ---------------------------------------------------------------------
 Center     Atomic      Atomic             Coordinates (Angstroms)
 Number     Number       Type             X           Y           Z
 ---------------------------------------------------------------------
      1          6           0        1.520299    0.009772    0.000001
      2          6           0        0.153418    0.033946   -0.000001
      3          1           0       -1.620941    0.697738    0.000001
      4          8           0       -1.052670   -0.120005    0.000000
 ---------------------------------------------------------------------

 SCF Done:  E(RHF) =  -150.679765636     A.U. after   14 cycles
 E2 =    -0.4722395105D+00 EUMP2 =    -0.15115200514605D+03
 CCSD(T)
 CCSD(T)= -0.15120476498D+03

 The electronic state is 1-A.
 Alpha  occ. eigenvalues --  -21.01056 -11.70202 -11.65087  -1.83590  -1.33545
 Alpha  occ. eigenvalues --   -1.19350  -1.02532  -0.95193  -0.77299  -0.69943
 Alpha virt. eigenvalues --   -0.31927  -0.14765  -0.12937  -0.07207  -0.06284
 Alpha virt. eigenvalues --   -0.05387  -0.05284  -0.02092  -0.00542   0.01065
 Alpha virt. eigenvalues --    0.01750   0.04927   0.06664   0.08256   0.11825

 Mulliken charges:
               1
     1  C    0.053776
     2  C    0.946342
     3  H    0.374859
     4  O   -0.374977
 Sum of Mulliken charges =   1.00000

 Dipole moment (field-independent basis, Debye):
    X=             -1.9457    Y=              1.6104    Z=             -0.0000  Tot=              2.5257
 Quadrupole moment (field-independent basis, Debye-Ang):
   XX=             -9.6595   YY=            -14.8240   ZZ=            -13.1348
   XY=             -3.2534   XZ=             -0.0000   YZ=              0.0000

 -151.1801486\CCSD(T)=-151.204765\RMSD=1.303e-09\PG=C01 [X(C2H1O1)]\\@
 Normal termination of Gaussian 09 at Thu Mar  7 10:53:31 2019.
