 Gaussian 09, Revision E.01,
 Gaussian 09:  EM64L-G09RevE.01 30-Nov-2015

 --------------------------------------
 #p ccsd(t,maxcyc=200)/6-311++G(3df,2p)
 --------------------------------------

 -------------
 ccsd(t) iener
 -------------
 Symbolic Z-matrix:
 Charge =  1 Multiplicity = 1

                         Standard orientation:
 ---------------------------------------------------------------------
 Center     Atomic      Atomic             Coordinates (Angstroms)
 Number     Number       Type             X           Y           Z
 ---------------------------------------------------------------------
      1          6           0        0.541601   -0.788405    0.000001
      2          6           0        0.539814    0.789445    0.000001
      3          1           0       -1.611421   -0.001272    0.000015
      4          8           0       -0.609634   -0.000622   -0.000004
 ---------------------------------------------------------------------

 SCF Done:  E(RHF) =  -150.620129294     A.U. after   13 cycles
 E2 =    -0.4733588862D+00 EUMP2 =    -0.15109348817997D+03
 CCSD(T)
 CCSD(T)= -0.15114560748D+03

 The electronic state is 1-A.
 Alpha  occ. eigenvalues --  -21.05280 -11.68414 -11.68354  -1.88497  -1.36117
 Alpha  occ. eigenvalues --   -1.16239  -0.99825  -0.94829  -0.77664  -0.71827
 Alpha virt. eigenvalues --   -0.25409  -0.15553  -0.15292  -0.07121  -0.07097
 Alpha virt. eigenvalues --   -0.05237  -0.03800  -0.02595  -0.00758  -0.00466
 Alpha virt. eigenvalues --    0.00200   0.01563   0.05145   0.06336   0.10511

 Mulliken charges:
               1
     1  C    0.293302
     2  C    0.292952
     3  H    0.531786
     4  O   -0.118040
 Sum of Mulliken charges =   1.00000

 Dipole moment (field-independent basis, Debye):
    X=             -2.6762    Y=             -0.0026    Z=              0.0000  Tot=              2.6762
 Quadrupole moment (field-independent basis, Debye-Ang):
   XX=             -8.0107   YY=            -17.4012   ZZ=            -13.6125
   XY=              0.0070   XZ=             -0.0001   YZ=             -0.0000

 151.1206597\CCSD(T)=-151.1456075\RMSD=4.563e-09\PG=C01 [X(C2H1O1)]\\@
 Normal termination of Gaussian 09 at Thu Mar  7 10:53:00 2019.
