 Gaussian 09, Revision E.01,
 Gaussian 09:  EM64L-G09RevE.01 30-Nov-2015

 --------------------------------------
 #p ccsd(t,maxcyc=200)/6-311++G(3df,2p)
 --------------------------------------

 -------------
 ccsd(t) iener
 -------------
 Symbolic Z-matrix:
 Charge =  0 Multiplicity = 2

                         Standard orientation:
 ---------------------------------------------------------------------
 Center     Atomic      Atomic             Coordinates (Angstroms)
 Number     Number       Type             X           Y           Z
 ---------------------------------------------------------------------
      1          6           0        0.096956    0.634173   -0.000016
      2          6           0        0.916719   -0.433701    0.000005
      3          1           0       -0.091310    1.697009    0.000048
      4          8           0       -0.748842   -0.362480    0.000002
 ---------------------------------------------------------------------

 SCF Done:  E(UHF) =  -151.047989478     A.U. after   22 cycles
 E2 =    -0.5032185605D+00 EUMP2 =    -0.15155120803864D+03
 CCSD(T)
 CCSD(T)= -0.15159770740D+03

 The electronic state is 2-A.
 Alpha  occ. eigenvalues --  -20.67623 -11.34380 -11.32317  -1.50582  -1.00860
 Alpha  occ. eigenvalues --   -0.83448  -0.71473  -0.69173  -0.54370  -0.47439
 Alpha  occ. eigenvalues --   -0.39782
 Alpha virt. eigenvalues --    0.03501   0.07605   0.08111   0.10156   0.11475
 Alpha virt. eigenvalues --    0.12721   0.14145   0.17040   0.18933   0.19519
 Alpha virt. eigenvalues --    0.22360   0.24460   0.28056   0.30046   0.31953

  Beta  occ. eigenvalues --  -20.64422 -11.34650 -11.31243  -1.43674  -0.94658
  Beta  occ. eigenvalues --   -0.82602  -0.66622  -0.52172  -0.50714  -0.45288
  Beta virt. eigenvalues --    0.03506   0.05572   0.07889   0.10301   0.10881
  Beta virt. eigenvalues --    0.12335   0.12940   0.14251   0.17037   0.19931
  Beta virt. eigenvalues --    0.22692   0.23119   0.24551   0.30252   0.30723

 Mulliken charges and spin densities:
               1          2
     1  C    0.528386  -0.097953
     2  C   -0.278387   0.513068
     3  H    0.217749  -0.005115
     4  O   -0.467748   0.589999
 Sum of Mulliken charges =  -0.00000   1.00000

 Dipole moment (field-independent basis, Debye):
    X=             -0.4879    Y=              3.1724    Z=              0.0000  Tot=              3.2097
 Quadrupole moment (field-independent basis, Debye-Ang):
   XX=            -19.7496   YY=            -15.3942   ZZ=            -17.2571
   XY=              1.0132   XZ=             -0.0000   YZ=              0.0001

 6\CCSD(T)=-151.5977074\S2=0.810892\S2-1=0.783264\S2A=0.751377\RMSD=7.7
 Normal termination of Gaussian 09 at Thu Mar  7 10:48:59 2019.
