 Gaussian 09, Revision E.01,
 Gaussian 09:  EM64L-G09RevE.01 30-Nov-2015

 --------------------------------------
 #p ccsd(t,maxcyc=200)/6-311++G(3df,2p)
 --------------------------------------

 -------------
 ccsd(t) iener
 -------------
 Symbolic Z-matrix:
 Charge =  1 Multiplicity = 3

                         Standard orientation:
 ---------------------------------------------------------------------
 Center     Atomic      Atomic             Coordinates (Angstroms)
 Number     Number       Type             X           Y           Z
 ---------------------------------------------------------------------
      1          6           0       -0.001867    0.336018   -0.000002
      2          6           0       -1.365515   -0.264215    0.000001
      3          1           0       -0.136772    1.451400    0.000005
      4          8           0        1.042633   -0.235277    0.000001
 ---------------------------------------------------------------------

 SCF Done:  E(UHF) =  -150.700320273     A.U. after   35 cycles
 E2 =    -0.4157989963D+00 EUMP2 =    -0.15111611926952D+03
 CCSD(T)
 CCSD(T)= -0.15118896843D+03

 The electronic state is 3-A.
 Alpha  occ. eigenvalues --  -21.05182 -11.67951 -11.67009  -1.88635  -1.34704
 Alpha  occ. eigenvalues --   -1.14794  -1.09868  -1.02271  -0.95680  -0.77312
 Alpha  occ. eigenvalues --   -0.73888
 Alpha virt. eigenvalues --   -0.24689  -0.16381  -0.11298  -0.07570  -0.05985
 Alpha virt. eigenvalues --   -0.05954  -0.01563  -0.00682  -0.00004   0.00125
 Alpha virt. eigenvalues --    0.03116   0.05011   0.08992   0.10610   0.13548

  Beta  occ. eigenvalues --  -21.00047 -11.68802 -11.64735  -1.75384  -1.25319
  Beta  occ. eigenvalues --   -1.05359  -0.99389  -0.90468  -0.74794
  Beta virt. eigenvalues --   -0.27659  -0.25907  -0.22442  -0.11014  -0.07990
  Beta virt. eigenvalues --   -0.07020  -0.05499  -0.04952  -0.01203  -0.00325
  Beta virt. eigenvalues --    0.00346   0.02402   0.03993   0.05609   0.10808

 Mulliken charges and spin densities:
               1          2
     1  C    0.960256  -0.261473
     2  C   -0.035659   0.971641
     3  H    0.262952   0.133846
     4  O   -0.187549   1.155986
 Sum of Mulliken charges =   1.00000   2.00000

 Dipole moment (field-independent basis, Debye):
    X=             -0.4598    Y=              1.9777    Z=             -0.0000  Tot=              2.0304
 Quadrupole moment (field-independent basis, Debye-Ang):
   XX=            -14.0343   YY=            -10.5421   ZZ=            -14.9442
   XY=             -0.5215   XZ=              0.0000   YZ=              0.0000

 Normal termination of Gaussian 09 at Thu Mar  7 10:58:59 2019.
