 Gaussian 09, Revision E.01,
 Gaussian 09:  EM64L-G09RevE.01 30-Nov-2015

 --------------------------------------
 #p ccsd(t,maxcyc=200)/6-311++G(3df,2p)
 --------------------------------------

 -------------
 ccsd(t) iener
 -------------
 Symbolic Z-matrix:
 Charge =  0 Multiplicity = 4

                         Standard orientation:
 ---------------------------------------------------------------------
 Center     Atomic      Atomic             Coordinates (Angstroms)
 Number     Number       Type             X           Y           Z
 ---------------------------------------------------------------------
      1          6           0       -0.412275    0.786337    0.043998
      2          6           0        0.801864    0.020964   -0.148944
      3          1           0        1.593499   -0.257037    0.544322
      4          8           0       -0.491380   -0.573346    0.010669
 ---------------------------------------------------------------------

 SCF Done:  E(UHF) =  -150.983575188     A.U. after   19 cycles
 E2 =    -0.4699055312D+00 EUMP2 =    -0.15145348071951D+03
 CCSD(T)
 CCSD(T)= -0.15149243362D+03

 The electronic state is 4-A.
 Alpha  occ. eigenvalues --  -20.64572 -11.35096 -11.34302  -1.49887  -0.96761
 Alpha  occ. eigenvalues --   -0.87053  -0.73292  -0.67471  -0.57738  -0.50320
 Alpha  occ. eigenvalues --   -0.44931  -0.36811
 Alpha virt. eigenvalues --    0.04565   0.08921   0.08976   0.10608   0.12599
 Alpha virt. eigenvalues --    0.14104   0.14448   0.18085   0.19547   0.25082
 Alpha virt. eigenvalues --    0.26207   0.28732   0.29616   0.30878   0.35655

  Beta  occ. eigenvalues --  -20.63003 -11.32042 -11.28988  -1.45173  -0.86861
  Beta  occ. eigenvalues --   -0.76366  -0.61939  -0.53863  -0.49375
  Beta virt. eigenvalues --    0.01829   0.04983   0.06043   0.09305   0.11151
  Beta virt. eigenvalues --    0.11793   0.13516   0.14546   0.15572   0.18540
  Beta virt. eigenvalues --    0.20697   0.24017   0.26809   0.29828   0.31215

 Mulliken charges and spin densities:
               1          2
     1  C    0.153626   1.854722
     2  C    0.199050   1.003701
     3  H    0.128383   0.027579
     4  O   -0.481059   0.113998
 Sum of Mulliken charges =  -0.00000   3.00000

 Dipole moment (field-independent basis, Debye):
    X=              1.2533    Y=              0.5441    Z=              0.5236  Tot=              1.4632
 Quadrupole moment (field-independent basis, Debye-Ang):
   XX=            -15.1882   YY=            -17.8367   ZZ=            -17.6121
   XY=             -1.3232   XZ=              0.8833   YZ=             -0.0665

 Normal termination of Gaussian 09 at Thu Mar  7 10:47:13 2019.
