 Gaussian 09, Revision E.01,
 Gaussian 09:  EM64L-G09RevE.01 30-Nov-2015

 --------------------------------------
 #p ccsd(t,maxcyc=200)/6-311++G(3df,2p)
 --------------------------------------

 -------------
 ccsd(t) iener
 -------------
 Symbolic Z-matrix:
 Charge =  0 Multiplicity = 2

                         Standard orientation:
 ---------------------------------------------------------------------
 Center     Atomic      Atomic             Coordinates (Angstroms)
 Number     Number       Type             X           Y           Z
 ---------------------------------------------------------------------
      1          6           0        0.021336    0.040134    0.000001
      2          6           0       -1.255145   -0.130602   -0.000000
      3          1           0       -2.125439    0.493052   -0.000001
      4          8           0        1.191036    0.006220   -0.000001
 ---------------------------------------------------------------------

 SCF Done:  E(UHF) =  -151.139019397     A.U. after   25 cycles
 E2 =    -0.5035750840D+00 EUMP2 =    -0.15164259448110D+03
 CCSD(T)
 CCSD(T)= -0.15168102159D+03

 The electronic state is 2-A.
 Alpha  occ. eigenvalues --  -20.65588 -11.38004 -11.28090  -1.49906  -1.08257
 Alpha  occ. eigenvalues --   -0.77757  -0.71208  -0.68596  -0.64637  -0.44316
 Alpha  occ. eigenvalues --   -0.41603
 Alpha virt. eigenvalues --    0.04093   0.07715   0.10580   0.10967   0.12241
 Alpha virt. eigenvalues --    0.12878   0.14282   0.17308   0.18631   0.19983
 Alpha virt. eigenvalues --    0.21413   0.27850   0.31338   0.33039   0.33304

  Beta  occ. eigenvalues --  -20.63884 -11.38660 -11.26199  -1.46328  -1.01551
  Beta  occ. eigenvalues --   -0.75492  -0.69792  -0.64356  -0.56988  -0.37517
  Beta virt. eigenvalues --    0.00922   0.04196   0.07745   0.10259   0.11992
  Beta virt. eigenvalues --    0.12361   0.14110   0.14454   0.17544   0.18652
  Beta virt. eigenvalues --    0.20420   0.28224   0.28373   0.31569   0.33469

 Mulliken charges and spin densities:
               1          2
     1  C    0.829282  -0.336665
     2  C   -0.388318   1.005689
     3  H    0.222501  -0.039353
     4  O   -0.663465   0.370329
 Sum of Mulliken charges =  -0.00000   1.00000

 Dipole moment (field-independent basis, Debye):
    X=             -1.4777    Y=              1.1580    Z=              0.0000  Tot=              1.8774
 Quadrupole moment (field-independent basis, Debye-Ang):
   XX=            -17.0795   YY=            -17.9132   ZZ=            -16.5745
   XY=             -2.1791   XZ=              0.0000   YZ=             -0.0000

 Normal termination of Gaussian 09 at Thu Mar  7 10:47:15 2019.
