 Gaussian 09, Revision E.01,
 Gaussian 09:  EM64L-G09RevE.01 30-Nov-2015

 --------------------------------------
 #p ccsd(t,maxcyc=200)/6-311++G(3df,2p)
 --------------------------------------

 -------------
 ccsd(t) iener
 -------------
 Symbolic Z-matrix:
 Charge =  1 Multiplicity = 1

                         Standard orientation:
 ---------------------------------------------------------------------
 Center     Atomic      Atomic             Coordinates (Angstroms)
 Number     Number       Type             X           Y           Z
 ---------------------------------------------------------------------
      1          6           0       -0.818504   -0.516920    0.000008
      2          6           0        0.625949   -0.343248   -0.000023
      3          1           0        1.705106   -0.504444    0.000074
      4          8           0       -0.068722    0.708181    0.000002
 ---------------------------------------------------------------------

 SCF Done:  E(RHF) =  -150.728478538     A.U. after   14 cycles
 E2 =    -0.4877847816D+00 EUMP2 =    -0.15121626331986D+03
 CCSD(T)
 CCSD(T)= -0.15125666339D+03

 The electronic state is 1-A.
 Alpha  occ. eigenvalues --  -21.03518 -11.71542 -11.69316  -1.89637  -1.25311
 Alpha  occ. eigenvalues --   -1.19668  -1.03288  -0.96682  -0.85917  -0.76153
 Alpha virt. eigenvalues --   -0.25961  -0.17253  -0.11506  -0.09306  -0.08542
 Alpha virt. eigenvalues --   -0.06227  -0.04457  -0.02157   0.00556   0.00798
 Alpha virt. eigenvalues --    0.01529   0.05387   0.05884   0.07227   0.08670

 Mulliken charges:
               1
     1  C    0.186840
     2  C    0.692750
     3  H    0.344274
     4  O   -0.223865
 Sum of Mulliken charges =   1.00000

 Dipole moment (field-independent basis, Debye):
    X=              3.0513    Y=             -1.4741    Z=             -0.0000  Tot=              3.3887
 Quadrupole moment (field-independent basis, Debye-Ang):
   XX=            -10.2724   YY=            -14.3848   ZZ=            -13.1891
   XY=             -1.8316   XZ=              0.0001   YZ=             -0.0000

 D=-151.2309648\CCSD(T)=-151.2566634\RMSD=4.863e-09\PG=C01 [X(C2H1O1)]\
 Normal termination of Gaussian 09 at Thu Mar  7 10:53:00 2019.
