 Gaussian 09, Revision E.01,
 Gaussian 09:  EM64L-G09RevE.01 30-Nov-2015

 --------------------------------------
 #p ccsd(t,maxcyc=200)/6-311++G(3df,2p)
 --------------------------------------

 -------------
 ccsd(t) iener
 -------------
 Symbolic Z-matrix:
 Charge =  1 Multiplicity = 1

                         Standard orientation:
 ---------------------------------------------------------------------
 Center     Atomic      Atomic             Coordinates (Angstroms)
 Number     Number       Type             X           Y           Z
 ---------------------------------------------------------------------
      1          6           0       -1.338802   -0.075638    0.000324
      2          6           0        1.314566   -0.228353    0.000079
      3          1           0        1.691694    0.820202    0.000804
      4          8           0       -0.193285    0.125468   -0.000403
 ---------------------------------------------------------------------

 SCF Done:  E(RHF) =  -150.709524140     A.U. after   13 cycles
 E2 =    -0.4533348508D+00 EUMP2 =    -0.15116285899104D+03
 CCSD(T)
 CCSD(T)= -0.15121522952D+03

 The electronic state is 1-A.
 Alpha  occ. eigenvalues --  -20.99794 -11.70330 -11.69506  -1.84914  -1.32850
 Alpha  occ. eigenvalues --   -1.02842  -0.99211  -0.97370  -0.83455  -0.73286
 Alpha virt. eigenvalues --   -0.25199  -0.16901  -0.13692  -0.10978  -0.08083
 Alpha virt. eigenvalues --   -0.04869  -0.03848  -0.02920  -0.01920   0.00083
 Alpha virt. eigenvalues --    0.00758   0.02977   0.03219   0.05978   0.11019

 Mulliken charges:
               1
     1  C    0.451093
     2  C    0.451902
     3  H    0.232844
     4  O   -0.135839
 Sum of Mulliken charges =   1.00000

 Dipole moment (field-independent basis, Debye):
    X=              1.2848    Y=              1.2584    Z=              0.0016  Tot=              1.7984
 Quadrupole moment (field-independent basis, Debye-Ang):
   XX=             -7.6346   YY=            -15.1028   ZZ=            -13.5040
   XY=              2.4663   XZ=              0.0023   YZ=             -0.0002

 1921728\CCSD(T)=-151.2152295\RMSD=4.059e-09\PG=C01 [X(C2H1O1)]\\@
 Normal termination of Gaussian 09 at Thu Mar  7 10:53:08 2019.
