 Gaussian 09, Revision E.01,
 Gaussian 09:  EM64L-G09RevE.01 30-Nov-2015

 --------------------------------------
 #p ccsd(t,maxcyc=200)/6-311++G(3df,2p)
 --------------------------------------

 -------------
 ccsd(t) iener
 -------------
 Symbolic Z-matrix:
 Charge =  1 Multiplicity = 3

                         Standard orientation:
 ---------------------------------------------------------------------
 Center     Atomic      Atomic             Coordinates (Angstroms)
 Number     Number       Type             X           Y           Z
 ---------------------------------------------------------------------
      1          6           0        0.166752   -0.148642    0.000023
      2          6           0        1.486064    0.097016   -0.000010
      3          1           0       -1.538005    0.798738    0.000025
      4          8           0       -1.047362   -0.061123   -0.000013
 ---------------------------------------------------------------------

 SCF Done:  E(UHF) =  -150.721704829     A.U. after   26 cycles
 E2 =    -0.4381922157D+00 EUMP2 =    -0.15115989704484D+03
 CCSD(T)
 CCSD(T)= -0.15121383928D+03

 The electronic state is 3-A.
 Alpha  occ. eigenvalues --  -20.98618 -11.71743 -11.64627  -1.83371  -1.41244
 Alpha  occ. eigenvalues --   -1.20864  -1.02774  -0.99830  -0.82325  -0.75182
 Alpha  occ. eigenvalues --   -0.74117
 Alpha virt. eigenvalues --   -0.18241  -0.13255  -0.11431  -0.08138  -0.05808
 Alpha virt. eigenvalues --   -0.05172  -0.02344  -0.00651   0.00553   0.00721
 Alpha virt. eigenvalues --    0.04950   0.05737   0.08313   0.11038   0.12203

  Beta  occ. eigenvalues --  -20.97477 -11.69558 -11.62729  -1.80387  -1.27094
  Beta  occ. eigenvalues --   -1.18012  -0.95702  -0.91595  -0.76100
  Beta virt. eigenvalues --   -0.27220  -0.26577  -0.14555  -0.07355  -0.05739
  Beta virt. eigenvalues --   -0.05135  -0.05118  -0.02677  -0.01229   0.00133
  Beta virt. eigenvalues --    0.01286   0.03892   0.05784   0.07445   0.11245

 Mulliken charges and spin densities:
               1          2
     1  C    0.974783   1.038368
     2  C    0.078620   0.788381
     3  H    0.371419   0.024442
     4  O   -0.424822   0.148810
 Sum of Mulliken charges =   1.00000   2.00000

 Dipole moment (field-independent basis, Debye):
    X=             -1.2318    Y=              1.2693    Z=              0.0001  Tot=              1.7687
 Quadrupole moment (field-independent basis, Debye-Ang):
   XX=             -9.3459   YY=            -12.7758   ZZ=            -14.6061
   XY=             -4.0398   XZ=             -0.0001   YZ=              0.0001

 Normal termination of Gaussian 09 at Thu Mar  7 11:00:46 2019.
