 Gaussian 09, Revision E.01,
 Gaussian 09:  EM64L-G09RevE.01 30-Nov-2015

 --------------------------------------
 #p ccsd(t,maxcyc=200)/6-311++G(3df,2p)
 --------------------------------------

 -------------
 ccsd(t) iener
 -------------
 Symbolic Z-matrix:
 Charge =  1 Multiplicity = 1

                         Standard orientation:
 ---------------------------------------------------------------------
 Center     Atomic      Atomic             Coordinates (Angstroms)
 Number     Number       Type             X           Y           Z
 ---------------------------------------------------------------------
      1          6           0       -0.062467    0.069209   -0.000004
      2          6           0        1.308152   -0.170777    0.000001
      3          1           0        2.034802    0.648601    0.000004
      4          8           0       -1.188615   -0.004899    0.000002
 ---------------------------------------------------------------------

 SCF Done:  E(RHF) =  -150.763073286     A.U. after   14 cycles
 E2 =    -0.4847838472D+00 EUMP2 =    -0.15124785713311D+03
 CCSD(T)
 CCSD(T)= -0.15128774021D+03

 The electronic state is 1-A.
 Alpha  occ. eigenvalues --  -20.99319 -11.72457 -11.66183  -1.82687  -1.35607
 Alpha  occ. eigenvalues --   -1.08056  -1.00724  -0.95530  -0.93227  -0.72528
 Alpha virt. eigenvalues --   -0.32729  -0.15790  -0.11912  -0.07518  -0.07281
 Alpha virt. eigenvalues --   -0.05709  -0.05174  -0.02007  -0.00598   0.00479
 Alpha virt. eigenvalues --    0.00618   0.03097   0.05172   0.09857   0.13063

 Mulliken charges:
               1
     1  C    1.098992
     2  C    0.017864
     3  H    0.290497
     4  O   -0.407354
 Sum of Mulliken charges =   1.00000

 Dipole moment (field-independent basis, Debye):
    X=              3.2422    Y=              1.5141    Z=             -0.0000  Tot=              3.5784
 Quadrupole moment (field-independent basis, Debye-Ang):
   XX=             -8.2571   YY=            -15.0461   ZZ=            -12.8826
   XY=              2.7083   XZ=              0.0000   YZ=              0.0000

 151.2619203\CCSD(T)=-151.2877402\RMSD=2.607e-09\PG=C01 [X(C2H1O1)]\\@
 Normal termination of Gaussian 09 at Thu Mar  7 10:53:20 2019.
