 Gaussian 09, Revision E.01,
 Gaussian 09:  EM64L-G09RevE.01 30-Nov-2015

 --------------------------------------
 #p ccsd(t,maxcyc=200)/6-311++G(3df,2p)
 --------------------------------------

 -------------
 ccsd(t) iener
 -------------
 Symbolic Z-matrix:
 Charge =  0 Multiplicity = 2

                         Standard orientation:
 ---------------------------------------------------------------------
 Center     Atomic      Atomic             Coordinates (Angstroms)
 Number     Number       Type             X           Y           Z
 ---------------------------------------------------------------------
      1          6           0       -0.600165    0.415884   -0.000023
      2          6           0        1.996041   -0.122014    0.000022
      3          6           0        0.760479   -0.066785   -0.000029
      4          1           0       -0.738249    1.507216    0.000068
      5          8           0       -1.524986   -0.358716    0.000014
 ---------------------------------------------------------------------

 SCF Done:  E(UHF) =  -188.921632227     A.U. after   45 cycles
 E2 =    -0.6304647477D+00 EUMP2 =    -0.18955209697473D+03
 CCSD(T)
 CCSD(T)= -0.18961907517D+03

 The electronic state is 2-A.
 Alpha  occ. eigenvalues --  -20.59491 -11.38189 -11.32994 -11.30174  -1.42366
 Alpha  occ. eigenvalues --   -1.11744  -0.93875  -0.76286  -0.68431  -0.60286
 Alpha  occ. eigenvalues --   -0.56522  -0.47991  -0.46432  -0.44929
 Alpha virt. eigenvalues --    0.04009   0.05704   0.08481   0.09415   0.09910
 Alpha virt. eigenvalues --    0.10187   0.10992   0.14190   0.14285   0.16373
 Alpha virt. eigenvalues --    0.16986   0.18413   0.20209   0.23956   0.24783

  Beta  occ. eigenvalues --  -20.60862 -11.37465 -11.30184 -11.29890  -1.45167
  Beta  occ. eigenvalues --   -1.06431  -0.90821  -0.75312  -0.69107  -0.61911
  Beta  occ. eigenvalues --   -0.49338  -0.44868  -0.43734
  Beta virt. eigenvalues --   -0.03410   0.04305   0.06278   0.09425   0.09677
  Beta virt. eigenvalues --    0.10329   0.10898   0.11861   0.15454   0.15891
  Beta virt. eigenvalues --    0.16853   0.17619   0.18663   0.22212   0.24497

 Mulliken charges and spin densities:
               1          2
     1  C    0.401560   0.324410
     2  C   -0.265410   1.090072
     3  C    0.409396  -0.053868
     4  H    0.143437  -0.018601
     5  O   -0.688984  -0.342013
 Sum of Mulliken charges =  -0.00000   1.00000

 Dipole moment (field-independent basis, Debye):
    X=              0.7767    Y=              1.3458    Z=             -0.0000  Tot=              1.5538
 Quadrupole moment (field-independent basis, Debye-Ang):
   XX=            -27.4526   YY=            -21.1890   ZZ=            -22.7136
   XY=             -3.7729   XZ=              0.0001   YZ=              0.0000

 =-189.5750581\CCSD=-189.5827412\CCSD(T)=-189.6190752\S2=0.989191\S2-1=
 Normal termination of Gaussian 09 at Thu Mar  7 12:04:49 2019.
