 Gaussian 09, Revision E.01,
 Gaussian 09:  EM64L-G09RevE.01 30-Nov-2015

 --------------------------------------
 #p ccsd(t,maxcyc=200)/6-311++G(3df,2p)
 --------------------------------------

 -------------
 ccsd(t) iener
 -------------
 Symbolic Z-matrix:
 Charge =  0 Multiplicity = 4

                         Standard orientation:
 ---------------------------------------------------------------------
 Center     Atomic      Atomic             Coordinates (Angstroms)
 Number     Number       Type             X           Y           Z
 ---------------------------------------------------------------------
      1          6           0       -0.726905    0.364963    0.000128
      2          6           0       -1.877636   -0.288298   -0.000233
      3          6           0        0.536060   -0.380779    0.000394
      4          1           0       -0.703202    1.461099    0.000209
      5          8           0        1.639261    0.045448   -0.000243
 ---------------------------------------------------------------------

 SCF Done:  E(UHF) =  -188.904841791     A.U. after   27 cycles
 E2 =    -0.5730635733D+00 EUMP2 =    -0.18947790536423D+03
 CCSD(T)
 CCSD(T)= -0.18954602909D+03

 The electronic state is 4-A.
 Alpha  occ. eigenvalues --  -20.60260 -11.35233 -11.33572 -11.29034  -1.43921
 Alpha  occ. eigenvalues --   -1.12570  -0.89937  -0.76390  -0.69432  -0.66477
 Alpha  occ. eigenvalues --   -0.59743  -0.56047  -0.46922  -0.45458  -0.37532
 Alpha virt. eigenvalues --    0.04647   0.05673   0.07952   0.08947   0.10669
 Alpha virt. eigenvalues --    0.12609   0.13236   0.13286   0.14703   0.15012
 Alpha virt. eigenvalues --    0.17881   0.18704   0.19318   0.20810   0.24924

  Beta  occ. eigenvalues --  -20.60287 -11.32257 -11.29827 -11.26654  -1.43378
  Beta  occ. eigenvalues --   -1.06509  -0.78083  -0.68385  -0.65609  -0.61089
  Beta  occ. eigenvalues --   -0.52614  -0.44820
  Beta virt. eigenvalues --   -0.00211   0.04946   0.06816   0.09520   0.09996
  Beta virt. eigenvalues --    0.10893   0.11444   0.11627   0.13880   0.14251
  Beta virt. eigenvalues --    0.16709   0.17892   0.18202   0.19138   0.19697

 Mulliken charges and spin densities:
               1          2
     1  C    0.168190  -1.148671
     2  C   -0.168541   2.887057
     3  C    0.470199   1.239301
     4  H    0.147732   0.149071
     5  O   -0.617581  -0.126759
 Sum of Mulliken charges =  -0.00000   3.00000

 Dipole moment (field-independent basis, Debye):
    X=             -2.7092    Y=              0.4362    Z=              0.0005  Tot=              2.7441
 Quadrupole moment (field-independent basis, Debye-Ang):
   XX=            -25.1266   YY=            -21.6864   ZZ=            -22.6529
   XY=             -0.1378   XZ=              0.0017   YZ=              0.0013

 189.5047965\CCSD=-189.5147425\CCSD(T)=-189.5460291\S2=4.185622\S2-1=4.
 Normal termination of Gaussian 09 at Thu Mar  7 11:39:31 2019.
