 Gaussian 09, Revision E.01,
 Gaussian 09:  EM64L-G09RevE.01 30-Nov-2015

 --------------------------------------
 #p ccsd(t,maxcyc=200)/6-311++G(3df,2p)
 --------------------------------------

 -------------
 ccsd(t) iener
 -------------
 Symbolic Z-matrix:
 Charge =  1 Multiplicity = 3

                         Standard orientation:
 ---------------------------------------------------------------------
 Center     Atomic      Atomic             Coordinates (Angstroms)
 Number     Number       Type             X           Y           Z
 ---------------------------------------------------------------------
      1          6           0        0.428037   -0.283028    0.000071
      2          6           0       -0.836837    0.053770   -0.000048
      3          6           0       -2.074975    0.067010    0.000010
      4          1           0        1.885945    0.954907    0.000139
      5          8           0        1.627088    0.002322   -0.000043
 ---------------------------------------------------------------------

 SCF Done:  E(UHF) =  -188.600797785     A.U. after   23 cycles
 E2 =    -0.5531707610D+00 EUMP2 =    -0.18915396854574D+03
 CCSD(T)
 CCSD(T)= -0.18922671309D+03

 The electronic state is 3-A.
 Alpha  occ. eigenvalues --  -20.93746 -11.67072 -11.59951 -11.52086  -1.76906
 Alpha  occ. eigenvalues --   -1.36731  -1.24636  -1.13205  -0.96906  -0.88746
 Alpha  occ. eigenvalues --   -0.88277  -0.77798  -0.72646  -0.67670
 Alpha virt. eigenvalues --   -0.22882  -0.12936  -0.06836  -0.05194  -0.04621
 Alpha virt. eigenvalues --   -0.04426  -0.02466  -0.01319  -0.00291  -0.00061
 Alpha virt. eigenvalues --    0.01998   0.04199   0.04890   0.05845   0.08439

  Beta  occ. eigenvalues --  -20.94309 -11.64486 -11.53977 -11.53033  -1.77378
  Beta  occ. eigenvalues --   -1.35491  -1.16517  -1.10074  -0.93760  -0.93027
  Beta  occ. eigenvalues --   -0.71580  -0.71409
  Beta virt. eigenvalues --   -0.19722  -0.16394  -0.15500  -0.10977  -0.06403
  Beta virt. eigenvalues --   -0.05005  -0.04465  -0.02127  -0.01633  -0.00492
  Beta virt. eigenvalues --   -0.00010   0.02079   0.03156   0.05349   0.05434

 Mulliken charges and spin densities:
               1          2
     1  C    0.622375   0.901442
     2  C    0.542245  -1.184934
     3  C    0.030202   2.394014
     4  H    0.334271   0.065120
     5  O   -0.529092  -0.175642
 Sum of Mulliken charges =   1.00000   2.00000

 Dipole moment (field-independent basis, Debye):
    X=             -0.1906    Y=              1.7135    Z=              0.0006  Tot=              1.7241
 Quadrupole moment (field-independent basis, Debye-Ang):
   XX=             -5.2417   YY=            -17.9713   ZZ=            -19.7066
   XY=              3.6139   XZ=              0.0007   YZ=              0.0004

 -189.1820285\CCSD=-189.1950347\CCSD(T)=-189.2267131\S2=2.590645\S2-1=2
 Normal termination of Gaussian 09 at Thu Mar  7 11:34:40 2019.
