 Gaussian 09, Revision E.01,
 Gaussian 09:  EM64L-G09RevE.01 30-Nov-2015

 --------------------------------------
 #p ccsd(t,maxcyc=200)/6-311++G(3df,2p)
 --------------------------------------

 -------------
 ccsd(t) iener
 -------------
 Symbolic Z-matrix:
 Charge =  1 Multiplicity = 3

                         Standard orientation:
 ---------------------------------------------------------------------
 Center     Atomic      Atomic             Coordinates (Angstroms)
 Number     Number       Type             X           Y           Z
 ---------------------------------------------------------------------
      1          6           0        0.434645    0.301322   -0.000004
      2          6           0       -0.837288   -0.045578    0.000008
      3          6           0       -2.071834   -0.049041   -0.000004
      4          1           0        2.321584    0.419835    0.000012
      5          8           0        1.565660   -0.207507   -0.000002
 ---------------------------------------------------------------------

 SCF Done:  E(UHF) =  -188.605497645     A.U. after   24 cycles
 E2 =    -0.5534745820D+00 EUMP2 =    -0.18915897222739D+03
 CCSD(T)
 CCSD(T)= -0.18923228121D+03

 The electronic state is 3-A.
 Alpha  occ. eigenvalues --  -20.93669 -11.67138 -11.59622 -11.51595  -1.76861
 Alpha  occ. eigenvalues --   -1.36496  -1.24962  -1.09229  -1.00370  -0.88479
 Alpha  occ. eigenvalues --   -0.87992  -0.77395  -0.72399  -0.68518
 Alpha virt. eigenvalues --   -0.22646  -0.12175  -0.07481  -0.05202  -0.04874
 Alpha virt. eigenvalues --   -0.04595  -0.02230  -0.01488  -0.00393   0.00626
 Alpha virt. eigenvalues --    0.01656   0.04039   0.05149   0.08325   0.08869

  Beta  occ. eigenvalues --  -20.94070 -11.64585 -11.53455 -11.52756  -1.76880
  Beta  occ. eigenvalues --   -1.35309  -1.17125  -1.07030  -0.93997  -0.92727
  Beta  occ. eigenvalues --   -0.71261  -0.70923
  Beta virt. eigenvalues --   -0.19490  -0.17265  -0.15534  -0.11094  -0.06164
  Beta virt. eigenvalues --   -0.05267  -0.04999  -0.01513  -0.01391  -0.00111
  Beta virt. eigenvalues --   -0.00036   0.03042   0.03107   0.04940   0.07639

 Mulliken charges and spin densities:
               1          2
     1  C    0.446681   0.845195
     2  C    0.562541  -1.178136
     3  C    0.122807   2.428706
     4  H    0.342113   0.022961
     5  O   -0.474142  -0.118726
 Sum of Mulliken charges =   1.00000   2.00000

 Dipole moment (field-independent basis, Debye):
    X=              0.7925    Y=              1.4571    Z=              0.0000  Tot=              1.6587
 Quadrupole moment (field-independent basis, Debye-Ang):
   XX=             -0.5027   YY=            -20.1136   ZZ=            -19.7479
   XY=              3.5098   XZ=              0.0001   YZ=              0.0000

 Q=-189.1870576\CCSD=-189.2003585\CCSD(T)=-189.2322812\S2=2.599969\S2-1
 Normal termination of Gaussian 09 at Thu Mar  7 11:38:49 2019.
