 Gaussian 09, Revision E.01,
 Gaussian 09:  EM64L-G09RevE.01 30-Nov-2015

 --------------------------------------
 #p ccsd(t,maxcyc=200)/6-311++G(3df,2p)
 --------------------------------------

 -------------
 ccsd(t) iener
 -------------
 Symbolic Z-matrix:
 Charge =  1 Multiplicity = 1

                         Standard orientation:
 ---------------------------------------------------------------------
 Center     Atomic      Atomic             Coordinates (Angstroms)
 Number     Number       Type             X           Y           Z
 ---------------------------------------------------------------------
      1          6           0       -1.755866   -0.518088    0.000004
      2          6           0        0.550045    0.096296   -0.000017
      3          6           0       -0.788853    0.405761   -0.000004
      4          1           0       -1.120574    1.455683    0.000032
      5          8           0        1.636077   -0.169938    0.000009
 ---------------------------------------------------------------------

 SCF Done:  E(RHF) =  -188.663616874     A.U. after   16 cycles
 E2 =    -0.6208273027D+00 EUMP2 =    -0.18928444417688D+03
 CCSD(T)
 CCSD(T)= -0.18933566607D+03

 The electronic state is 1-A.
 Alpha  occ. eigenvalues --  -20.96834 -11.72041 -11.64308 -11.54830  -1.81812
 Alpha  occ. eigenvalues --   -1.41084  -1.15977  -1.04775  -0.97771  -0.94783
 Alpha  occ. eigenvalues --   -0.90324  -0.75217  -0.70996
 Alpha virt. eigenvalues --   -0.22312  -0.20722  -0.14998  -0.10989  -0.07630
 Alpha virt. eigenvalues --   -0.05679  -0.04895  -0.03728  -0.01837  -0.00930
 Alpha virt. eigenvalues --   -0.00629  -0.00243   0.01985   0.03646   0.04182

 Mulliken charges:
               1
     1  C   -0.114192
     2  C    0.938422
     3  C    0.455168
     4  H    0.204305
     5  O   -0.483704
 Sum of Mulliken charges =   1.00000

 Dipole moment (field-independent basis, Debye):
    X=             -1.4515    Y=              1.6926    Z=             -0.0000  Tot=              2.2297
 Quadrupole moment (field-independent basis, Debye-Ang):
   XX=            -15.6697   YY=            -16.5858   ZZ=            -20.4167
   XY=             -2.2515   XZ=             -0.0001   YZ=              0.0001

 .2924387\MP4SDQ=-189.3034325\CCSD=-189.3015829\CCSD(T)=-189.3356661\RM
 Normal termination of Gaussian 09 at Thu Mar  7 11:12:59 2019.
