 Gaussian 09, Revision E.01,
 Gaussian 09:  EM64L-G09RevE.01 30-Nov-2015

 --------------------------------------
 #p ccsd(t,maxcyc=200)/6-311++G(3df,2p)
 --------------------------------------

 -------------
 ccsd(t) iener
 -------------
 Symbolic Z-matrix:
 Charge =  1 Multiplicity = 1

                         Standard orientation:
 ---------------------------------------------------------------------
 Center     Atomic      Atomic             Coordinates (Angstroms)
 Number     Number       Type             X           Y           Z
 ---------------------------------------------------------------------
      1          6           0        0.615086    0.156381    0.217805
      2          6           0       -0.607430   -0.153510   -0.215871
      3          6           0        1.722353    0.436146    0.611382
      4          1           0        2.707520    0.687414    0.960432
      5          8           0       -1.635946   -0.415189   -0.580041
 ---------------------------------------------------------------------

 SCF Done:  E(RHF) =  -188.728509740     A.U. after   13 cycles
 E2 =    -0.6588682421D+00 EUMP2 =    -0.18938737798167D+03
 CCSD(T)
 CCSD(T)= -0.18942130583D+03

 The electronic state is 1-A.
 Alpha  occ. eigenvalues --  -20.95827 -11.71513 -11.59548 -11.53497  -1.80439
 Alpha  occ. eigenvalues --   -1.37616  -1.21621  -1.04024  -1.00115  -0.93207
 Alpha  occ. eigenvalues --   -0.93207  -0.71098  -0.71098
 Alpha virt. eigenvalues --   -0.21062  -0.21062  -0.10381  -0.07881  -0.05444
 Alpha virt. eigenvalues --   -0.05444  -0.03586  -0.01307  -0.01307   0.00287
 Alpha virt. eigenvalues --    0.02325   0.04224   0.04224   0.07489   0.08209

 Mulliken charges:
               1
     1  C    0.133426
     2  C    0.380461
     3  C    0.650895
     4  H    0.395225
     5  O   -0.560007
 Sum of Mulliken charges =   1.00000

 Dipole moment (field-independent basis, Debye):
    X=              3.4760    Y=              0.8835    Z=              1.2321  Tot=              3.7923
 Quadrupole moment (field-independent basis, Debye-Ang):
   XX=             -5.3867   YY=            -18.7832   ZZ=            -17.8997
   XY=              3.6294   XZ=              5.0814   YZ=              1.2882

 .373662\MP4SDQ=-189.3865105\CCSD=-189.3827457\CCSD(T)=-189.4213058\RMS
 Normal termination of Gaussian 09 at Thu Mar  7 11:11:28 2019.
