 Gaussian 09, Revision E.01,
 Gaussian 09:  EM64L-G09RevE.01 30-Nov-2015

 --------------------------------------
 #p ccsd(t,maxcyc=200)/6-311++G(3df,2p)
 --------------------------------------

 -------------
 ccsd(t) iener
 -------------
 Symbolic Z-matrix:
 Charge =  1 Multiplicity = 1

                         Standard orientation:
 ---------------------------------------------------------------------
 Center     Atomic      Atomic             Coordinates (Angstroms)
 Number     Number       Type             X           Y           Z
 ---------------------------------------------------------------------
      1          6           0       -0.825395   -0.005420   -0.000001
      2          6           0        0.417752    0.003593   -0.000014
      3          6           0       -2.138358    0.020262    0.000006
      4          1           0        2.216918    0.692306    0.000007
      5          8           0        1.632387   -0.100365    0.000007
 ---------------------------------------------------------------------

 SCF Done:  E(RHF) =  -188.606192052     A.U. after   18 cycles
 E2 =    -0.6361755381D+00 EUMP2 =    -0.18924236758965D+03
 CCSD(T)
 CCSD(T)= -0.18928972447D+03

 The electronic state is 1-A.
 Alpha  occ. eigenvalues --  -20.96035 -11.70547 -11.63034 -11.50050  -1.80302
 Alpha  occ. eigenvalues --   -1.36942  -1.22131  -1.14959  -0.98074  -0.94618
 Alpha  occ. eigenvalues --   -0.74264  -0.70464  -0.69151
 Alpha virt. eigenvalues --   -0.24126  -0.22614  -0.13030  -0.07237  -0.05349
 Alpha virt. eigenvalues --   -0.05309  -0.02427  -0.01084   0.00029   0.00195
 Alpha virt. eigenvalues --    0.03731   0.04150   0.04696   0.07286   0.08832

 Mulliken charges:
               1
     1  C    1.072695
     2  C    0.432221
     3  C   -0.282877
     4  H    0.370089
     5  O   -0.592127
 Sum of Mulliken charges =   1.00000

 Dipole moment (field-independent basis, Debye):
    X=              2.4816    Y=              1.6624    Z=             -0.0000  Tot=              2.9870
 Quadrupole moment (field-independent basis, Debye-Ang):
   XX=             -7.3207   YY=            -18.5277   ZZ=            -20.2238
   XY=              4.1899   XZ=             -0.0000   YZ=              0.0000

 276\MP4SDQ=-189.2508104\CCSD=-189.248973\CCSD(T)=-189.2897245\RMSD=8.9
 Normal termination of Gaussian 09 at Thu Mar  7 11:12:11 2019.
