 Gaussian 09, Revision E.01,
 Gaussian 09:  EM64L-G09RevE.01 30-Nov-2015

 --------------------------------------
 #p ccsd(t,maxcyc=200)/6-311++G(3df,2p)
 --------------------------------------

 -------------
 ccsd(t) iener
 -------------
 Symbolic Z-matrix:
 Charge =  1 Multiplicity = 1

                         Standard orientation:
 ---------------------------------------------------------------------
 Center     Atomic      Atomic             Coordinates (Angstroms)
 Number     Number       Type             X           Y           Z
 ---------------------------------------------------------------------
      1          6           0        1.003147    0.002873    0.000009
      2          6           0       -1.549679    0.578887   -0.000007
      3          6           0       -1.579694   -0.837694   -0.000001
      4          6           0       -0.365860   -0.039732    0.000004
      5          1           0       -2.037890    1.544900    0.000013
      6          8           0        2.123801    0.028637   -0.000005
 ---------------------------------------------------------------------

 SCF Done:  E(RHF) =  -226.520320538     A.U. after   16 cycles
 E2 =    -0.7809502747D+00 EUMP2 =    -0.22730127081227D+03
 CCSD(T)
 CCSD(T)= -0.22735265766D+03

 The electronic state is 1-A.
 Alpha  occ. eigenvalues --  -20.97703 -11.72510 -11.57245 -11.57058 -11.53644
 Alpha  occ. eigenvalues --   -1.82088  -1.49264  -1.26638  -1.05655  -1.04516
 Alpha  occ. eigenvalues --   -0.95178  -0.94143  -0.89313  -0.75296  -0.74859
 Alpha  occ. eigenvalues --   -0.62828
 Alpha virt. eigenvalues --   -0.23952  -0.16476  -0.10676  -0.09748  -0.07664
 Alpha virt. eigenvalues --   -0.06170  -0.05508  -0.03309  -0.02465  -0.01725
 Alpha virt. eigenvalues --    0.00182   0.01545   0.02512   0.03227   0.03974

 Mulliken charges:
               1
     1  C    0.756588
     2  C    0.309384
     3  C   -0.282838
     4  C    0.423966
     5  H    0.308868
     6  O   -0.515968
 Sum of Mulliken charges =   1.00000

 Dipole moment (field-independent basis, Debye):
    X=             -0.1117    Y=              3.0111    Z=              0.0000  Tot=              3.0132
 Quadrupole moment (field-independent basis, Debye-Ang):
   XX=            -16.8736   YY=            -24.0159   ZZ=            -23.9950
   XY=             -6.5626   XZ=              0.0000   YZ=              0.0000

 036\CCSD(T)=-227.3526577\RMSD=9.005e-09\PG=C01 [X(C4H1O1)]\\@
 Normal termination of Gaussian 09 at Thu Mar  7 13:21:50 2019.
