 Gaussian 09, Revision E.01,
 Gaussian 09:  EM64L-G09RevE.01 30-Nov-2015

 --------------------------------------
 #p ccsd(t,maxcyc=200)/6-311++G(3df,2p)
 --------------------------------------

 -------------
 ccsd(t) iener
 -------------
 Symbolic Z-matrix:
 Charge =  0 Multiplicity = 2

                         Standard orientation:
 ---------------------------------------------------------------------
 Center     Atomic      Atomic             Coordinates (Angstroms)
 Number     Number       Type             X           Y           Z
 ---------------------------------------------------------------------
      1          6           0        0.318398    0.240377    0.000238
      2          6           0       -1.085837    0.429717    0.000555
      3          6           0        1.606600    0.653390   -0.000869
      4          6           0       -2.057089   -0.449966   -0.000816
      5          1           0       -1.486449    1.450452    0.001706
      6          8           0        1.099252   -0.836445    0.000455
 ---------------------------------------------------------------------

 SCF Done:  E(UHF) =  -226.684073299     A.U. after   35 cycles
 E2 =    -0.7703499784D+00 EUMP2 =    -0.22745442327716D+03
 CCSD(T)
 CCSD(T)= -0.22752861836D+03

 The electronic state is 2-A.
 Alpha  occ. eigenvalues --  -20.67651 -11.36450 -11.35068 -11.35047 -11.28699
 Alpha  occ. eigenvalues --   -1.51546  -1.13291  -1.00854  -0.86917  -0.74988
 Alpha  occ. eigenvalues --   -0.72105  -0.66016  -0.56509  -0.50937  -0.49700
 Alpha  occ. eigenvalues --   -0.47143  -0.37438
 Alpha virt. eigenvalues --    0.01857   0.03613   0.04054   0.08164   0.09241
 Alpha virt. eigenvalues --    0.10191   0.11151   0.12355   0.12403   0.14533
 Alpha virt. eigenvalues --    0.14894   0.15292   0.16061   0.17201   0.19188

  Beta  occ. eigenvalues --  -20.65004 -11.35703 -11.34695 -11.34207 -11.29544
  Beta  occ. eigenvalues --   -1.46111  -1.13417  -0.95175  -0.85223  -0.74009
  Beta  occ. eigenvalues --   -0.65096  -0.57307  -0.54058  -0.49194  -0.46047
  Beta  occ. eigenvalues --   -0.44571
  Beta virt. eigenvalues --    0.02544   0.02965   0.03644   0.08169   0.08343
  Beta virt. eigenvalues --    0.09335   0.11288   0.12260   0.12514   0.13489
  Beta virt. eigenvalues --    0.14626   0.15287   0.15352   0.16122   0.17221

 Mulliken charges and spin densities:
               1          2
     1  C    0.871485   0.428388
     2  C    0.491924  -0.476962
     3  C   -0.425234   0.183940
     4  C   -0.468902   0.397562
     5  H    0.148619   0.016395
     6  O   -0.617892   0.450676
 Sum of Mulliken charges =  -0.00000   1.00000

 Dipole moment (field-independent basis, Debye):
    X=             -1.7574    Y=              1.8692    Z=              0.0029  Tot=              2.5656
 Quadrupole moment (field-independent basis, Debye-Ang):
   XX=            -36.1172   YY=            -28.4370   ZZ=            -29.1415
   XY=             -4.7485   XZ=             -0.0031   YZ=              0.0050

 92\PMP3-0=-227.4773156\MP4SDQ=-227.4831243\CCSD=-227.4839513\CCSD(T)=-
 Normal termination of Gaussian 09 at Thu Mar  7 12:52:24 2019.
