 Gaussian 09, Revision E.01,
 Gaussian 09:  EM64L-G09RevE.01 30-Nov-2015

 --------------------------------------
 #p ccsd(t,maxcyc=200)/6-311++G(3df,2p)
 --------------------------------------

 -------------
 ccsd(t) iener
 -------------
 Symbolic Z-matrix:
 Charge =  1 Multiplicity = 1

                         Standard orientation:
 ---------------------------------------------------------------------
 Center     Atomic      Atomic             Coordinates (Angstroms)
 Number     Number       Type             X           Y           Z
 ---------------------------------------------------------------------
      1          6           0       -0.703773    0.121258   -0.039878
      2          6           0        1.368395    0.073772    0.220637
      3          6           0        0.451483    0.973450   -0.193188
      4          6           0       -2.021446   -0.019616    0.166562
      5          1           0        2.393384   -0.173973    0.454356
      6          8           0        0.379834   -0.839902   -0.172394
 ---------------------------------------------------------------------

 SCF Done:  E(RHF) =  -226.291207061     A.U. after   21 cycles
 E2 =    -0.7756306880D+00 EUMP2 =    -0.22706683774880D+03
 CCSD(T)
 CCSD(T)= -0.22714448970D+03

 The electronic state is 1-A.
 Alpha  occ. eigenvalues --  -20.96060 -11.66327 -11.62771 -11.59121 -11.58015
 Alpha  occ. eigenvalues --   -1.78140  -1.32887  -1.30534  -1.14663  -0.97235
 Alpha  occ. eigenvalues --   -0.95634  -0.93413  -0.85848  -0.70978  -0.70145
 Alpha  occ. eigenvalues --   -0.63072
 Alpha virt. eigenvalues --   -0.26021  -0.20876  -0.16793  -0.09788  -0.06854
 Alpha virt. eigenvalues --   -0.05949  -0.05157  -0.03878  -0.02102  -0.01413
 Alpha virt. eigenvalues --   -0.00227   0.00235   0.01133   0.02357   0.02859

 Mulliken charges:
               1
     1  C    0.785185
     2  C    0.535987
     3  C    0.177050
     4  C   -0.278713
     5  H    0.353637
     6  O   -0.573146
 Sum of Mulliken charges =   1.00000

 Dipole moment (field-independent basis, Debye):
    X=              3.7506    Y=              1.2206    Z=              1.3582  Tot=              4.1716
 Quadrupole moment (field-independent basis, Debye-Ang):
   XX=            -15.2081   YY=            -22.7715   ZZ=            -26.7255
   XY=             -0.4123   XZ=              2.6576   YZ=              0.6992

 0940698\CCSD(T)=-227.1444897\RMSD=1.789e-09\PG=C01 [X(C4H1O1)]\\@
 Normal termination of Gaussian 09 at Thu Mar  7 13:33:40 2019.
