 Gaussian 09, Revision E.01,
 Gaussian 09:  EM64L-G09RevE.01 30-Nov-2015

 --------------------------------------
 #p ccsd(t,maxcyc=200)/6-311++G(3df,2p)
 --------------------------------------

 -------------
 ccsd(t) iener
 -------------
 Symbolic Z-matrix:
 Charge =  1 Multiplicity = 1

                         Standard orientation:
 ---------------------------------------------------------------------
 Center     Atomic      Atomic             Coordinates (Angstroms)
 Number     Number       Type             X           Y           Z
 ---------------------------------------------------------------------
      1          6           0        2.633455   -0.211906    0.000056
      2          6           0       -1.347454    0.457069    0.000023
      3          6           0        0.134977    0.362739   -0.000081
      4          6           0        1.321236    0.007669   -0.000032
      5          1           0       -1.858739    1.424005    0.000153
      6          8           0       -1.824319   -0.639679    0.000006
 ---------------------------------------------------------------------

 SCF Done:  E(RHF) =  -226.433902305     A.U. after   19 cycles
 E2 =    -0.7803844594D+00 EUMP2 =    -0.22721428676416D+03
 CCSD(T)
 CCSD(T)= -0.22727546504D+03

 The electronic state is 1-A.
 Alpha  occ. eigenvalues --  -20.84068 -11.67453 -11.64761 -11.61130 -11.52411
 Alpha  occ. eigenvalues --   -1.67445  -1.38988  -1.24896  -1.14614  -0.98772
 Alpha  occ. eigenvalues --   -0.90971  -0.81006  -0.77686  -0.74094  -0.71595
 Alpha  occ. eigenvalues --   -0.70433
 Alpha virt. eigenvalues --   -0.28610  -0.26980  -0.11412  -0.10041  -0.06594
 Alpha virt. eigenvalues --   -0.05374  -0.04296  -0.02751  -0.01771  -0.01187
 Alpha virt. eigenvalues --    0.00647   0.00718   0.01811   0.03760   0.03803

 Mulliken charges:
               1
     1  C   -0.313550
     2  C    0.219075
     3  C    0.389215
     4  C    1.009280
     5  H    0.229133
     6  O   -0.533153
 Sum of Mulliken charges =   1.00000

 Dipole moment (field-independent basis, Debye):
    X=              2.5433    Y=              2.9412    Z=              0.0000  Tot=              3.8883
 Quadrupole moment (field-independent basis, Debye-Ang):
   XX=            -13.6042   YY=            -22.9969   ZZ=            -24.5874
   XY=             -5.4772   XZ=             -0.0002   YZ=              0.0001

 7.223879\CCSD(T)=-227.275465\RMSD=5.004e-09\PG=C01 [X(C4H1O1)]\\@
 Normal termination of Gaussian 09 at Thu Mar  7 13:30:51 2019.
