 Gaussian 09, Revision E.01,
 Gaussian 09:  EM64L-G09RevE.01 30-Nov-2015

 --------------------------------------
 #p ccsd(t,maxcyc=200)/6-311++G(3df,2p)
 --------------------------------------

 -------------
 ccsd(t) iener
 -------------
 Symbolic Z-matrix:
 Charge =  1 Multiplicity = 1

                         Standard orientation:
 ---------------------------------------------------------------------
 Center     Atomic      Atomic             Coordinates (Angstroms)
 Number     Number       Type             X           Y           Z
 ---------------------------------------------------------------------
      1          6           0        1.679978    0.491502   -0.000231
      2          6           0       -1.133576    0.513023    0.000168
      3          6           0       -1.914084   -0.576028   -0.000210
      4          6           0        0.232605    0.294549    0.000040
      5          1           0       -1.550618    1.524554    0.000173
      6          8           0        1.045136   -0.732853    0.000153
 ---------------------------------------------------------------------

 SCF Done:  E(RHF) =  -226.388282105     A.U. after   16 cycles
 E2 =    -0.7494009820D+00 EUMP2 =    -0.22713768308682D+03
 CCSD(T)
 CCSD(T)= -0.22720947181D+03

 The electronic state is 1-A.
 Alpha  occ. eigenvalues --  -20.98024 -11.67720 -11.64125 -11.62949 -11.51943
 Alpha  occ. eigenvalues --   -1.84609  -1.39060  -1.20759  -1.13467  -1.04139
 Alpha  occ. eigenvalues --   -0.93806  -0.91941  -0.83393  -0.74543  -0.69913
 Alpha  occ. eigenvalues --   -0.69676
 Alpha virt. eigenvalues --   -0.24147  -0.20505  -0.15231  -0.09483  -0.07138
 Alpha virt. eigenvalues --   -0.05426  -0.05002  -0.04300  -0.02593  -0.01368
 Alpha virt. eigenvalues --   -0.00329  -0.00011   0.01034   0.02008   0.03376

 Mulliken charges:
               1
     1  C   -0.044013
     2  C    0.549822
     3  C   -0.213869
     4  C    0.905170
     5  H    0.204769
     6  O   -0.401880
 Sum of Mulliken charges =   1.00000

 Dipole moment (field-independent basis, Debye):
    X=             -1.9476    Y=              1.8875    Z=              0.0003  Tot=              2.7121
 Quadrupole moment (field-independent basis, Debye-Ang):
   XX=            -18.6375   YY=            -23.9018   ZZ=            -24.9385
   XY=             -3.4724   XZ=             -0.0000   YZ=              0.0006

 61326\CCSD(T)=-227.2094718\RMSD=6.075e-09\PG=C01 [X(C4H1O1)]\\@
 Normal termination of Gaussian 09 at Thu Mar  7 13:28:32 2019.
