 Gaussian 09, Revision E.01,
 Gaussian 09:  EM64L-G09RevE.01 30-Nov-2015

 --------------------------------------
 #p ccsd(t,maxcyc=200)/6-311++G(3df,2p)
 --------------------------------------

 -------------
 ccsd(t) iener
 -------------
 Symbolic Z-matrix:
 Charge =  1 Multiplicity = 1

                         Standard orientation:
 ---------------------------------------------------------------------
 Center     Atomic      Atomic             Coordinates (Angstroms)
 Number     Number       Type             X           Y           Z
 ---------------------------------------------------------------------
      1          6           0       -0.447056   -1.026275    0.225268
      2          6           0       -0.403704    0.834571    0.068801
      3          6           0        2.028929   -0.028802   -0.150237
      4          6           0        0.722450    0.011242    0.088857
      5          1           0       -0.649273    1.810672    0.486034
      6          8           0       -1.344305   -0.069386   -0.235271
 ---------------------------------------------------------------------

 SCF Done:  E(RHF) =  -226.362944385     A.U. after   19 cycles
 E2 =    -0.7575559694D+00 EUMP2 =    -0.22712050035446D+03
 CCSD(T)
 CCSD(T)= -0.22719822609D+03

 The electronic state is 1-A.
 Alpha  occ. eigenvalues --  -20.94593 -11.69658 -11.64932 -11.62984 -11.52316
 Alpha  occ. eigenvalues --   -1.80716  -1.38417  -1.21721  -1.18738  -1.00648
 Alpha  occ. eigenvalues --   -0.95317  -0.88591  -0.88454  -0.74137  -0.69180
 Alpha  occ. eigenvalues --   -0.65988
 Alpha virt. eigenvalues --   -0.24266  -0.21746  -0.18262  -0.10015  -0.07880
 Alpha virt. eigenvalues --   -0.06851  -0.05287  -0.02433  -0.01517  -0.01322
 Alpha virt. eigenvalues --   -0.01081   0.00096   0.00874   0.02018   0.03591

 Mulliken charges:
               1
     1  C    0.040797
     2  C    0.329298
     3  C   -0.043384
     4  C    0.895604
     5  H    0.255909
     6  O   -0.478224
 Sum of Mulliken charges =   1.00000

 Dipole moment (field-independent basis, Debye):
    X=              0.4591    Y=              3.1014    Z=              0.4318  Tot=              3.1648
 Quadrupole moment (field-independent basis, Debye-Ang):
   XX=            -23.4941   YY=            -20.2001   ZZ=            -25.1880
   XY=             -2.2051   XZ=             -0.1692   YZ=              1.6612

 08\CCSD(T)=-227.1982261\RMSD=6.541e-09\PG=C01 [X(C4H1O1)]\\@
 Normal termination of Gaussian 09 at Thu Mar  7 13:27:19 2019.
