 Gaussian 09, Revision E.01,
 Gaussian 09:  EM64L-G09RevE.01 30-Nov-2015

 --------------------------------------
 #p ccsd(t,maxcyc=200)/6-311++G(3df,2p)
 --------------------------------------

 -------------
 ccsd(t) iener
 -------------
 Symbolic Z-matrix:
 Charge =  1 Multiplicity = 1

                         Standard orientation:
 ---------------------------------------------------------------------
 Center     Atomic      Atomic             Coordinates (Angstroms)
 Number     Number       Type             X           Y           Z
 ---------------------------------------------------------------------
      1          6           0       -0.000000    0.000000    0.514946
      2          1           0       -0.000000    0.000000    1.623595
      3          8           0        0.000000   -0.000000   -0.589159
 ---------------------------------------------------------------------

 SCF Done:  E(RHF) =  -113.009306365     A.U. after   10 cycles
 E2 =    -0.3644665011D+00 EUMP2 =    -0.11337377286657D+03
 CCSD(T)
 CCSD(T)= -0.11339153996D+03

 The electronic state is 1-SG.
 Alpha  occ. eigenvalues --  -21.03175 -11.76076  -1.87851  -1.19475  -1.08762
 Alpha  occ. eigenvalues --   -0.98140  -0.98140
 Alpha virt. eigenvalues --   -0.20150  -0.20150  -0.13518  -0.11722  -0.06043
 Alpha virt. eigenvalues --   -0.06043  -0.02063  -0.00559   0.09655   0.09655
 Alpha virt. eigenvalues --    0.10129   0.14286   0.17043   0.17043   0.24559

 Mulliken charges:
               1
     1  C    0.857479
     2  H    0.395599
     3  O   -0.253078
 Sum of Mulliken charges =   1.00000

 Dipole moment (field-independent basis, Debye):
    X=             -0.0000    Y=              0.0000    Z=              4.2427  Tot=              4.2427
 Quadrupole moment (field-independent basis, Debye-Ang):
   XX=             -8.7971   YY=             -8.7971   ZZ=             -3.2750
   XY=              0.0000   XZ=             -0.0000   YZ=              0.0000

 13.3771589\CCSD=-113.3744603\CCSD(T)=-113.39154\RMSD=1.803e-09\PG=C*V
 Normal termination of Gaussian 09 at Thu Mar  7 13:33:52 2019.
