 Gaussian 09, Revision E.01,
 Gaussian 09:  EM64L-G09RevE.01 30-Nov-2015

 --------------------------------------
 #p ccsd(t,maxcyc=200)/6-311++G(3df,2p)
 --------------------------------------

 -------------
 ccsd(t) iener
 -------------
 Symbolic Z-matrix:
 Charge =  1 Multiplicity = 1

                         Standard orientation:
 ---------------------------------------------------------------------
 Center     Atomic      Atomic             Coordinates (Angstroms)
 Number     Number       Type             X           Y           Z
 ---------------------------------------------------------------------
      1          6           0        0.000000   -0.000000   -0.761909
      2          1           0       -0.000000    0.000000    1.403795
      3          8           0       -0.000000    0.000000    0.395957
 ---------------------------------------------------------------------

 SCF Done:  E(RHF) =  -112.957527334     A.U. after   10 cycles
 E2 =    -0.3429371458D+00 EUMP2 =    -0.11330046448002D+03
 CCSD(T)
 CCSD(T)= -0.11332816615D+03

 The electronic state is 1-SG.
 Alpha  occ. eigenvalues --  -21.04082 -11.74748  -1.89153  -1.33716  -1.01048
 Alpha  occ. eigenvalues --   -1.01048  -0.87147
 Alpha virt. eigenvalues --   -0.18145  -0.18145  -0.15760  -0.08225  -0.05198
 Alpha virt. eigenvalues --   -0.05198  -0.02937  -0.01357   0.05870   0.05870
 Alpha virt. eigenvalues --    0.12088   0.15260   0.20639   0.20639   0.25224

 Mulliken charges:
               1
     1  C    0.531143
     2  H    0.639437
     3  O   -0.170580
 Sum of Mulliken charges =   1.00000

 Dipole moment (field-independent basis, Debye):
    X=             -0.0000    Y=              0.0000    Z=              2.3799  Tot=              2.3799
 Quadrupole moment (field-independent basis, Debye-Ang):
   XX=             -9.1812   YY=             -9.1812   ZZ=             -3.7353
   XY=              0.0000   XZ=             -0.0000   YZ=             -0.0000

 DQ=-113.3131117\CCSD=-113.3121683\CCSD(T)=-113.3281662\RMSD=2.205e-09\
 Normal termination of Gaussian 09 at Thu Mar  7 13:33:53 2019.
