 Gaussian 09, Revision E.01,
 Gaussian 09:  EM64L-G09RevE.01 30-Nov-2015

 --------------------------------------
 #p ccsd(t,maxcyc=200)/6-311++G(3df,2p)
 --------------------------------------

 -------------
 ccsd(t) iener
 -------------
 Symbolic Z-matrix:
 Charge =  1 Multiplicity = 3

                         Standard orientation:
 ---------------------------------------------------------------------
 Center     Atomic      Atomic             Coordinates (Angstroms)
 Number     Number       Type             X           Y           Z
 ---------------------------------------------------------------------
      1          6           0        0.065736    0.639087    0.000000
      2          1           0       -0.920299    1.157785    0.000000
      3          8           0        0.065736   -0.624038    0.000000
 ---------------------------------------------------------------------

 SCF Done:  E(UHF) =  -112.856314516     A.U. after   17 cycles
 E2 =    -0.2827518941D+00 EUMP2 =    -0.11313906640971D+03
 CCSD(T)
 CCSD(T)= -0.11317802972D+03

 The electronic state is 3-A'.
 Alpha  occ. eigenvalues --  -21.07736 -11.77841  -1.88202  -1.25374  -1.14414
 Alpha  occ. eigenvalues --   -1.04976  -0.98643  -0.84488
 Alpha virt. eigenvalues --   -0.26058  -0.12403  -0.08994  -0.07549  -0.06019
 Alpha virt. eigenvalues --   -0.01213   0.02055   0.05106   0.08013   0.08316
 Alpha virt. eigenvalues --    0.09354   0.14495   0.19809   0.21893   0.26078

  Beta  occ. eigenvalues --  -21.03274 -11.74814  -1.72457  -1.14901  -1.01119
  Beta  occ. eigenvalues --   -0.93671
  Beta virt. eigenvalues --   -0.36266  -0.21886  -0.17509  -0.11884  -0.08322
  Beta virt. eigenvalues --   -0.05632  -0.05164   0.00077   0.04675   0.06220
  Beta virt. eigenvalues --    0.08681   0.10896   0.11698   0.16496   0.22569

 Mulliken charges and spin densities:
               1          2
     1  C    0.750859   0.877185
     2  H    0.270099   0.092457
     3  O   -0.020958   1.030357
 Sum of Mulliken charges =   1.00000   2.00000

 Dipole moment (field-independent basis, Debye):
    X=             -0.6378    Y=              2.7261    Z=              0.0000  Tot=              2.7997
 Quadrupole moment (field-independent basis, Debye-Ang):
   XX=             -7.5097   YY=             -6.4292   ZZ=             -8.9960
   XY=             -1.4727   XZ=              0.0000   YZ=              0.0000

 624425\CCSD=-113.1651859\CCSD(T)=-113.1780297\S2=2.007588\S2-1=2.00083
 Normal termination of Gaussian 09 at Thu Mar  7 13:34:20 2019.
