 Gaussian 09, Revision E.01,
 Gaussian 09:  EM64L-G09RevE.01 30-Nov-2015

 --------------------------------------
 #p ccsd(t,maxcyc=200)/6-311++G(3df,2p)
 --------------------------------------

 -------------
 ccsd(t) iener
 -------------
 Symbolic Z-matrix:
 Charge =  0 Multiplicity = 2

                         Standard orientation:
 ---------------------------------------------------------------------
 Center     Atomic      Atomic             Coordinates (Angstroms)
 Number     Number       Type             X           Y           Z
 ---------------------------------------------------------------------
      1          6           0        0.059534    0.788139    0.000000
      2          1           0       -0.833472   -0.896973    0.000000
      3          8           0        0.059534   -0.478982    0.000000
 ---------------------------------------------------------------------

 SCF Done:  E(UHF) =  -113.240641420     A.U. after   15 cycles
 E2 =    -0.3465188975D+00 EUMP2 =    -0.11358716031763D+03
 CCSD(T)
 CCSD(T)= -0.11361815080D+03

 The electronic state is 2-A'.
 Alpha  occ. eigenvalues --  -20.66048 -11.31930  -1.48761  -0.91202  -0.72585
 Alpha  occ. eigenvalues --   -0.61625  -0.53957  -0.35622
 Alpha virt. eigenvalues --    0.03663   0.08148   0.11075   0.12219   0.13606
 Alpha virt. eigenvalues --    0.16643   0.22151   0.25818   0.27427   0.29618
 Alpha virt. eigenvalues --    0.36117   0.44824   0.48197   0.50918   0.57493

  Beta  occ. eigenvalues --  -20.66036 -11.29478  -1.47717  -0.87162  -0.67099
  Beta  occ. eigenvalues --   -0.62093  -0.47214
  Beta virt. eigenvalues --    0.03749   0.08670   0.09516   0.12204   0.13108
  Beta virt. eigenvalues --    0.18334   0.18339   0.24767   0.26520   0.27426
  Beta virt. eigenvalues --    0.30354   0.36426   0.46966   0.51585   0.52103

 Mulliken charges and spin densities:
               1          2
     1  C    0.066672   1.026672
     2  H    0.263082   0.065816
     3  O   -0.329753  -0.092488
 Sum of Mulliken charges =  -0.00000   1.00000

 Dipole moment (field-independent basis, Debye):
    X=             -1.6685    Y=             -2.0619    Z=              0.0000  Tot=              2.6524
 Quadrupole moment (field-independent basis, Debye-Ang):
   XX=            -11.0517   YY=            -13.4931   ZZ=            -11.3103
   XY=              1.8091   XZ=              0.0000   YZ=              0.0000

 \CCSD=-113.6034293\CCSD(T)=-113.6181508\S2=0.763136\S2-1=0.753374\S2A=
 Normal termination of Gaussian 09 at Thu Mar  7 12:53:25 2019.
