 Gaussian 09, Revision E.01,
 Gaussian 09:  EM64L-G09RevE.01 30-Nov-2015

 --------------------------------------
 #p ccsd(t,maxcyc=200)/6-311++G(3df,2p)
 --------------------------------------

 -------------
 ccsd(t) iener
 -------------
 Symbolic Z-matrix:
 Charge =  0 Multiplicity = 4

                         Standard orientation:
 ---------------------------------------------------------------------
 Center     Atomic      Atomic             Coordinates (Angstroms)
 Number     Number       Type             X           Y           Z
 ---------------------------------------------------------------------
      1          6           0        0.064318    0.706835    0.000000
      2          1           0       -0.900455    1.209968    0.000000
      3          8           0        0.064318   -0.681372    0.000000
 ---------------------------------------------------------------------

 SCF Done:  E(UHF) =  -113.173760261     A.U. after   16 cycles
 E2 =    -0.2889812949D+00 EUMP2 =    -0.11346274155629D+03
 CCSD(T)
 CCSD(T)= -0.11349910726D+03

 The electronic state is 4-A".
 Alpha  occ. eigenvalues --  -20.66951 -11.33174  -1.44601  -0.92385  -0.73525
 Alpha  occ. eigenvalues --   -0.65680  -0.65300  -0.48961  -0.38601
 Alpha virt. eigenvalues --    0.04704   0.09032   0.10628   0.11477   0.16596
 Alpha virt. eigenvalues --    0.24827   0.26119   0.28701   0.29030   0.30890
 Alpha virt. eigenvalues --    0.41441   0.42078   0.46833   0.52023   0.54819

  Beta  occ. eigenvalues --  -20.62045 -11.28095  -1.26242  -0.76016  -0.60680
  Beta  occ. eigenvalues --   -0.52596
  Beta virt. eigenvalues --   -0.00122   0.05066   0.08981   0.09420   0.11003
  Beta virt. eigenvalues --    0.15249   0.20497   0.21712   0.26116   0.29624
  Beta virt. eigenvalues --    0.29723   0.33277   0.34571   0.45896   0.47111

 Mulliken charges and spin densities:
               1          2
     1  C    0.181294   1.919065
     2  H    0.143622   0.014895
     3  O   -0.324917   1.066039
 Sum of Mulliken charges =   0.00000   3.00000

 Dipole moment (field-independent basis, Debye):
    X=             -0.5003    Y=              1.1525    Z=              0.0000  Tot=              1.2564
 Quadrupole moment (field-independent basis, Debye-Ang):
   XX=            -10.1112   YY=            -11.9286   ZZ=            -12.6545
   XY=             -0.9317   XZ=              0.0000   YZ=              0.0000

 1\CCSD=-113.4886111\CCSD(T)=-113.4991073\S2=3.766112\S2-1=3.753535\S2A
 Normal termination of Gaussian 09 at Thu Mar  7 12:53:22 2019.
