 Gaussian 09, Revision E.01,
 Gaussian 09:  EM64L-G09RevE.01 30-Nov-2015

 --------------------------------------
 #p ccsd(t,maxcyc=200)/6-311++G(3df,2p)
 --------------------------------------

 -------------
 ccsd(t) iener
 -------------
 Symbolic Z-matrix:
 Charge =  1 Multiplicity = 3

                         Standard orientation:
 ---------------------------------------------------------------------
 Center     Atomic      Atomic             Coordinates (Angstroms)
 Number     Number       Type             X           Y           Z
 ---------------------------------------------------------------------
      1          6           0        0.059211    0.764095    0.000000
      2          1           0       -0.828952   -0.919405    0.000000
      3          8           0        0.059211   -0.458146    0.000000
 ---------------------------------------------------------------------

 SCF Done:  E(UHF) =  -112.844156120     A.U. after   15 cycles
 E2 =    -0.3045298458D+00 EUMP2 =    -0.11314868596614D+03
 CCSD(T)
 CCSD(T)= -0.11317349001D+03

 The electronic state is 3-A'.
 Alpha  occ. eigenvalues --  -21.01210 -11.77894  -1.84143  -1.27667  -1.09362
 Alpha  occ. eigenvalues --   -1.02188  -0.93357  -0.75949
 Alpha virt. eigenvalues --   -0.24867  -0.13963  -0.08276  -0.06631  -0.06039
 Alpha virt. eigenvalues --   -0.03716   0.01448   0.06787   0.07904   0.09298
 Alpha virt. eigenvalues --    0.13671   0.16870   0.19855   0.22879   0.29347

  Beta  occ. eigenvalues --  -21.01541 -11.70494  -1.82661  -1.19760  -0.99039
  Beta  occ. eigenvalues --   -0.97519
  Beta virt. eigenvalues --   -0.33248  -0.15293  -0.14244  -0.12799  -0.05805
  Beta virt. eigenvalues --   -0.04983  -0.04135  -0.02432   0.03612   0.07200
  Beta virt. eigenvalues --    0.07491   0.10134   0.16013   0.19722   0.25561

 Mulliken charges and spin densities:
               1          2
     1  C    0.848131   2.162060
     2  H    0.353171   0.072359
     3  O   -0.201302  -0.234418
 Sum of Mulliken charges =   1.00000   2.00000

 Dipole moment (field-independent basis, Debye):
    X=             -1.6745    Y=              1.1808    Z=              0.0000  Tot=              2.0490
 Quadrupole moment (field-independent basis, Debye-Ang):
   XX=             -7.9160   YY=             -4.8025   ZZ=             -8.8566
   XY=              2.3889   XZ=              0.0000   YZ=              0.0000

 76\CCSD=-113.160354\CCSD(T)=-113.17349\S2=2.051829\S2-1=2.035197\S2A=2
 Normal termination of Gaussian 09 at Thu Mar  7 13:34:12 2019.
