 Gaussian 09, Revision E.01,
 Gaussian 09:  EM64L-G09RevE.01 30-Nov-2015

 --------------------------------------
 #p ccsd(t,maxcyc=200)/6-311++G(3df,2p)
 --------------------------------------

 -------------
 ccsd(t) iener
 -------------
 Symbolic Z-matrix:
 Charge =  0 Multiplicity = 2

                         Standard orientation:
 ---------------------------------------------------------------------
 Center     Atomic      Atomic             Coordinates (Angstroms)
 Number     Number       Type             X           Y           Z
 ---------------------------------------------------------------------
      1          6           0        0.061693    0.582189    0.000000
      2          1           0       -0.863706    1.218725    0.000000
      3          8           0        0.061693   -0.588982    0.000000
 ---------------------------------------------------------------------

 SCF Done:  E(UHF) =  -113.292631066     A.U. after   17 cycles
 E2 =    -0.3681721858D+00 EUMP2 =    -0.11366080325170D+03
 CCSD(T)
 CCSD(T)= -0.11368478970D+03

 The electronic state is 2-A'.
 Alpha  occ. eigenvalues --  -20.62311 -11.35567  -1.46673  -0.85946  -0.71650
 Alpha  occ. eigenvalues --   -0.65517  -0.58145  -0.39183
 Alpha virt. eigenvalues --    0.04368   0.07416   0.09306   0.10817   0.15558
 Alpha virt. eigenvalues --    0.16141   0.25199   0.26702   0.30388   0.31023
 Alpha virt. eigenvalues --    0.33691   0.42298   0.46629   0.49790   0.54686

  Beta  occ. eigenvalues --  -20.61116 -11.33657  -1.43850  -0.79899  -0.67026
  Beta  occ. eigenvalues --   -0.58187  -0.53006
  Beta virt. eigenvalues --    0.04514   0.06381   0.08062   0.09462   0.14071
  Beta virt. eigenvalues --    0.17614   0.17615   0.26915   0.27879   0.30349
  Beta virt. eigenvalues --    0.31712   0.34197   0.43876   0.48352   0.51265

 Mulliken charges and spin densities:
               1          2
     1  C    0.384257   0.670303
     2  H    0.133582   0.189921
     3  O   -0.517840   0.139776
 Sum of Mulliken charges =  -0.00000   1.00000

 Dipole moment (field-independent basis, Debye):
    X=             -0.9475    Y=              1.9154    Z=              0.0000  Tot=              2.1369
 Quadrupole moment (field-independent basis, Debye-Ang):
   XX=            -11.3576   YY=            -11.4978   ZZ=            -10.9420
   XY=             -1.1045   XZ=              0.0000   YZ=              0.0000

 93\CCSD=-113.667666\CCSD(T)=-113.6847897\S2=0.765494\S2-1=0.754155\S2A
 Normal termination of Gaussian 09 at Thu Mar  7 12:53:16 2019.
