 Gaussian 09, Revision E.01,
 Gaussian 09:  EM64L-G09RevE.01 30-Nov-2015

 --------------------------------------
 #p ccsd(t,maxcyc=200)/6-311++G(3df,2p)
 --------------------------------------

 -------------
 ccsd(t) iener
 -------------
 Symbolic Z-matrix:
 Charge =  1 Multiplicity = 3

                         Standard orientation:
 ---------------------------------------------------------------------
 Center     Atomic      Atomic             Coordinates (Angstroms)
 Number     Number       Type             X           Y           Z
 ---------------------------------------------------------------------
      1          1           0        0.000000    0.000000   -0.921200
      2          8           0        0.000000    0.000000    0.115150
 ---------------------------------------------------------------------

 SCF Done:  E(UHF) =  -74.9999030796     A.U. after   11 cycles
 E2 =    -0.1422168261D+00 EUMP2 =    -0.75142119905735D+02
 CCSD(T)
 CCSD(T)= -0.75163643613D+02

 The electronic state is 3-SG.
 Alpha  occ. eigenvalues --  -21.25441  -1.96492  -1.21393  -1.21393  -1.20008
 Alpha virt. eigenvalues --   -0.19756  -0.05907  -0.03511  -0.03511  -0.01158
 Alpha virt. eigenvalues --    0.04936   0.29212   0.41213   0.41213   0.52751
 Alpha virt. eigenvalues --    0.52751   0.72036   0.75766   0.75766   0.86372

  Beta  occ. eigenvalues --  -21.16483  -1.62888  -1.10768
  Beta virt. eigenvalues --   -0.33993  -0.33993  -0.18115  -0.04952  -0.00216
  Beta virt. eigenvalues --    0.01433   0.01433   0.05748   0.30251   0.43997
  Beta virt. eigenvalues --    0.43997   0.59882   0.59882   0.74756   0.88644

 Mulliken charges and spin densities:
               1          2
     1  H    0.457949  -0.106252
     2  O    0.542051   2.106252
 Sum of Mulliken charges =   1.00000   2.00000

 Dipole moment (field-independent basis, Debye):
    X=              0.0000    Y=              0.0000    Z=             -2.1355  Tot=              2.1355
 Quadrupole moment (field-independent basis, Debye-Ang):
   XX=             -4.0549   YY=             -4.0549   ZZ=             -2.1772
   XY=              0.0000   XZ=              0.0000   YZ=              0.0000

 93933\MP4SDQ=-75.1597058\CCSD=-75.16059\CCSD(T)=-75.1636436\S2=2.01451
 Normal termination of Gaussian 09 at Thu Mar  7 13:33:47 2019.
