 Gaussian 09, Revision E.01,
 Gaussian 09:  EM64L-G09RevE.01 30-Nov-2015

 --------------------------------------
 #p ccsd(t,maxcyc=200)/6-311++G(3df,2p)
 --------------------------------------

 -------------
 ccsd(t) iener
 -------------
 Symbolic Z-matrix:
 Charge =  1 Multiplicity = 1

                         Standard orientation:
 ---------------------------------------------------------------------
 Center     Atomic      Atomic             Coordinates (Angstroms)
 Number     Number       Type             X           Y           Z
 ---------------------------------------------------------------------
      1          1           0        0.000000    0.000000   -0.922064
      2          8           0        0.000000    0.000000    0.115258
 ---------------------------------------------------------------------

 SCF Done:  E(RHF) =  -74.8615492343     A.U. after    9 cycles
 E2 =    -0.1646563562D+00 EUMP2 =    -0.75026205590519D+02
 CCSD(T)
 CCSD(T)= -0.75070281165D+02

 Unable to determine electronic state:  an orbital has unidentified symmetry.
 Alpha  occ. eigenvalues --  -21.24278  -1.80625  -1.16881  -1.07812
 Alpha virt. eigenvalues --   -0.46479  -0.19297  -0.05766  -0.02080  -0.01332
 Alpha virt. eigenvalues --   -0.00837   0.05211   0.29207   0.41596   0.42807
 Alpha virt. eigenvalues --    0.55946   0.55984   0.72927   0.80771   0.82298

 Mulliken charges:
               1
     1  H    0.470998
     2  O    0.529002
 Sum of Mulliken charges =   1.00000

 Dipole moment (field-independent basis, Debye):
    X=              0.0000    Y=              0.0000    Z=             -2.1635  Tot=              2.1635
 Quadrupole moment (field-independent basis, Debye-Ang):
   XX=             -5.1091   YY=             -3.2461   ZZ=             -2.1445
   XY=              0.0000   XZ=              0.0000   YZ=              0.0000

 49126\MP4SDQ=-75.0497706\CCSD=-75.0597095\CCSD(T)=-75.0702812\RMSD=1.3
 Normal termination of Gaussian 09 at Thu Mar  7 13:33:45 2019.
