 Gaussian 09, Revision E.01,
 Gaussian 09:  EM64L-G09RevE.01 30-Nov-2015

 --------------------------------------
 #p ccsd(t,maxcyc=200)/6-311++G(3df,2p)
 --------------------------------------

 -------------
 ccsd(t) iener
 -------------
 Symbolic Z-matrix:
 Charge =  0 Multiplicity = 2

                         Standard orientation:
 ---------------------------------------------------------------------
 Center     Atomic      Atomic             Coordinates (Angstroms)
 Number     Number       Type             X           Y           Z
 ---------------------------------------------------------------------
      1          1           0        0.000000    0.000000   -0.865809
      2          8           0        0.000000    0.000000    0.108226
 ---------------------------------------------------------------------

 SCF Done:  E(UHF) =  -75.4182334794     A.U. after   12 cycles
 E2 =    -0.1994536183D+00 EUMP2 =    -0.75617687097666D+02
 CCSD(T)
 CCSD(T)= -0.75636891856D+02

 Unable to determine electronic state:  an orbital has unidentified symmetry.
 Alpha  occ. eigenvalues --  -20.64123  -1.38889  -0.68263  -0.65892  -0.56209
 Alpha virt. eigenvalues --    0.04415   0.22370   0.22634   0.23891   0.24484
 Alpha virt. eigenvalues --    0.30149   0.66398   0.79857   0.82119   0.93219
 Alpha virt. eigenvalues --    0.93267   1.06084   1.16518   1.21299   1.24732

  Beta  occ. eigenvalues --  -20.60075  -1.23032  -0.63882  -0.51378
  Beta virt. eigenvalues --    0.04604   0.07207   0.23154   0.24315   0.24970
  Beta virt. eigenvalues --    0.30706   0.30884   0.67398   0.81921   0.83198
  Beta virt. eigenvalues --    0.97129   0.97178   1.07538   1.22849   1.26180

 Mulliken charges and spin densities:
               1          2
     1  H    0.263102  -0.061320
     2  O   -0.263102   1.061320
 Sum of Mulliken charges =   0.00000   1.00000

 Dipole moment (field-independent basis, Debye):
    X=              0.0000    Y=              0.0000    Z=             -1.7812  Tot=              1.7812
 Quadrupole moment (field-independent basis, Debye-Ang):
   XX=             -6.7555   YY=             -5.4127   ZZ=             -4.5090
   XY=              0.0000   XZ=              0.0000   YZ=              0.0000

 75.6310358\CCSD=-75.6314564\CCSD(T)=-75.6368919\S2=0.756966\S2-1=0.751
 Normal termination of Gaussian 09 at Thu Mar  7 13:33:49 2019.
