 Gaussian 09, Revision E.01,
 Gaussian 09:  EM64L-G09RevE.01 30-Nov-2015

 --------------------------------------
 #p ccsd(t,maxcyc=200)/6-311++G(3df,2p)
 --------------------------------------

 -------------
 ccsd(t) iener
 -------------
 Symbolic Z-matrix:
 Charge =  0 Multiplicity = 1

                         Standard orientation:
 ---------------------------------------------------------------------
 Center     Atomic      Atomic             Coordinates (Angstroms)
 Number     Number       Type             X           Y           Z
 ---------------------------------------------------------------------
      1          8           0        0.000000    0.000000    0.000000
 ---------------------------------------------------------------------

 SCF Done:  E(RHF) =  -74.6819496974     A.U. after    7 cycles
 E2 =    -0.1646722640D+00 EUMP2 =    -0.74846621961359D+02
 CCSD(T)
 CCSD(T)= -0.74890376829D+02

 Unable to determine electronic state:  an orbital has unidentified symmetry.
 Alpha  occ. eigenvalues --  -20.70868  -1.26392  -0.58741  -0.58741
 Alpha virt. eigenvalues --   -0.02291   0.18642   0.23347   0.23347   0.25405
 Alpha virt. eigenvalues --    0.92070   0.92746   0.92746   0.94690   0.94690
 Alpha virt. eigenvalues --    1.19926   1.19926   1.22014   1.43271   3.63061

 Mulliken charges:
               1
     1  O   -0.000000
 Sum of Mulliken charges =  -0.00000

 Dipole moment (field-independent basis, Debye):
    X=              0.0000    Y=              0.0000    Z=              0.0000  Tot=              0.0000
 Quadrupole moment (field-independent basis, Debye-Ang):
   XX=             -3.6752   YY=             -5.8989   ZZ=             -5.8989
   XY=              0.0000   XZ=             -0.0000   YZ=              0.0000

 4.8799659\CCSD(T)=-74.8903768\RMSD=3.471e-09\PG=OH [O(O1)]\\@
 Normal termination of Gaussian 09 at Thu Mar  7 13:33:45 2019.
