 Gaussian 09, Revision E.01,
 Gaussian 09:  EM64L-G09RevE.01 30-Nov-2015

 --------------------------------------
 #p ccsd(t,maxcyc=200)/6-311++G(3df,2p)
 --------------------------------------

 -------------
 ccsd(t) iener
 -------------
 Symbolic Z-matrix:
 Charge =  0 Multiplicity = 3

                         Standard orientation:
 ---------------------------------------------------------------------
 Center     Atomic      Atomic             Coordinates (Angstroms)
 Number     Number       Type             X           Y           Z
 ---------------------------------------------------------------------
      1          8           0        0.000000    0.000000    0.000000
 ---------------------------------------------------------------------

 SCF Done:  E(UHF) =  -74.8093403748     A.U. after   10 cycles
 E2 =    -0.1430809330D+00 EUMP2 =    -0.74952421307872D+02
 CCSD(T)
 CCSD(T)= -0.74971962663D+02

 Unable to determine electronic state:  an orbital has unidentified symmetry.
 Alpha  occ. eigenvalues --  -20.71117  -1.41945  -0.71179  -0.71179  -0.61268
 Alpha virt. eigenvalues --    0.18077   0.21840   0.21840   0.23277   0.89450
 Alpha virt. eigenvalues --    0.89450   0.92329   0.92329   0.93294   1.14208
 Alpha virt. eigenvalues --    1.14208   1.19375   1.40052   3.55349   3.55349

  Beta  occ. eigenvalues --  -20.63105  -1.07694  -0.52226
  Beta virt. eigenvalues --    0.07340   0.07340   0.19714   0.23986   0.30370
  Beta virt. eigenvalues --    0.30370   0.95842   0.96079   0.96079   0.97083
  Beta virt. eigenvalues --    0.97083   1.22805   1.30633   1.30633   1.48882

 Mulliken charges and spin densities:
               1          2
     1  O   -0.000000   2.000000
 Sum of Mulliken charges =  -0.00000   2.00000

 Dipole moment (field-independent basis, Debye):
    X=              0.0000    Y=              0.0000    Z=              0.0000  Tot=              0.0000
 Quadrupole moment (field-independent basis, Debye-Ang):
   XX=             -4.6069   YY=             -5.9233   ZZ=             -4.6069
   XY=              0.0000   XZ=             -0.0000   YZ=             -0.0000

 Normal termination of Gaussian 09 at Thu Mar  7 13:34:25 2019.
