 Gaussian 09, Revision E.01,
 Gaussian 09:  EM64L-G09RevE.01 30-Nov-2015

 --------------------------------------
 #p ccsd(t,maxcyc=200)/6-311++G(3df,2p)
 --------------------------------------

 -------------
 ccsd(t) iener
 -------------
 Symbolic Z-matrix:
 Charge =  1 Multiplicity = 2

                         Standard orientation:
 ---------------------------------------------------------------------
 Center     Atomic      Atomic             Coordinates (Angstroms)
 Number     Number       Type             X           Y           Z
 ---------------------------------------------------------------------
      1          8           0        0.000000    0.000000    0.000000
 ---------------------------------------------------------------------

 SCF Done:  E(UHF) =  -74.1836220057     A.U. after    9 cycles
 E2 =    -0.1133446867D+00 EUMP2 =    -0.74296966692421D+02
 CCSD(T)
 CCSD(T)= -0.74344939282D+02

 Unable to determine electronic state:  an orbital has unidentified symmetry.
 Alpha  occ. eigenvalues --  -21.41681  -1.91498  -1.31124  -1.20121
 Alpha virt. eigenvalues --   -0.55494  -0.11038  -0.04504  -0.03286  -0.02966
 Alpha virt. eigenvalues --    0.49950   0.49968   0.52047   0.52558   0.53080
 Alpha virt. eigenvalues --    0.70734   0.75303   0.76894   0.94397   3.01350

  Beta  occ. eigenvalues --  -21.37041  -1.73310  -1.15480
  Beta virt. eigenvalues --   -0.52027  -0.43034  -0.10287  -0.03063  -0.02579
  Beta virt. eigenvalues --   -0.00925   0.52110   0.52629   0.53312   0.55326
  Beta virt. eigenvalues --    0.55425   0.76577   0.78287   0.83508   0.98420

 Mulliken charges and spin densities:
               1          2
     1  O    1.000000   1.000000
 Sum of Mulliken charges =   1.00000   1.00000

 Dipole moment (field-independent basis, Debye):
    X=              0.0000    Y=              0.0000    Z=              0.0000  Tot=              0.0000
 Quadrupole moment (field-independent basis, Debye-Ang):
   XX=             -2.5797   YY=             -3.3832   ZZ=             -4.2958
   XY=              0.0000   XZ=             -0.0000   YZ=              0.0000

 \CCSD(T)=-74.3449393\S2=0.753796\S2-1=0.749709\S2A=0.750003\RMSD=5.803
 Normal termination of Gaussian 09 at Thu Mar  7 13:34:25 2019.
