 Gaussian 09, Revision E.01,
 Gaussian 09:  EM64L-G09RevE.01 30-Nov-2015

 ---------------------------------------------
 #p b3lyp/6-311++G(3df,2p) freq symmetry=Loose
 ---------------------------------------------

 ---------
 b3lyp opt
 ---------
 Symbolic Z-matrix:
 Charge =  1 Multiplicity = 2

                         Standard orientation:
 ---------------------------------------------------------------------
 Center     Atomic      Atomic             Coordinates (Angstroms)
 Number     Number       Type             X           Y           Z
 ---------------------------------------------------------------------
      1          6           0        0.000000    0.000000    0.000000
      2          1           0        0.000000    0.000000    1.091696
      3          1           0        0.000000    0.000000   -1.091696
 ---------------------------------------------------------------------

 SCF Done:  E(UB3LYP) =  -38.7807736362     A.U. after    8 cycles

 Unable to determine electronic state:  partially filled degenerate orbitals.
 Alpha  occ. eigenvalues --  -10.68313  -1.05280  -0.85740  -0.63659
 Alpha virt. eigenvalues --   -0.51044  -0.25508  -0.16076  -0.15624  -0.11735
 Alpha virt. eigenvalues --   -0.11084  -0.04187  -0.02616   0.00531   0.00557
 Alpha virt. eigenvalues --    0.05969   0.06172   0.06344   0.08324   0.23089

  Beta  occ. eigenvalues --  -10.66522  -1.00445  -0.84806
  Beta virt. eigenvalues --   -0.48842  -0.43814  -0.24005  -0.15669  -0.15458
  Beta virt. eigenvalues --   -0.10887  -0.10115  -0.03828  -0.02465   0.00530
  Beta virt. eigenvalues --    0.01981   0.06274   0.07580   0.07868   0.09087

 Mulliken charges and spin densities:
               1          2
     1  C    0.297359   1.043111
     2  H    0.351321  -0.021555
     3  H    0.351321  -0.021555
 Sum of Mulliken charges =   1.00000   1.00000

 Dipole moment (field-independent basis, Debye):
    X=              0.0000    Y=             -0.0000    Z=              0.0000  Tot=              0.0000
 Quadrupole moment (field-independent basis, Debye-Ang):
   XX=             -4.3719   YY=             -6.0081   ZZ=             -1.5555
   XY=              0.0000   XZ=             -0.0000   YZ=             -0.0000

  Exact polarizability:   6.699   0.000   7.452  -0.000  -0.000   9.642
 Approx polarizability:   8.994  -0.000   8.411  -0.000  -0.000  11.399

 ******    1 imaginary frequencies (negative Signs) ******

                      1                      2                      3
                     PIU                    PIU                    SGG
 Frequencies --   -753.4097              1224.2057              2987.7138
 Red. masses --      1.1607                 1.1607                 1.0078
 Frc consts  --      0.3882                 1.0249                 5.3005
 IR Inten    --    122.7981                10.0780                 0.0000

                      4
                     SGU
 Frequencies --   3304.3559
 Red. masses --      1.1607
 Frc consts  --      7.4672
 IR Inten    --    324.9859

 - Thermochemistry -
 -------------------
 Temperature   298.150 Kelvin.  Pressure   1.00000 Atm.
 Atom     1 has atomic number  6 and mass  12.00000

 Molecular mass:    14.01565 amu.
 Principal axes and moments of inertia in atomic units:
                           1         2         3
     Eigenvalues --     0.00000   8.57860   8.57860
           X           -0.00000   1.00000  -0.00000
           Y            0.00000   0.00000   1.00000
           Z            1.00000   0.00000  -0.00000
 This molecule is a prolate symmetric top.
 Rotational symmetry number  2.
 Rotational temperature (Kelvin)     10.09650
 Rotational constant (GHZ):         210.377175
    1 imaginary frequencies ignored.
 Zero-point vibrational energy      44957.3 (Joules/Mol)
                                   10.74506 (Kcal/Mol)
 Vibrational temperatures:   1761.36  4298.65  4754.23
          (Kelvin)

 Zero-point correction=                           0.017123 (Hartree/Particle)
 Thermal correction to Energy=                    0.019499
 Thermal correction to Enthalpy=                  0.020443
 Thermal correction to Gibbs Free Energy=         0.000196
 Sum of electronic and zero-point Energies=            -38.763650
 Sum of electronic and thermal Energies=               -38.761275
 Sum of electronic and thermal Enthalpies=             -38.760330
 Sum of electronic and thermal Free Energies=          -38.780577

                     E (Thermal)             CV                S
                      KCal/Mol        Cal/Mol-Kelvin    Cal/Mol-Kelvin
 Total                   12.236              5.158             42.613
 Electronic               0.000              0.000              1.377
 Translational            0.889              2.981             33.861
 Rotational               0.592              1.987              7.337
 Vibrational             10.755              0.190              0.037

 Optimization completed.
    -- Stationary point found.
 Normal termination of Gaussian 09 at Mon Jun 20 10:42:20 2016.
