 Gaussian 09, Revision E.01,
 Gaussian 09:  EM64L-G09RevE.01 30-Nov-2015

 ---------------------------------------------
 #p b3lyp/6-311++G(3df,2p) freq symmetry=Loose
 ---------------------------------------------

 ---------
 b3lyp opt
 ---------
 Symbolic Z-matrix:
 Charge =  1 Multiplicity = 4

                         Standard orientation:
 ---------------------------------------------------------------------
 Center     Atomic      Atomic             Coordinates (Angstroms)
 Number     Number       Type             X           Y           Z
 ---------------------------------------------------------------------
      1          6           0        0.000000    0.000000    0.000000
      2          1           0        0.000000    0.000000    1.221845
      3          1           0        0.000000    0.000000   -1.221845
 ---------------------------------------------------------------------

 SCF Done:  E(UB3LYP) =  -38.5743273208     A.U. after    8 cycles

 The electronic state is 4-SGU.
 Alpha  occ. eigenvalues --  -10.62327  -1.05384  -0.87545  -0.60423  -0.60423
 Alpha virt. eigenvalues --   -0.36065  -0.18987  -0.16340  -0.11419  -0.11419
 Alpha virt. eigenvalues --   -0.05233  -0.05039  -0.00950  -0.00950   0.02351
 Alpha virt. eigenvalues --    0.07199   0.07199   0.07235   0.24301   0.24301

  Beta  occ. eigenvalues --  -10.58501  -0.90128
  Beta virt. eigenvalues --   -0.69120  -0.39446  -0.39446  -0.27626  -0.15758
  Beta virt. eigenvalues --   -0.14778  -0.09481  -0.09481  -0.04129  -0.02924
  Beta virt. eigenvalues --    0.02412   0.02412   0.03726   0.09413   0.10426

 Mulliken charges and spin densities:
               1          2
     1  C    0.070054   2.470925
     2  H    0.464973   0.264537
     3  H    0.464973   0.264537
 Sum of Mulliken charges =   1.00000   3.00000

 Dipole moment (field-independent basis, Debye):
    X=              0.0000    Y=              0.0000    Z=             -0.0000  Tot=              0.0000
 Quadrupole moment (field-independent basis, Debye-Ang):
   XX=             -6.4229   YY=             -6.4229   ZZ=              2.2517
   XY=              0.0000   XZ=             -0.0000   YZ=              0.0000

  Exact polarizability:   8.941   0.000   8.941  -0.000  -0.000  18.793
 Approx polarizability:  10.526  -0.000  10.526  -0.000  -0.000  30.321

 ******    2 imaginary frequencies (negative Signs) ******

                      1                      2                      3
                     PIU                    PIU                    SGU
 Frequencies --  -1366.7867             -1366.7867              1705.5167
 Red. masses --      1.1607                 1.1607                 1.1607
 Frc consts  --      1.2776                 1.2776                 1.9893
 IR Inten    --    337.3229               337.3229              3303.5600

                      4
                     SGG
 Frequencies --   2265.5867
 Red. masses --      1.0078
 Frc consts  --      3.0479
 IR Inten    --      0.0000

 - Thermochemistry -
 -------------------
 Temperature   298.150 Kelvin.  Pressure   1.00000 Atm.
 Atom     1 has atomic number  6 and mass  12.00000

 Molecular mass:    14.01565 amu.
 Principal axes and moments of inertia in atomic units:
                           1         2         3
     Eigenvalues --     0.00000  10.74596  10.74596
           X           -0.00000   0.70711   0.70711
           Y           -0.00000   0.70711  -0.70711
           Z            1.00000   0.00000   0.00000
 This molecule is a prolate symmetric top.
 Rotational symmetry number  2.
 Rotational temperature (Kelvin)      8.06013
 Rotational constant (GHZ):         167.946062
    2 imaginary frequencies ignored.
 Zero-point vibrational energy      23752.5 (Joules/Mol)
                                    5.67698 (Kcal/Mol)
 Vibrational temperatures:   2453.86  3259.67
          (Kelvin)

 Zero-point correction=                           0.009047 (Hartree/Particle)
 Thermal correction to Energy=                    0.011410
 Thermal correction to Enthalpy=                  0.012354
 Thermal correction to Gibbs Free Energy=        -0.008745
 Sum of electronic and zero-point Energies=            -38.565280
 Sum of electronic and thermal Energies=               -38.562918
 Sum of electronic and thermal Enthalpies=             -38.561974
 Sum of electronic and thermal Free Energies=          -38.583072

                     E (Thermal)             CV                S
                      KCal/Mol        Cal/Mol-Kelvin    Cal/Mol-Kelvin
 Total                    7.160              5.008             44.406
 Electronic               0.000              0.000              2.755
 Translational            0.889              2.981             33.861
 Rotational               0.592              1.987              7.785
 Vibrational              5.678              0.040              0.005

 Optimization completed.
    -- Stationary point found.
 Normal termination of Gaussian 09 at Mon Jun 20 10:42:20 2016.
