 Gaussian 09, Revision E.01,
 Gaussian 09:  EM64L-G09RevE.01 30-Nov-2015

 ---------------------------------------------
 #p b3lyp/6-311++G(3df,2p) freq symmetry=Loose
 ---------------------------------------------

 ---------
 b3lyp opt
 ---------
 Symbolic Z-matrix:
 Charge =  0 Multiplicity = 3

                         Standard orientation:
 ---------------------------------------------------------------------
 Center     Atomic      Atomic             Coordinates (Angstroms)
 Number     Number       Type             X           Y           Z
 ---------------------------------------------------------------------
      1          6           0        0.000000    0.000000    0.000000
      2          1           0        0.000000    0.000000    1.066313
      3          1           0        0.000000    0.000000   -1.066313
 ---------------------------------------------------------------------

 SCF Done:  E(UB3LYP) =  -39.1605524482     A.U. after    8 cycles

 The electronic state is 3-SGG.
 Alpha  occ. eigenvalues --  -10.20966  -0.68264  -0.48635  -0.24785  -0.24785
 Alpha virt. eigenvalues --   -0.00262   0.02687   0.06888   0.07057   0.07057
 Alpha virt. eigenvalues --    0.13163   0.14403   0.27481   0.28364   0.28364
 Alpha virt. eigenvalues --    0.29871   0.32971   0.32973   0.52344   0.52344

  Beta  occ. eigenvalues --  -10.18123  -0.60307  -0.47078
  Beta virt. eigenvalues --   -0.07348  -0.07348   0.00373   0.02599   0.08385
  Beta virt. eigenvalues --    0.09485   0.09485   0.14561   0.14643   0.27763
  Beta virt. eigenvalues --    0.30044   0.30044   0.31287   0.36677   0.36679

 Mulliken charges and spin densities:
               1          2
     1  C   -0.470349   2.090995
     2  H    0.235175  -0.045497
     3  H    0.235175  -0.045497
 Sum of Mulliken charges =   0.00000   2.00000

 Dipole moment (field-independent basis, Debye):
    X=              0.0000    Y=              0.0000    Z=              0.0000  Tot=              0.0000
 Quadrupole moment (field-independent basis, Debye-Ang):
   XX=             -8.4686   YY=             -8.4686   ZZ=             -5.2319
   XY=              0.0000   XZ=             -0.0000   YZ=              0.0000

  Exact polarizability:  14.897  -0.000  14.897   0.000  -0.000  15.003
 Approx polarizability:  16.627  -0.000  16.627  -0.000  -0.000  17.989

 ******    2 imaginary frequencies (negative Signs) ******

                      1                      2                      3
                     PIU                    PIU                    SGG
 Frequencies --   -919.2789              -919.2789              3196.6903
 Red. masses --      1.1607                 1.1607                 1.0078
 Frc consts  --      0.5779                 0.5779                 6.0679
 IR Inten    --    107.3654               107.3654                 0.0000

                      4
                     SGU
 Frequencies --   3538.6249
 Red. masses --      1.1607
 Frc consts  --      8.5635
 IR Inten    --     56.0425

 - Thermochemistry -
 -------------------
 Temperature   298.150 Kelvin.  Pressure   1.00000 Atm.
 Atom     1 has atomic number  6 and mass  12.00000

 Molecular mass:    14.01565 amu.
 Principal axes and moments of inertia in atomic units:
                           1         2         3
     Eigenvalues --     0.00000   8.18431   8.18431
           X           -0.00000   1.00000  -0.00000
           Y            0.00000   0.00000   1.00000
           Z            1.00000   0.00000  -0.00000
 This molecule is a prolate symmetric top.
 Rotational symmetry number  2.
 Rotational temperature (Kelvin)     10.58290
 Rotational constant (GHZ):         220.512214
    2 imaginary frequencies ignored.
 Zero-point vibrational energy      40286.1 (Joules/Mol)
                                    9.62862 (Kcal/Mol)
 Vibrational temperatures:   4599.32  5091.29
          (Kelvin)

 Zero-point correction=                           0.015344 (Hartree/Particle)
 Thermal correction to Energy=                    0.017705
 Thermal correction to Enthalpy=                  0.018649
 Thermal correction to Gibbs Free Energy=        -0.001919
 Sum of electronic and zero-point Energies=            -39.145208
 Sum of electronic and thermal Energies=               -39.142848
 Sum of electronic and thermal Enthalpies=             -39.141904
 Sum of electronic and thermal Free Energies=          -39.162471

                     E (Thermal)             CV                S
                      KCal/Mol        Cal/Mol-Kelvin    Cal/Mol-Kelvin
 Total                   11.110              4.968             43.288
 Electronic               0.000              0.000              2.183
 Translational            0.889              2.981             33.861
 Rotational               0.592              1.987              7.244
 Vibrational              9.629              0.000              0.000

 Optimization completed.
    -- Stationary point found.
 Normal termination of Gaussian 09 at Mon Jun 20 10:42:20 2016.
