 Gaussian 09, Revision E.01,
 Gaussian 09:  EM64L-G09RevE.01 30-Nov-2015

 ---------------------------------------------
 #p b3lyp/6-311++G(3df,2p) freq symmetry=Loose
 ---------------------------------------------

 ---------
 b3lyp opt
 ---------
 Symbolic Z-matrix:
 Charge =  0 Multiplicity = 3

                         Standard orientation:
 ---------------------------------------------------------------------
 Center     Atomic      Atomic             Coordinates (Angstroms)
 Number     Number       Type             X           Y           Z
 ---------------------------------------------------------------------
      1          1           0        0.000000    0.000000    1.727352
      2          6           0        0.000000    0.000000    0.665287
      3          6           0        0.000000    0.000000   -0.665287
      4          1           0        0.000000    0.000000   -1.727352
 ---------------------------------------------------------------------

 SCF Done:  E(UB3LYP) =  -77.1526247000     A.U. after    9 cycles

 Unable to determine electronic state:  partially filled degenerate orbitals.
 Alpha  occ. eigenvalues --  -10.23375 -10.23299  -0.78713  -0.60578  -0.51689
 Alpha  occ. eigenvalues --   -0.34520  -0.33141  -0.11021
 Alpha virt. eigenvalues --   -0.05716  -0.00006   0.00383   0.05956   0.06178
 Alpha virt. eigenvalues --    0.06282   0.07662   0.10190   0.10847   0.12243
 Alpha virt. eigenvalues --    0.13619   0.20245   0.25362   0.28503   0.28519

  Beta  occ. eigenvalues --  -10.21918 -10.21842  -0.73396  -0.57344  -0.50410
  Beta  occ. eigenvalues --   -0.27022
  Beta virt. eigenvalues --   -0.20380   0.00047   0.00108   0.00110   0.00774
  Beta virt. eigenvalues --    0.06459   0.06603   0.06749   0.09071   0.12189
  Beta virt. eigenvalues --    0.12438   0.12617   0.14045   0.21430   0.25913

 Mulliken charges and spin densities:
               1          2
     1  H    0.331443  -0.037266
     2  C   -0.331443   1.037266
     3  C   -0.331443   1.037266
     4  H    0.331443  -0.037266
 Sum of Mulliken charges =  -0.00000   2.00000

 Dipole moment (field-independent basis, Debye):
    X=              0.0000    Y=             -0.0000    Z=              0.0000  Tot=              0.0000
 Quadrupole moment (field-independent basis, Debye-Ang):
   XX=            -17.0414   YY=            -12.2303   ZZ=             -9.3739
   XY=              0.0000   XZ=             -0.0000   YZ=             -0.0000

  Exact polarizability:  33.450  -0.000  17.303   0.000   0.000  42.952
 Approx polarizability:  36.312  -0.000  23.261  -0.000  -0.000  54.993

 ******    2 imaginary frequencies (negative Signs) ******

                      1                      2                      3
                     PIU                    PIG                    PIG
 Frequencies --  -1244.1676             -1203.3422               687.1388
 Red. masses --      1.0848                 1.5068                 1.5068
 Frc consts  --      0.9894                 1.2855                 0.4192
 IR Inten    --    303.9178                 0.0000                 0.0000

                      4                      5                      6
                     PIU                    SGG                    SGU
 Frequencies --    714.9434              1571.7829              3424.3330
 Red. masses --      1.0848                 4.9191                 1.0848
 Frc consts  --      0.3267                 7.1602                 7.4948
 IR Inten    --     19.3448                 0.0000               117.7725

                      7
                     SGG
 Frequencies --   3473.0830
 Red. masses --      1.1464
 Frc consts  --      8.1475
 IR Inten    --      0.0000

 - Thermochemistry -
 -------------------
 Temperature   298.150 Kelvin.  Pressure   1.00000 Atm.
 Atom     1 has atomic number  1 and mass   1.00783

 Molecular mass:    26.01565 amu.
 Principal axes and moments of inertia in atomic units:
                           1         2         3
     Eigenvalues --     0.00000  59.41091  59.41091
           X           -0.00000   1.00000  -0.00000
           Y            0.00000   0.00000   1.00000
           Z            1.00000   0.00000  -0.00000
 This molecule is a prolate symmetric top.
 Rotational symmetry number  2.
 Rotational temperature (Kelvin)      1.45788
 Rotational constant (GHZ):          30.377270
    2 imaginary frequencies ignored.
 Zero-point vibrational energy      59043.4 (Joules/Mol)
                                   14.11170 (Kcal/Mol)
 Vibrational temperatures:    988.64  1028.64  2261.44  4926.85  4996.99
          (Kelvin)

 Zero-point correction=                           0.022488 (Hartree/Particle)
 Thermal correction to Energy=                    0.025077
 Thermal correction to Enthalpy=                  0.026021
 Thermal correction to Gibbs Free Energy=         0.002412
 Sum of electronic and zero-point Energies=            -77.130136
 Sum of electronic and thermal Energies=               -77.127547
 Sum of electronic and thermal Enthalpies=             -77.126603
 Sum of electronic and thermal Free Energies=          -77.150212

                     E (Thermal)             CV                S
                      KCal/Mol        Cal/Mol-Kelvin    Cal/Mol-Kelvin
 Total                   15.736              6.681             49.690
 Electronic               0.000              0.000              2.183
 Translational            0.889              2.981             35.704
 Rotational               0.592              1.987             11.183
 Vibrational             14.255              1.713              0.619

 Normal termination of Gaussian 09 at Mon Jun 20 10:34:55 2016.
