 Gaussian 09, Revision E.01,
 Gaussian 09:  EM64L-G09RevE.01 30-Nov-2015

 ---------------------------------------------
 #p b3lyp/6-311++G(3df,2p) freq symmetry=Loose
 ---------------------------------------------

 ---------
 b3lyp opt
 ---------
 Symbolic Z-matrix:
 Charge =  3 Multiplicity = 4

                         Standard orientation:
 ---------------------------------------------------------------------
 Center     Atomic      Atomic             Coordinates (Angstroms)
 Number     Number       Type             X           Y           Z
 ---------------------------------------------------------------------
      1          6           0       -0.819689    0.000174    0.000019
      2          6           0        0.332340   -0.781514   -0.000097
      3          6           0        1.649915   -0.000665    0.000094
      4          6           0        0.331423    0.782800   -0.000141
      5          6           0       -2.236827   -0.000740    0.000067
      6          1           0        2.228386   -0.000059    0.960167
      7          1           0        2.228649   -0.000274   -0.959816
 ---------------------------------------------------------------------

 SCF Done:  E(UB3LYP) =  -189.593155783     A.U. after   24 cycles

 The electronic state is 4-A.
 Alpha  occ. eigenvalues --  -11.19156 -11.13245 -11.13223 -11.07421 -10.98787
 Alpha  occ. eigenvalues --   -1.78489  -1.57226  -1.45999  -1.36208  -1.23027
 Alpha  occ. eigenvalues --   -1.22950  -1.18623  -1.18568  -1.12743  -1.12732
 Alpha  occ. eigenvalues --   -1.03836
 Alpha virt. eigenvalues --   -0.94822  -0.86701  -0.79782  -0.74945  -0.60720
 Alpha virt. eigenvalues --   -0.55205  -0.53501  -0.48673  -0.46372  -0.46290
 Alpha virt. eigenvalues --   -0.45928  -0.41806  -0.41465  -0.40749  -0.39113

  Beta  occ. eigenvalues --  -11.15285 -11.11757 -11.11744 -11.07391 -10.98894
  Beta  occ. eigenvalues --   -1.76860  -1.54042  -1.43476  -1.31607  -1.21125
  Beta  occ. eigenvalues --   -1.20319  -1.17089  -1.09567
  Beta virt. eigenvalues --   -0.97134  -0.93886  -0.89123  -0.88111  -0.82258
  Beta virt. eigenvalues --   -0.73750  -0.69100  -0.58344  -0.53980  -0.53073
  Beta virt. eigenvalues --   -0.46405  -0.46020  -0.45048  -0.43775  -0.41198

 Mulliken charges and spin densities:
               1          2
     1  C    0.280703   0.216821
     2  C    1.219464   0.455412
     3  C   -0.714880   0.047573
     4  C    1.217575   0.458395
     5  C    0.274404   1.743902
     6  H    0.361352   0.038957
     7  H    0.361383   0.038941
 Sum of Mulliken charges =   3.00000   3.00000

 Dipole moment (field-independent basis, Debye):
    X=             -2.2886    Y=             -0.0009    Z=              0.0001  Tot=              2.2886
 Quadrupole moment (field-independent basis, Debye-Ang):
   XX=             22.7756   YY=            -15.3111   ZZ=            -18.8534
   XY=              0.0042   XZ=             -0.0001   YZ=              0.0009

  Exact polarizability:  60.968   0.006  28.907   0.000   0.001  22.122
 Approx polarizability: 113.022   0.036  67.491  -0.001   0.001  32.465

 ******    1 imaginary frequencies (negative Signs) ******

                      1                      2                      3
                      A                      A                      A
 Frequencies --   -297.1624               272.2681               370.7113
 Red. masses --     10.7751                 3.6724                 9.0260
 Frc consts  --      0.5606                 0.1604                 0.7308
 IR Inten    --      0.2956                17.2258                 8.1179

                      4                      5                      6
                      A                      A                      A
 Frequencies --    455.6881               707.2599               891.4997
 Red. masses --      7.4400                 9.0930                 5.5095
 Frc consts  --      0.9103                 2.6799                 2.5799
 IR Inten    --      6.0242                11.8928                 0.0782

                      7                      8                      9
                      A                      A                      A
 Frequencies --    955.8325               972.1899               983.6603
 Red. masses --     11.3102                 1.3704                10.2842
 Frc consts  --      6.0881                 0.7631                 5.8629
 IR Inten    --     57.3851                 1.5264                31.2166

                     10                     11                     12
                      A                      A                      A
 Frequencies --   1101.0326              1305.6590              1331.5102
 Red. masses --      1.3302                 1.1137                 1.1234
 Frc consts  --      0.9501                 1.1187                 1.1735
 IR Inten    --     77.7811               148.7219                 0.0006

                     13                     14                     15
                      A                      A                      A
 Frequencies --   1528.7804              2752.7765              2842.7294
 Red. masses --      7.3290                 1.0435                 1.1284
 Frc consts  --     10.0922                 4.6588                 5.3727
 IR Inten    --     54.0791               738.9383               339.0477

 - Thermochemistry -
 -------------------
 Temperature   298.150 Kelvin.  Pressure   1.00000 Atm.
 Atom     1 has atomic number  6 and mass  12.00000

 Molecular mass:    62.01565 amu.
 Principal axes and moments of inertia in atomic units:
                           1         2         3
     Eigenvalues --    59.06573 410.55147 456.35004
           X            1.00000  -0.00001   0.00000
           Y            0.00001   1.00000   0.00002
           Z           -0.00000  -0.00002   1.00000
 This molecule is an asymmetric top.
 Rotational symmetry number  1.
 Rotational temperatures (Kelvin)      1.46640     0.21097     0.18980
 Rotational constants (GHZ):          30.55480     4.39590     3.95473
    1 imaginary frequencies ignored.
 Zero-point vibrational energy      98522.0 (Joules/Mol)
                                   23.54733 (Kcal/Mol)
 Warning -- explicit consideration of   3 degrees of freedom as
           vibrations may cause significant error
 Vibrational temperatures:    391.73   533.37   655.63  1017.59  1282.67
          (Kelvin)           1375.23  1398.76  1415.27  1584.14  1878.55
                             1915.74  2199.57  3960.63  4090.05

 Zero-point correction=                           0.037525 (Hartree/Particle)
 Thermal correction to Energy=                    0.041751
 Thermal correction to Enthalpy=                  0.042695
 Thermal correction to Gibbs Free Energy=         0.009775
 Sum of electronic and zero-point Energies=           -189.555631
 Sum of electronic and thermal Energies=              -189.551405
 Sum of electronic and thermal Enthalpies=            -189.550461
 Sum of electronic and thermal Free Energies=         -189.583381

                     E (Thermal)             CV                S
                      KCal/Mol        Cal/Mol-Kelvin    Cal/Mol-Kelvin
 Total                   26.199             13.753             69.286
 Electronic               0.000              0.000              2.755
 Translational            0.889              2.981             38.294
 Rotational               0.889              2.981             23.919
 Vibrational             24.422              7.791              4.319
 Vibration     1          0.675              1.724              1.582
 Vibration     2          0.743              1.532              1.077
 Vibration     3          0.814              1.348              0.779

 Normal termination of Gaussian 09 at Mon Jun 20 10:42:08 2016.
