 Gaussian 09, Revision E.01,
 Gaussian 09:  EM64L-G09RevE.01 30-Nov-2015

 ---------------------------------------------
 #p b3lyp/6-311++G(3df,2p) freq symmetry=Loose
 ---------------------------------------------

 ---------
 b3lyp opt
 ---------
 Symbolic Z-matrix:
 Charge =  3 Multiplicity = 4

                         Standard orientation:
 ---------------------------------------------------------------------
 Center     Atomic      Atomic             Coordinates (Angstroms)
 Number     Number       Type             X           Y           Z
 ---------------------------------------------------------------------
      1          6           0       -0.351067    2.397855    0.000000
      2          6           0       -0.000000    1.170541    0.000000
      3          6           0        0.547886   -0.118975    0.000000
      4          6           0       -0.012348   -1.364276   -0.000000
      5          6           0       -0.351059   -2.629107   -0.000000
      6          1           0       -0.692838    3.458019    0.000000
      7          1           0        1.692366   -0.194246    0.000000
 ---------------------------------------------------------------------

 SCF Done:  E(UB3LYP) =  -189.726704653     A.U. after   23 cycles

 The electronic state is 4-A".
 Alpha  occ. eigenvalues --  -11.11954 -11.04570 -11.01075 -10.99169 -10.97348
 Alpha  occ. eigenvalues --   -1.59947  -1.53776  -1.47004  -1.33162  -1.20991
 Alpha  occ. eigenvalues --   -1.18924  -1.15247  -1.11309  -1.08017  -1.04820
 Alpha  occ. eigenvalues --   -1.00077
 Alpha virt. eigenvalues --   -0.88152  -0.77083  -0.72705  -0.68947  -0.60788
 Alpha virt. eigenvalues --   -0.56146  -0.49233  -0.47512  -0.45792  -0.44151
 Alpha virt. eigenvalues --   -0.41193  -0.40219  -0.38991  -0.38300  -0.36587

  Beta  occ. eigenvalues --  -11.08070 -11.03615 -11.01312 -10.98718 -10.96460
  Beta  occ. eigenvalues --   -1.56832  -1.49108  -1.44059  -1.31497  -1.19279
  Beta  occ. eigenvalues --   -1.18101  -1.07851  -0.98687
  Beta virt. eigenvalues --   -0.92996  -0.92512  -0.88944  -0.83382  -0.67867
  Beta virt. eigenvalues --   -0.67450  -0.66628  -0.56917  -0.54608  -0.48156
  Beta virt. eigenvalues --   -0.46889  -0.44792  -0.43375  -0.41013  -0.39179

 Mulliken charges and spin densities:
               1          2
     1  C    0.537694   0.239101
     2  C    0.303533   0.500138
     3  C   -0.021920  -0.063271
     4  C    0.786620   0.572462
     5  C    0.569211   1.703447
     6  H    0.494888  -0.008115
     7  H    0.329974   0.056239
 Sum of Mulliken charges =   3.00000   3.00000

 Dipole moment (field-independent basis, Debye):
    X=             -0.2792    Y=             -0.8422    Z=             -0.0000  Tot=              0.8872
 Quadrupole moment (field-independent basis, Debye-Ang):
   XX=            -14.8196   YY=             50.9590   ZZ=            -20.6964
   XY=             -2.5300   XZ=             -0.0000   YZ=              0.0000

  Exact polarizability:  28.355   1.195 121.922  -0.000  -0.000  20.676
 Approx polarizability:  44.784  10.100 288.742   0.000   0.000  29.441

 ******    1 imaginary frequencies (negative Signs) ******

                      1                      2                      3
                     A'                     A"                     A'
 Frequencies --    -78.7674               263.2773               324.2378
 Red. masses --      6.2360                 2.5053                 5.7438
 Frc consts  --      0.0228                 0.1023                 0.3558
 IR Inten    --     33.2808                42.6756                 5.0923

                      4                      5                      6
                     A"                     A'                     A'
 Frequencies --    328.2043               534.5005               716.6233
 Red. masses --      6.8084                 9.6500                 1.2353
 Frc consts  --      0.4321                 1.6243                 0.3738
 IR Inten    --      0.1678                27.3342                39.2011

                      7                      8                      9
                     A'                     A"                     A"
 Frequencies --    754.2345               786.0454               868.2508
 Red. masses --      8.8801                 1.8534                 1.4858
 Frc consts  --      2.9763                 0.6747                 0.6599
 IR Inten    --     86.2077                 6.9310                14.2656

                     10                     11                     12
                     A'                     A'                     A'
 Frequencies --   1022.4792              1216.9820              1786.5704
 Red. masses --      1.7252                 2.2994                10.7830
 Frc consts  --      1.0627                 2.0065                20.2782
 IR Inten    --     11.4550               279.5215               775.6440

                     13                     14                     15
                     A'                     A'                     A'
 Frequencies --   1807.2236              2516.2743              2971.2309
 Red. masses --      6.0217                 1.0649                 1.1725
 Frc consts  --     11.5877                 3.9725                 6.0986
 IR Inten    --    776.4634               655.3182               518.7818

 - Thermochemistry -
 -------------------
 Temperature   298.150 Kelvin.  Pressure   1.00000 Atm.
 Atom     1 has atomic number  6 and mass  12.00000

 Molecular mass:    62.01565 amu.
 Principal axes and moments of inertia in atomic units:
                           1         2         3
     Eigenvalues --    35.30480 724.35529 759.66009
           X           -0.01246   0.99992   0.00000
           Y            0.99992   0.01246   0.00000
           Z           -0.00000  -0.00000   1.00000
 This molecule is an asymmetric top.
 Rotational symmetry number  1.
 Rotational temperatures (Kelvin)      2.45332     0.11957     0.11402
 Rotational constants (GHZ):          51.11886     2.49151     2.37572
    1 imaginary frequencies ignored.
 Zero-point vibrational energy      95080.0 (Joules/Mol)
                                   22.72466 (Kcal/Mol)
 Warning -- explicit consideration of   4 degrees of freedom as
           vibrations may cause significant error
 Vibrational temperatures:    378.80   466.51   472.21   769.03  1031.06
          (Kelvin)           1085.17  1130.94  1249.22  1471.12  1750.96
                             2570.47  2600.19  3620.35  4274.93

 Zero-point correction=                           0.036214 (Hartree/Particle)
 Thermal correction to Energy=                    0.040886
 Thermal correction to Enthalpy=                  0.041830
 Thermal correction to Gibbs Free Energy=         0.007932
 Sum of electronic and zero-point Energies=           -189.690491
 Sum of electronic and thermal Energies=              -189.685819
 Sum of electronic and thermal Enthalpies=            -189.684875
 Sum of electronic and thermal Free Energies=         -189.718773

                     E (Thermal)             CV                S
                      KCal/Mol        Cal/Mol-Kelvin    Cal/Mol-Kelvin
 Total                   25.656             15.468             71.344
 Electronic               0.000              0.000              2.755
 Translational            0.889              2.981             38.294
 Rotational               0.889              2.981             24.478
 Vibrational             23.879              9.506              5.818
 Vibration     1          0.670              1.740              1.640
 Vibration     2          0.709              1.627              1.289
 Vibration     3          0.711              1.619              1.269
 Vibration     4          0.889              1.174              0.577

 Optimization completed.
    -- Stationary point found.
 Normal termination of Gaussian 09 at Mon Jun 20 10:40:18 2016.
