 Gaussian 09, Revision E.01,
 Gaussian 09:  EM64L-G09RevE.01 30-Nov-2015

 ---------------------------------------------
 #p b3lyp/6-311++G(3df,2p) freq symmetry=Loose
 ---------------------------------------------

 ---------
 b3lyp opt
 ---------
 Symbolic Z-matrix:
 Charge =  1 Multiplicity = 3

                         Standard orientation:
 ---------------------------------------------------------------------
 Center     Atomic      Atomic             Coordinates (Angstroms)
 Number     Number       Type             X           Y           Z
 ---------------------------------------------------------------------
      1          6           0        0.000000   -0.000000    0.088994
      2          1           0        0.000000   -0.000000    1.170138
      3          1           0        0.000000    0.698432   -0.852052
      4          1           0       -0.000000   -0.698432   -0.852052
 ---------------------------------------------------------------------

 SCF Done:  E(UB3LYP) =  -39.3569710185     A.U. after    9 cycles

 The electronic state is 3-A2.
 Alpha  occ. eigenvalues --  -10.60052  -1.08880  -0.83959  -0.74216  -0.60140
 Alpha virt. eigenvalues --   -0.26655  -0.23276  -0.15214  -0.14342  -0.12194
 Alpha virt. eigenvalues --   -0.11529  -0.05467  -0.03837  -0.03737  -0.01209
 Alpha virt. eigenvalues --    0.00272   0.04111   0.09285   0.10059   0.14445

  Beta  occ. eigenvalues --  -10.57504  -0.99414  -0.81322
  Beta virt. eigenvalues --   -0.56625  -0.40480  -0.23454  -0.18016  -0.14509
  Beta virt. eigenvalues --   -0.13422  -0.11367  -0.09675  -0.04582  -0.02746
  Beta virt. eigenvalues --   -0.02399  -0.00066   0.02067   0.07251   0.10252

 Mulliken charges and spin densities:
               1          2
     1  C   -0.002418   1.623751
     2  H    0.313716  -0.042387
     3  H    0.344351   0.209318
     4  H    0.344351   0.209318
 Sum of Mulliken charges =   1.00000   2.00000

 Dipole moment (field-independent basis, Debye):
    X=             -0.0000    Y=             -0.0000    Z=             -1.2827  Tot=              1.2827
 Quadrupole moment (field-independent basis, Debye-Ang):
   XX=             -6.9803   YY=             -4.2209   ZZ=             -1.5254
   XY=              0.0000   XZ=              0.0000   YZ=              0.0000

  Exact polarizability:   9.019  -0.000  11.105   0.000  -0.000  12.505
 Approx polarizability:  10.621   0.000  14.621   0.000  -0.000  15.364

 ******    1 imaginary frequencies (negative Signs) ******

                      1                      2                      3
                     B1                     B2                     A1
 Frequencies --   -687.3061               541.7075              1201.8280
 Red. masses --      1.2194                 1.1860                 1.0384
 Frc consts  --      0.3394                 0.2050                 0.8837
 IR Inten    --    185.7927               123.5984                12.8387

                      4                      5                      6
                     B2                     A1                     A1
 Frequencies --   2151.0003              2612.8543              3269.4534
 Red. masses --      1.0347                 1.0611                 1.1256
 Frc consts  --      2.8207                 4.2682                 7.0892
 IR Inten    --    341.8882                59.8485               230.1960

 - Thermochemistry -
 -------------------
 Temperature   298.150 Kelvin.  Pressure   1.00000 Atm.
 Atom     1 has atomic number  6 and mass  12.00000

 Molecular mass:    15.02348 amu.
 Principal axes and moments of inertia in atomic units:
                           1         2         3
     Eigenvalues --     3.51125  10.42623  13.93747
           X            0.00000   0.00000   1.00000
           Y            0.00000   1.00000  -0.00000
           Z            1.00000   0.00000   0.00000
 This molecule is an asymmetric top.
 Rotational symmetry number  2.
 Rotational temperatures (Kelvin)     24.66755     8.30730     6.21446
 Rotational constants (GHZ):         513.98897   173.09627   129.48841
    1 imaginary frequencies ignored.
 Zero-point vibrational energy      58478.5 (Joules/Mol)
                                   13.97670 (Kcal/Mol)
 Warning -- explicit consideration of   1 degrees of freedom as
           vibrations may cause significant error
 Vibrational temperatures:    779.40  1729.16  3094.81  3759.31  4704.01
          (Kelvin)

 Zero-point correction=                           0.022273 (Hartree/Particle)
 Thermal correction to Energy=                    0.025318
 Thermal correction to Enthalpy=                  0.026262
 Thermal correction to Gibbs Free Energy=         0.002755
 Sum of electronic and zero-point Energies=            -39.334698
 Sum of electronic and thermal Energies=               -39.331653
 Sum of electronic and thermal Enthalpies=             -39.330709
 Sum of electronic and thermal Free Energies=          -39.354216

                     E (Thermal)             CV                S
                      KCal/Mol        Cal/Mol-Kelvin    Cal/Mol-Kelvin
 Total                   15.887              7.331             49.475
 Electronic               0.000              0.000              2.183
 Translational            0.889              2.981             34.068
 Rotational               0.889              2.981             12.620
 Vibrational             14.110              1.369              0.603
 Vibration     1          0.897              1.158              0.562

 Optimization completed.
    -- Stationary point found.
 Normal termination of Gaussian 09 at Mon Jun 20 11:04:53 2016.
