 Gaussian 09, Revision E.01,
 Gaussian 09:  EM64L-G09RevE.01 30-Nov-2015

 ---------------------------------------------
 #p b3lyp/6-311++G(3df,2p) freq symmetry=Loose
 ---------------------------------------------

 ---------
 b3lyp opt
 ---------
 Symbolic Z-matrix:
 Charge =  0 Multiplicity = 2

                         Standard orientation:
 ---------------------------------------------------------------------
 Center     Atomic      Atomic             Coordinates (Angstroms)
 Number     Number       Type             X           Y           Z
 ---------------------------------------------------------------------
      1          6           0       -0.013815   -0.500523    0.000000
      2          6           0       -0.013815    0.944393    0.000000
      3          1           0       -0.988628   -1.006403    0.000000
      4          1           0        0.577204   -0.828408    0.870929
      5          1           0        0.577204   -0.828408   -0.870929
 ---------------------------------------------------------------------

 SCF Done:  E(UB3LYP) =  -77.8552977177     A.U. after   12 cycles

 The electronic state is 2-A'.
 Alpha  occ. eigenvalues --  -10.23953 -10.19276  -0.79159  -0.55852  -0.45896
 Alpha  occ. eigenvalues --   -0.44958  -0.30253  -0.21187
 Alpha virt. eigenvalues --   -0.10767  -0.01035   0.02607   0.02652   0.04295
 Alpha virt. eigenvalues --    0.08477   0.08567   0.09662   0.10006   0.10606
 Alpha virt. eigenvalues --    0.11797   0.15324   0.16218   0.16584   0.24462

  Beta  occ. eigenvalues --  -10.22525 -10.19359  -0.77876  -0.53076  -0.44747
  Beta  occ. eigenvalues --   -0.44401  -0.28178
  Beta virt. eigenvalues --   -0.09285  -0.05816  -0.00989   0.02632   0.02687
  Beta virt. eigenvalues --    0.04516   0.08517   0.08564   0.09809   0.10769
  Beta virt. eigenvalues --    0.11406   0.11857   0.15566   0.16276   0.17125

 Mulliken charges and spin densities:
               1          2
     1  C   -0.152794  -0.067251
     2  C   -0.336072   0.966095
     3  H    0.143805   0.070679
     4  H    0.172530   0.015238
     5  H    0.172530   0.015238
 Sum of Mulliken charges =  -0.00000   1.00000

 Dipole moment (field-independent basis, Debye):
    X=              0.1765    Y=             -2.6702    Z=              0.0000  Tot=              2.6760
 Quadrupole moment (field-independent basis, Debye-Ang):
   XX=            -13.9486   YY=            -17.2926   ZZ=            -12.2358
   XY=             -0.1846   XZ=             -0.0000   YZ=             -0.0000

  Exact polarizability:  25.958  -0.017  31.982   0.000   0.000  24.467
 Approx polarizability:  32.073  -0.554  40.165   0.000   0.000  34.719

 ******    1 imaginary frequencies (negative Signs) ******

                      1                      2                      3
                     A"                     A'                     A'
 Frequencies --   -899.9471               864.8977              1085.3289
 Red. masses --      1.2978                 1.3658                 2.9566
 Frc consts  --      0.6193                 0.6020                 2.0520
 IR Inten    --     11.5471                 1.9312                22.5970

                      4                      5                      6
                     A'                     A"                     A'
 Frequencies --   1285.5918              1397.8286              1400.3502
 Red. masses --      1.2614                 1.0475                 1.1604
 Frc consts  --      1.2283                 1.2059                 1.3408
 IR Inten    --     76.3533                26.1274                 7.0355

                      7                      8                      9
                     A'                     A"                     A'
 Frequencies --   2922.5904              2982.6019              2983.8218
 Red. masses --      1.0307                 1.0921                 1.1032
 Frc consts  --      5.1872                 5.7241                 5.7868
 IR Inten    --      4.5709                 0.0017                27.6762

 - Thermochemistry -
 -------------------
 Temperature   298.150 Kelvin.  Pressure   1.00000 Atm.
 Atom     1 has atomic number  6 and mass  12.00000

 Molecular mass:    27.02348 amu.
 Principal axes and moments of inertia in atomic units:
                           1         2         3
     Eigenvalues --    11.38826  62.07726  62.54588
           X           -0.00131   1.00000   0.00000
           Y            1.00000   0.00131   0.00000
           Z           -0.00000   0.00000   1.00000
 This molecule is an asymmetric top.
 Rotational symmetry number  1.
 Rotational temperatures (Kelvin)      7.60554     1.39526     1.38480
 Rotational constants (GHZ):         158.47386    29.07250    28.85468
    1 imaginary frequencies ignored.
 Zero-point vibrational energy      89259.4 (Joules/Mol)
                                   21.33352 (Kcal/Mol)
 Vibrational temperatures:   1244.39  1561.54  1849.68  2011.16  2014.79
          (Kelvin)           4204.95  4291.29  4293.05

 Zero-point correction=                           0.033997 (Hartree/Particle)
 Thermal correction to Energy=                    0.036945
 Thermal correction to Enthalpy=                  0.037889
 Thermal correction to Gibbs Free Energy=         0.011320
 Sum of electronic and zero-point Energies=            -77.821301
 Sum of electronic and thermal Energies=               -77.818353
 Sum of electronic and thermal Enthalpies=             -77.817409
 Sum of electronic and thermal Free Energies=          -77.843978

                     E (Thermal)             CV                S
                      KCal/Mol        Cal/Mol-Kelvin    Cal/Mol-Kelvin
 Total                   23.183              7.172             55.918
 Electronic               0.000              0.000              1.377
 Translational            0.889              2.981             35.818
 Rotational               0.889              2.981             18.431
 Vibrational             21.406              1.211              0.292

 Optimization completed.
    -- Stationary point found.
 Normal termination of Gaussian 09 at Mon Jun 20 10:42:44 2016.
