 Gaussian 09, Revision E.01,
 Gaussian 09:  EM64L-G09RevE.01 30-Nov-2015

 ---------------------------------------------
 #p b3lyp/6-311++G(3df,2p) freq symmetry=Loose
 ---------------------------------------------

 ---------
 b3lyp opt
 ---------
 Symbolic Z-matrix:
 Charge =  1 Multiplicity = 3

                         Standard orientation:
 ---------------------------------------------------------------------
 Center     Atomic      Atomic             Coordinates (Angstroms)
 Number     Number       Type             X           Y           Z
 ---------------------------------------------------------------------
      1          6           0       -0.017648   -0.502796    0.000000
      2          6           0       -0.017648    0.920980    0.000000
      3          1           0       -1.018777   -0.945098    0.000000
      4          1           0        0.615278   -0.782003    0.872899
      5          1           0        0.615278   -0.782003   -0.872899
 ---------------------------------------------------------------------

 SCF Done:  E(UB3LYP) =  -77.4660517599     A.U. after   12 cycles

 The electronic state is 3-A'.
 Alpha  occ. eigenvalues --  -10.64678 -10.50449  -1.11513  -0.86945  -0.75434
 Alpha  occ. eigenvalues --   -0.72923  -0.69737  -0.55323
 Alpha virt. eigenvalues --   -0.44093  -0.18892  -0.14398  -0.13596  -0.13159
 Alpha virt. eigenvalues --   -0.10473  -0.09142  -0.09021  -0.06131  -0.05669
 Alpha virt. eigenvalues --   -0.03055  -0.02903  -0.01408  -0.00849   0.02471

  Beta  occ. eigenvalues --  -10.61275 -10.50142  -1.07746  -0.80468  -0.72807
  Beta  occ. eigenvalues --   -0.72392
  Beta virt. eigenvalues --   -0.49281  -0.39554  -0.35738  -0.18357  -0.14241
  Beta virt. eigenvalues --   -0.13211  -0.12517  -0.10246  -0.08539  -0.08178
  Beta virt. eigenvalues --   -0.05328  -0.04944  -0.02691  -0.01280  -0.00842

 Mulliken charges and spin densities:
               1          2
     1  C   -0.090558   0.079786
     2  C    0.305814   1.830617
     3  H    0.236827   0.071100
     4  H    0.273959   0.009249
     5  H    0.273959   0.009249
 Sum of Mulliken charges =   1.00000   2.00000

 Dipole moment (field-independent basis, Debye):
    X=              0.3078    Y=              0.1077    Z=              0.0000  Tot=              0.3261
 Quadrupole moment (field-independent basis, Debye-Ang):
   XX=             -9.9129   YY=             -6.5061   ZZ=             -8.9462
   XY=             -0.2317   XZ=              0.0000   YZ=             -0.0000

  Exact polarizability:  16.772  -0.452  24.809  -0.000  -0.000  17.274
 Approx polarizability:  21.759  -1.801  39.186   0.000  -0.000  23.959

 ******    1 imaginary frequencies (negative Signs) ******

                      1                      2                      3
                     A"                     A'                     A'
 Frequencies --   -759.1017               907.6706              1062.9454
 Red. masses --      1.3320                 1.6270                 2.4883
 Frc consts  --      0.4522                 0.7898                 1.6564
 IR Inten    --    125.0669                39.4861                19.9861

                      4                      5                      6
                     A'                     A"                     A'
 Frequencies --   1179.4606              1253.1010              1343.7748
 Red. masses --      1.2510                 1.0367                 1.0954
 Frc consts  --      1.0254                 0.9592                 1.1654
 IR Inten    --     23.7456                25.9398                 5.2892

                      7                      8                      9
                     A"                     A'                     A'
 Frequencies --   2852.9951              2861.9484              3056.8750
 Red. masses --      1.0715                 1.0348                 1.1015
 Frc consts  --      5.1387                 4.9940                 6.0644
 IR Inten    --    142.3134               138.1646                62.2359

 - Thermochemistry -
 -------------------
 Temperature   298.150 Kelvin.  Pressure   1.00000 Atm.
 Atom     1 has atomic number  6 and mass  12.00000

 Molecular mass:    27.02348 amu.
 Principal axes and moments of inertia in atomic units:
                           1         2         3
     Eigenvalues --    11.96451  59.46456  60.45997
           X           -0.00516   0.99999   0.00000
           Y            0.99999   0.00516   0.00000
           Z            0.00000   0.00000   1.00000
 This molecule is an asymmetric top.
 Rotational symmetry number  1.
 Rotational temperatures (Kelvin)      7.23923     1.45656     1.43258
 Rotational constants (GHZ):         150.84123    30.34986    29.85019
    1 imaginary frequencies ignored.
 Zero-point vibrational energy      86841.5 (Joules/Mol)
                                   20.75562 (Kcal/Mol)
 Vibrational temperatures:   1305.93  1529.34  1696.98  1802.93  1933.39
          (Kelvin)           4104.82  4117.70  4398.16

 Zero-point correction=                           0.033076 (Hartree/Particle)
 Thermal correction to Energy=                    0.036031
 Thermal correction to Enthalpy=                  0.036975
 Thermal correction to Gibbs Free Energy=         0.010029
 Sum of electronic and zero-point Energies=            -77.432976
 Sum of electronic and thermal Energies=               -77.430021
 Sum of electronic and thermal Enthalpies=             -77.429076
 Sum of electronic and thermal Free Energies=          -77.456023

                     E (Thermal)             CV                S
                      KCal/Mol        Cal/Mol-Kelvin    Cal/Mol-Kelvin
 Total                   22.610              7.285             56.714
 Electronic               0.000              0.000              2.183
 Translational            0.889              2.981             35.818
 Rotational               0.889              2.981             18.404
 Vibrational             20.832              1.323              0.309

 Optimization completed.
    -- Stationary point found.
 Normal termination of Gaussian 09 at Mon Jun 20 10:42:43 2016.
