 Gaussian 09, Revision E.01,
 Gaussian 09:  EM64L-G09RevE.01 30-Nov-2015

 ---------------------------------------------
 #p b3lyp/6-311++G(3df,2p) freq symmetry=Loose
 ---------------------------------------------

 ---------
 b3lyp opt
 ---------
 Symbolic Z-matrix:
 Charge =  1 Multiplicity = 3

                         Standard orientation:
 ---------------------------------------------------------------------
 Center     Atomic      Atomic             Coordinates (Angstroms)
 Number     Number       Type             X           Y           Z
 ---------------------------------------------------------------------
      1          6           0        0.000000    0.620972    0.000000
      2          1           0       -0.000224    1.713920    0.000000
      3          6           0       -0.996000   -0.265827    0.000000
      4          1           0       -1.644103   -1.125281    0.000000
      5          6           0        0.996017   -0.265737    0.000000
      6          1           0        1.644225   -1.125092    0.000000
 ---------------------------------------------------------------------

 SCF Done:  E(UB3LYP) =  -115.622082943     A.U. after   12 cycles

 The electronic state is 3-A".
 Alpha  occ. eigenvalues --  -10.52913 -10.52909 -10.49536  -1.14785  -0.93129
 Alpha  occ. eigenvalues --   -0.85649  -0.77475  -0.75789  -0.64679  -0.54246
 Alpha  occ. eigenvalues --   -0.48090
 Alpha virt. eigenvalues --   -0.33875  -0.25351  -0.17251  -0.15283  -0.14871
 Alpha virt. eigenvalues --   -0.11813  -0.10551  -0.08831  -0.07540  -0.06553
 Alpha virt. eigenvalues --   -0.05536  -0.05491  -0.04072  -0.01888  -0.00961

  Beta  occ. eigenvalues --  -10.51080 -10.51079 -10.50031  -1.12464  -0.87845
  Beta  occ. eigenvalues --   -0.83418  -0.75879  -0.74465  -0.60723
  Beta virt. eigenvalues --   -0.41031  -0.33383  -0.26888  -0.22955  -0.16302
  Beta virt. eigenvalues --   -0.15038  -0.13780  -0.11245  -0.10034  -0.07885
  Beta virt. eigenvalues --   -0.06699  -0.05913  -0.05128  -0.04582  -0.03573

 Mulliken charges and spin densities:
               1          2
     1  C    0.080139  -0.352780
     2  H    0.256660   0.094330
     3  C   -0.036746   1.160062
     4  H    0.368280  -0.030746
     5  C   -0.036633   1.159881
     6  H    0.368299  -0.030747
 Sum of Mulliken charges =   1.00000   2.00000

 Dipole moment (field-independent basis, Debye):
    X=             -0.0000    Y=             -0.7859    Z=             -0.0000  Tot=              0.7859
 Quadrupole moment (field-independent basis, Debye-Ang):
   XX=             -7.6044   YY=             -9.2246   ZZ=            -17.7462
   XY=             -0.0003   XZ=             -0.0000   YZ=             -0.0000

  Exact polarizability:  41.816   0.001  26.950   0.000   0.000  19.359
 Approx polarizability:  80.925   0.001  38.811  -0.000  -0.000  25.895

 ******    2 imaginary frequencies (negative Signs) ******

                      1                      2                      3
                     A"                     A"                     A'
 Frequencies --   -277.4868              -210.7934               385.9946
 Red. masses --      1.2151                 1.4952                 4.0711
 Frc consts  --      0.0551                 0.0391                 0.3574
 IR Inten    --      0.0000                91.8007                 0.6989

                      4                      5                      6
                     A'                     A"                     A'
 Frequencies --    600.5002               646.9430               661.0054
 Red. masses --      1.2058                 1.2188                 1.2811
 Frc consts  --      0.2562                 0.3005                 0.3298
 IR Inten    --     17.8114                63.6756                64.2373

                      7                      8                      9
                     A'                     A'                     A'
 Frequencies --   1088.8794              1123.5333              1488.5057
 Red. masses --      1.1251                 5.9616                 5.2508
 Frc consts  --      0.7860                 4.4339                 6.8545
 IR Inten    --     16.0736                 2.9626                 0.2354

                     10                     11                     12
                     A'                     A'                     A'
 Frequencies --   3061.3026              3284.9514              3307.6147
 Red. masses --      1.0952                 1.0993                 1.1181
 Frc consts  --      6.0470                 6.9892                 7.2068
 IR Inten    --    109.4515               253.2416               149.1996

 - Thermochemistry -
 -------------------
 Temperature   298.150 Kelvin.  Pressure   1.00000 Atm.
 Atom     1 has atomic number  6 and mass  12.00000

 Molecular mass:    39.02348 amu.
 Principal axes and moments of inertia in atomic units:
                           1         2         3
     Eigenvalues --    42.23780 104.48088 146.71868
           X            1.00000  -0.00005   0.00000
           Y            0.00005   1.00000   0.00000
           Z            0.00000   0.00000   1.00000
 This molecule is an asymmetric top.
 Rotational symmetry number  1.
 Rotational temperatures (Kelvin)      2.05062     0.82899     0.59034
 Rotational constants (GHZ):          42.72811    17.27341    12.30069
    2 imaginary frequencies ignored.
 Zero-point vibrational energy      93603.2 (Joules/Mol)
                                   22.37170 (Kcal/Mol)
 Warning -- explicit consideration of   2 degrees of freedom as
           vibrations may cause significant error
 Vibrational temperatures:    555.36   863.98   930.81   951.04  1566.65
          (Kelvin)           1616.51  2141.63  4404.53  4726.31  4758.91

 Zero-point correction=                           0.035652 (Hartree/Particle)
 Thermal correction to Energy=                    0.039286
 Thermal correction to Enthalpy=                  0.040230
 Thermal correction to Gibbs Free Energy=         0.010523
 Sum of electronic and zero-point Energies=           -115.586431
 Sum of electronic and thermal Energies=              -115.582797
 Sum of electronic and thermal Enthalpies=            -115.581853
 Sum of electronic and thermal Free Energies=         -115.611560

                     E (Thermal)             CV                S
                      KCal/Mol        Cal/Mol-Kelvin    Cal/Mol-Kelvin
 Total                   24.652             10.961             62.524
 Electronic               0.000              0.000              2.183
 Translational            0.889              2.981             36.913
 Rotational               0.889              2.981             21.098
 Vibrational             22.875              4.999              2.330
 Vibration     1          0.755              1.500              1.016
 Vibration     2          0.959              1.031              0.449

 Optimization completed.
    -- Stationary point found.
 Normal termination of Gaussian 09 at Mon Jun 20 10:45:15 2016.
