 Gaussian 09, Revision E.01,
 Gaussian 09:  EM64L-G09RevE.01 30-Nov-2015

 ---------------------------------------------
 #p b3lyp/6-311++G(3df,2p) freq symmetry=Loose
 ---------------------------------------------

 ---------
 b3lyp opt
 ---------
 Symbolic Z-matrix:
 Charge =  2 Multiplicity = 2

                         Standard orientation:
 ---------------------------------------------------------------------
 Center     Atomic      Atomic             Coordinates (Angstroms)
 Number     Number       Type             X           Y           Z
 ---------------------------------------------------------------------
      1          6           0        0.000000    0.000000    0.841906
      2          1           0        0.000000    0.000000    1.950858
      3          6           0        0.000000    0.647634   -0.465526
      4          1           0        0.000000    1.743727   -0.707989
      5          6           0       -0.000000   -0.647634   -0.465526
      6          1           0       -0.000000   -1.743727   -0.707989
 ---------------------------------------------------------------------

 SCF Done:  E(UB3LYP) =  -115.046270965     A.U. after   12 cycles

 The electronic state is 2-B2.
 Alpha  occ. eigenvalues --  -10.90265 -10.85947 -10.85840  -1.55332  -1.18139
 Alpha  occ. eigenvalues --   -1.17429  -1.09814  -1.00749  -0.97255  -0.93609
 Alpha virt. eigenvalues --   -0.64092  -0.57926  -0.43594  -0.43497  -0.41330
 Alpha virt. eigenvalues --   -0.35942  -0.34283  -0.30124  -0.29691  -0.26264
 Alpha virt. eigenvalues --   -0.25464  -0.23766  -0.21478  -0.21309  -0.20674

  Beta  occ. eigenvalues --  -10.89160 -10.85704 -10.85592  -1.53077  -1.15703
  Beta  occ. eigenvalues --   -1.14449  -1.07574  -0.99824  -0.96630
  Beta virt. eigenvalues --   -0.80172  -0.62932  -0.57668  -0.42221  -0.41018
  Beta virt. eigenvalues --   -0.38977  -0.35067  -0.34047  -0.29814  -0.29614
  Beta virt. eigenvalues --   -0.25112  -0.24935  -0.23111  -0.21379  -0.21262

 Mulliken charges and spin densities:
               1          2
     1  C    0.160464   0.635309
     2  H    0.392992  -0.011337
     3  C    0.287033   0.116154
     4  H    0.436238   0.071860
     5  C    0.287033   0.116154
     6  H    0.436238   0.071860
 Sum of Mulliken charges =   2.00000   1.00000

 Dipole moment (field-independent basis, Debye):
    X=             -0.0000    Y=             -0.0000    Z=              0.7538  Tot=              0.7538
 Quadrupole moment (field-independent basis, Debye-Ang):
   XX=            -14.0124   YY=             -1.6103   ZZ=             -3.4437
   XY=              0.0000   XZ=              0.0000   YZ=              0.0000

  Exact polarizability:  13.934  -0.000  25.696  -0.000  -0.000  24.855
 Approx polarizability:  20.108   0.000  42.063   0.000  -0.000  42.879

 ******    1 imaginary frequencies (negative Signs) ******

                      1                      2                      3
                     B2                     A2                     B2
 Frequencies --   -619.0136               559.7033               702.3354
 Red. masses --      3.7879                 1.5426                 1.2625
 Frc consts  --      0.8552                 0.2847                 0.3669
 IR Inten    --     65.2952                 0.0000                13.0407

                      4                      5                      6
                     B1                     A1                     B2
 Frequencies --    741.0449               862.1495               882.3146
 Red. masses --      1.0871                 1.1426                 1.3973
 Frc consts  --      0.3517                 0.5004                 0.6409
 IR Inten    --    137.2385                36.0844                 8.1835

                      7                      8                      9
                     B1                     A1                     A1
 Frequencies --    899.5847              1174.0012              1672.5217
 Red. masses --      1.3228                 4.4157                 3.9499
 Frc consts  --      0.6307                 3.5858                 6.5100
 IR Inten    --      0.1679               125.5592                29.0732

                     10                     11                     12
                     B2                     A1                     A1
 Frequencies --   2745.3169              2901.7057              2989.8450
 Red. masses --      1.0749                 1.2175                 1.1151
 Frc consts  --      4.7731                 6.0400                 5.8728
 IR Inten    --   1100.7633               126.4020               305.8393

 - Thermochemistry -
 -------------------
 Temperature   298.150 Kelvin.  Pressure   1.00000 Atm.
 Atom     1 has atomic number  6 and mass  12.00000

 Molecular mass:    39.02348 amu.
 Principal axes and moments of inertia in atomic units:
                           1         2         3
     Eigenvalues --    57.83364  66.22743 124.06106
           X            0.00000   0.00000   1.00000
           Y            0.00000   1.00000   0.00000
           Z            1.00000   0.00000   0.00000
 This molecule is an asymmetric top.
 Rotational symmetry number  2.
 Rotational temperatures (Kelvin)      1.49764     1.30782     0.69815
 Rotational constants (GHZ):          31.20573    27.25066    14.54720
    1 imaginary frequencies ignored.
 Zero-point vibrational energy      96482.0 (Joules/Mol)
                                   23.05974 (Kcal/Mol)
 Warning -- explicit consideration of   1 degrees of freedom as
           vibrations may cause significant error
 Vibrational temperatures:    805.29  1010.50  1066.20  1240.44  1269.45
          (Kelvin)           1294.30  1689.12  2406.38  3949.89  4174.90
                             4301.71

 Zero-point correction=                           0.036748 (Hartree/Particle)
 Thermal correction to Energy=                    0.040168
 Thermal correction to Enthalpy=                  0.041112
 Thermal correction to Gibbs Free Energy=         0.012939
 Sum of electronic and zero-point Energies=           -115.009523
 Sum of electronic and thermal Energies=              -115.006103
 Sum of electronic and thermal Enthalpies=            -115.005159
 Sum of electronic and thermal Free Energies=         -115.033332

                     E (Thermal)             CV                S
                      KCal/Mol        Cal/Mol-Kelvin    Cal/Mol-Kelvin
 Total                   25.206             10.501             59.296
 Electronic               0.000              0.000              1.377
 Translational            0.889              2.981             36.913
 Rotational               0.889              2.981             19.413
 Vibrational             23.428              4.539              1.592
 Vibration     1          0.915              1.119              0.524

 Optimization completed.
    -- Stationary point found.
 Normal termination of Gaussian 09 at Mon Jun 20 10:44:37 2016.
