 Gaussian 09, Revision E.01,
 Gaussian 09:  EM64L-G09RevE.01 30-Nov-2015

 ---------------------------------------------
 #p b3lyp/6-311++G(3df,2p) freq symmetry=Loose
 ---------------------------------------------

 ---------
 b3lyp opt
 ---------
 Symbolic Z-matrix:
 Charge =  2 Multiplicity = 4

                         Standard orientation:
 ---------------------------------------------------------------------
 Center     Atomic      Atomic             Coordinates (Angstroms)
 Number     Number       Type             X           Y           Z
 ---------------------------------------------------------------------
      1          6           0        0.000780   -1.298697   -0.000000
      2          1           0       -0.952705   -1.879346   -0.000000
      3          1           0        0.954859   -1.878341   -0.000000
      4          6           0       -0.000000    0.074029    0.000000
      5          6           0       -0.000879    1.428659    0.000000
      6          1           0       -0.001563    2.533744    0.000000
 ---------------------------------------------------------------------

 SCF Done:  E(UB3LYP) =  -114.970007220     A.U. after   13 cycles

 The electronic state is 4-A'.
 Alpha  occ. eigenvalues --  -10.91142 -10.86885 -10.78630  -1.42722  -1.30741
 Alpha  occ. eigenvalues --   -1.10022  -1.04033  -1.00197  -0.96747  -0.88817
 Alpha  occ. eigenvalues --   -0.79259
 Alpha virt. eigenvalues --   -0.61064  -0.55909  -0.44576  -0.37225  -0.31590
 Alpha virt. eigenvalues --   -0.29786  -0.29008  -0.27614  -0.26067  -0.25213
 Alpha virt. eigenvalues --   -0.24965  -0.22250  -0.21312  -0.18314  -0.16534

  Beta  occ. eigenvalues --  -10.89593 -10.84722 -10.77562  -1.35382  -1.25416
  Beta  occ. eigenvalues --   -1.07031  -1.01855  -0.96263
  Beta virt. eigenvalues --   -0.78830  -0.75489  -0.62543  -0.53591  -0.45258
  Beta virt. eigenvalues --   -0.39653  -0.36232  -0.30422  -0.29109  -0.27384
  Beta virt. eigenvalues --   -0.26262  -0.24979  -0.24767  -0.23422  -0.21201

 Mulliken charges and spin densities:
               1          2
     1  C   -0.272205   0.676487
     2  H    0.338193   0.037408
     3  H    0.338206   0.037401
     4  C    0.445631   1.049604
     5  C    0.655278   1.236516
     6  H    0.494897  -0.037415
 Sum of Mulliken charges =   2.00000   3.00000

 Dipole moment (field-independent basis, Debye):
    X=             -0.0007    Y=              0.9211    Z=              0.0000  Tot=              0.9211
 Quadrupole moment (field-independent basis, Debye-Ang):
   XX=            -11.2123   YY=             12.3694   ZZ=            -14.1255
   XY=             -0.0143   XZ=             -0.0000   YZ=              0.0000

  Exact polarizability:  17.890  -0.020  51.371   0.000   0.000  15.175
 Approx polarizability:  24.632  -0.037  86.969  -0.000   0.000  20.547

 ******    1 imaginary frequencies (negative Signs) ******

                      1                      2                      3
                     A"                     A'                     A"
 Frequencies --   -388.0403               321.0811               374.2816
 Red. masses --      1.3059                 2.3218                 3.7080
 Frc consts  --      0.1159                 0.1410                 0.3060
 IR Inten    --     40.7205                16.1914                 9.1423

                      4                      5                      6
                     A'                     A"                     A'
 Frequencies --    632.7207               729.0286               802.4603
 Red. masses --      1.2616                 1.3350                 1.5813
 Frc consts  --      0.2976                 0.4181                 0.5999
 IR Inten    --     16.2418                65.0498                12.1543

                      7                      8                      9
                     A'                     A'                     A'
 Frequencies --    976.7311              1204.8724              1776.1358
 Red. masses --      5.9940                 1.0699                 7.7388
 Frc consts  --      3.3691                 0.9151                14.3838
 IR Inten    --     31.9610               185.1229                50.7971

                     10                     11                     12
                     A'                     A'                     A'
 Frequencies --   2799.5491              2870.8761              3023.3398
 Red. masses --      1.0495                 1.1114                 1.1245
 Frc consts  --      4.8461                 5.3969                 6.0557
 IR Inten    --    799.8770               355.3415               664.0330

 - Thermochemistry -
 -------------------
 Temperature   298.150 Kelvin.  Pressure   1.00000 Atm.
 Atom     1 has atomic number  6 and mass  12.00000

 Molecular mass:    39.02348 amu.
 Principal axes and moments of inertia in atomic units:
                           1         2         3
     Eigenvalues --     6.54804 208.35601 214.90405
           X           -0.00061   1.00000   0.00000
           Y            1.00000   0.00061   0.00000
           Z           -0.00000  -0.00000   1.00000
 This molecule is an asymmetric top.
 Rotational symmetry number  1.
 Rotational temperatures (Kelvin)     13.22743     0.41570     0.40303
 Rotational constants (GHZ):         275.61531     8.66182     8.39789
    1 imaginary frequencies ignored.
 Zero-point vibrational energy      92776.8 (Joules/Mol)
                                   22.17420 (Kcal/Mol)
 Warning -- explicit consideration of   2 degrees of freedom as
           vibrations may cause significant error
 Vibrational temperatures:    461.96   538.51   910.34  1048.91  1154.56
          (Kelvin)           1405.30  1733.54  2555.46  4027.92  4130.55
                             4349.91

 Zero-point correction=                           0.035337 (Hartree/Particle)
 Thermal correction to Energy=                    0.039279
 Thermal correction to Enthalpy=                  0.040224
 Thermal correction to Gibbs Free Energy=         0.010115
 Sum of electronic and zero-point Energies=           -114.934670
 Sum of electronic and thermal Energies=              -114.930728
 Sum of electronic and thermal Enthalpies=            -114.929784
 Sum of electronic and thermal Free Energies=         -114.959892

                     E (Thermal)             CV                S
                      KCal/Mol        Cal/Mol-Kelvin    Cal/Mol-Kelvin
 Total                   24.648             12.138             63.368
 Electronic               0.000              0.000              2.755
 Translational            0.889              2.981             36.913
 Rotational               0.889              2.981             20.311
 Vibrational             22.871              6.177              3.389
 Vibration     1          0.707              1.633              1.305
 Vibration     2          0.745              1.525              1.062

 Optimization completed.
    -- Stationary point found.
 Normal termination of Gaussian 09 at Mon Jun 20 10:45:10 2016.
