 Gaussian 09, Revision E.01,
 Gaussian 09:  EM64L-G09RevE.01 30-Nov-2015

 ---------------------------------------------
 #p b3lyp/6-311++G(3df,2p) freq symmetry=Loose
 ---------------------------------------------

 ---------
 b3lyp opt
 ---------
 Symbolic Z-matrix:
 Charge =  0 Multiplicity = 2

                         Standard orientation:
 ---------------------------------------------------------------------
 Center     Atomic      Atomic             Coordinates (Angstroms)
 Number     Number       Type             X           Y           Z
 ---------------------------------------------------------------------
      1          6           0        0.000000    0.746517    0.000000
      2          1           0        0.001466    1.825678    0.000000
      3          6           0        0.749590   -0.377882   -0.000000
      4          1           0        1.693724   -0.879001   -0.000000
      5          6           0       -0.750006   -0.379406    0.000000
      6          1           0       -1.692692   -0.882049    0.000000
 ---------------------------------------------------------------------

 SCF Done:  E(UB3LYP) =  -115.984248434     A.U. after   14 cycles

 The electronic state is 2-A".
 Alpha  occ. eigenvalues --  -10.21855 -10.19186 -10.19155  -0.89964  -0.59689
 Alpha  occ. eigenvalues --   -0.58305  -0.52728  -0.38200  -0.37943  -0.32229
 Alpha  occ. eigenvalues --   -0.13045
 Alpha virt. eigenvalues --   -0.02655   0.00214   0.01197   0.01406   0.05655
 Alpha virt. eigenvalues --    0.06591   0.07221   0.07390   0.10182   0.10400
 Alpha virt. eigenvalues --    0.11786   0.11932   0.11996   0.12539   0.16048

  Beta  occ. eigenvalues --  -10.22141 -10.18304 -10.18260  -0.88984  -0.58138
  Beta  occ. eigenvalues --   -0.57389  -0.51920  -0.37585  -0.34962  -0.31518
  Beta virt. eigenvalues --   -0.01433  -0.01351   0.00182   0.01348   0.01378
  Beta virt. eigenvalues --    0.05869   0.06610   0.07226   0.07378   0.10615
  Beta virt. eigenvalues --    0.11830   0.11850   0.12057   0.12391   0.12733

 Mulliken charges and spin densities:
               1          2
     1  C   -0.250186  -0.174038
     2  H    0.196559   0.004551
     3  C   -0.218969   0.614110
     4  H    0.245394  -0.033638
     5  C   -0.218971   0.623002
     6  H    0.246174  -0.033988
 Sum of Mulliken charges =  -0.00000   1.00000

 Dipole moment (field-independent basis, Debye):
    X=              0.0100    Y=              0.7156    Z=             -0.0000  Tot=              0.7157
 Quadrupole moment (field-independent basis, Debye-Ang):
   XX=            -17.2134   YY=            -16.0039   ZZ=            -20.6257
   XY=             -0.0042   XZ=              0.0000   YZ=             -0.0000

  Exact polarizability:  46.776   0.002  34.349   0.000  -0.000  30.961
 Approx polarizability:  67.272  -0.066  51.120  -0.000  -0.000  39.595

 ******    2 imaginary frequencies (negative Signs) ******

                      1                      2                      3
                     A"                     A"                     A'
 Frequencies --   -647.8731              -501.2445               544.5227
 Red. masses --      1.3886                 1.1401                 2.8493
 Frc consts  --      0.3434                 0.1688                 0.4978
 IR Inten    --      0.4484               136.8194               305.4384

                      4                      5                      6
                     A'                     A"                     A'
 Frequencies --    846.0746               914.8945               936.8759
 Red. masses --      1.3152                 1.3527                 1.4307
 Frc consts  --      0.5547                 0.6671                 0.7399
 IR Inten    --     16.0291                 6.5041                13.6612

                      7                      8                      9
                     A'                     A'                     A'
 Frequencies --   1020.4816              1108.7487              1590.1365
 Red. masses --      3.0979                 1.3693                 5.0416
 Frc consts  --      1.9007                 0.9918                 7.5108
 IR Inten    --     47.7873                 7.7034                 2.0349

                     10                     11                     12
                     A'                     A'                     A'
 Frequencies --   3215.6949              3315.0374              3357.2563
 Red. masses --      1.1040                 1.0806                 1.1284
 Frc consts  --      6.7259                 6.9967                 7.4932
 IR Inten    --      2.9094                54.3448                 2.3651

 - Thermochemistry -
 -------------------
 Temperature   298.150 Kelvin.  Pressure   1.00000 Atm.
 Atom     1 has atomic number  6 and mass  12.00000

 Molecular mass:    39.02348 amu.
 Principal axes and moments of inertia in atomic units:
                           1         2         3
     Eigenvalues --    53.74495  68.82023 122.56518
           X            0.99999  -0.00535   0.00000
           Y            0.00535   0.99999   0.00000
           Z            0.00000  -0.00000   1.00000
 This molecule is an asymmetric top.
 Rotational symmetry number  1.
 Rotational temperatures (Kelvin)      1.61157     1.25855     0.70668
 Rotational constants (GHZ):          33.57973    26.22399    14.72475
    2 imaginary frequencies ignored.
 Zero-point vibrational energy     100783.7 (Joules/Mol)
                                   24.08789 (Kcal/Mol)
 Warning -- explicit consideration of   1 degrees of freedom as
           vibrations may cause significant error
 Vibrational temperatures:    783.45  1217.31  1316.33  1347.95  1468.24
          (Kelvin)           1595.24  2287.85  4626.66  4769.59  4830.34

 Zero-point correction=                           0.038386 (Hartree/Particle)
 Thermal correction to Energy=                    0.041638
 Thermal correction to Enthalpy=                  0.042582
 Thermal correction to Gibbs Free Energy=         0.013994
 Sum of electronic and zero-point Energies=           -115.945862
 Sum of electronic and thermal Energies=              -115.942611
 Sum of electronic and thermal Enthalpies=            -115.941666
 Sum of electronic and thermal Free Energies=         -115.970255

                     E (Thermal)             CV                S
                      KCal/Mol        Cal/Mol-Kelvin    Cal/Mol-Kelvin
 Total                   26.128              9.305             60.170
 Electronic               0.000              0.000              1.377
 Translational            0.889              2.981             36.913
 Rotational               0.889              2.981             20.744
 Vibrational             24.351              3.344              1.135
 Vibration     1          0.900              1.152              0.556

 Normal termination of Gaussian 09 at Mon Jun 20 10:45:16 2016.
