 Gaussian 09, Revision E.01,
 Gaussian 09:  EM64L-G09RevE.01 30-Nov-2015

 ---------------------------------------------
 #p b3lyp/6-311++G(3df,2p) freq symmetry=Loose
 ---------------------------------------------

 ---------
 b3lyp opt
 ---------
 Symbolic Z-matrix:
 Charge =  3 Multiplicity = 3

                         Standard orientation:
 ---------------------------------------------------------------------
 Center     Atomic      Atomic             Coordinates (Angstroms)
 Number     Number       Type             X           Y           Z
 ---------------------------------------------------------------------
      1          6           0        0.000000    0.470469    0.000000
      2          1           0        0.081034    1.632061    0.000000
      3          6           0       -1.283027   -0.063293    0.000000
      4          1           0       -2.370894   -0.483859    0.000000
      5          6           0        1.372621   -0.357761    0.000000
      6          1           0        1.752297   -1.444687    0.000000
 ---------------------------------------------------------------------

 SCF Done:  E(UB3LYP) =  -114.025339946     A.U. after   14 cycles

 The electronic state is 3-A".
 Alpha  occ. eigenvalues --  -11.23700 -11.18836 -11.14787  -1.68671  -1.51570
 Alpha  occ. eigenvalues --   -1.38422  -1.31454  -1.26678  -1.20072  -1.10419
 Alpha virt. eigenvalues --   -0.98596  -0.98353  -0.85445  -0.71347  -0.65942
 Alpha virt. eigenvalues --   -0.57230  -0.53998  -0.53609  -0.46314  -0.46234
 Alpha virt. eigenvalues --   -0.45325  -0.44501  -0.44163  -0.38815  -0.38409

  Beta  occ. eigenvalues --  -11.22707 -11.16975 -11.13931  -1.64430  -1.47436
  Beta  occ. eigenvalues --   -1.36352  -1.29877  -1.25077
  Beta virt. eigenvalues --   -1.05937  -0.97343  -0.92959  -0.89498  -0.78810
  Beta virt. eigenvalues --   -0.68656  -0.64289  -0.56229  -0.53259  -0.51538
  Beta virt. eigenvalues --   -0.45694  -0.45415  -0.44238  -0.43115  -0.43048

 Mulliken charges and spin densities:
               1          2
     1  C    0.293330   0.558486
     2  H    0.361495   0.015929
     3  C    0.771232   0.518939
     4  H    0.554494  -0.010835
     5  C    0.588781   0.891650
     6  H    0.430667   0.025831
 Sum of Mulliken charges =   3.00000   2.00000

 Dipole moment (field-independent basis, Debye):
    X=             -1.4603    Y=             -1.1392    Z=              0.0000  Tot=              1.8520
 Quadrupole moment (field-independent basis, Debye-Ang):
   XX=             18.2088   YY=             -2.1493   ZZ=            -11.6518
   XY=             -3.5383   XZ=              0.0000   YZ=              0.0000

  Exact polarizability:  42.486  -2.971  20.985  -0.000   0.000  14.178
 Approx polarizability:  75.079  -2.110  29.360  -0.000  -0.000  19.644

 ******    1 imaginary frequencies (negative Signs) ******

                      1                      2                      3
                     A"                     A'                     A"
 Frequencies --   -685.9344               208.9553               634.4730
 Red. masses --      1.2672                 2.8411                 1.1654
 Frc consts  --      0.3513                 0.0731                 0.2764
 IR Inten    --     61.0393                43.0340                87.4995

                      4                      5                      6
                     A'                     A'                     A"
 Frequencies --    684.5639               724.1458               774.4018
 Red. masses --      4.3230                 1.1248                 1.7100
 Frc consts  --      1.1936                 0.3475                 0.6042
 IR Inten    --    185.7211               113.5420                 2.0708

                      7                      8                      9
                     A'                     A'                     A'
 Frequencies --    921.4659              1085.3370              1248.9374
 Red. masses --      1.5536                 1.2783                 4.1557
 Frc consts  --      0.7772                 0.8872                 3.8193
 IR Inten    --     23.7443                 1.5654               388.2296

                     10                     11                     12
                     A'                     A'                     A'
 Frequencies --   2381.9612              2481.6207              2592.7461
 Red. masses --      1.0740                 1.1393                 1.1026
 Frc consts  --      3.5901                 4.1341                 4.3672
 IR Inten    --    827.8848               810.7982               466.1888

 - Thermochemistry -
 -------------------
 Temperature   298.150 Kelvin.  Pressure   1.00000 Atm.
 Atom     1 has atomic number  6 and mass  12.00000

 Molecular mass:    39.02348 amu.
 Principal axes and moments of inertia in atomic units:
                           1         2         3
     Eigenvalues --    29.87984 185.75432 215.63415
           X            0.98970   0.14316   0.00000
           Y           -0.14316   0.98970   0.00000
           Z           -0.00000   0.00000   1.00000
 This molecule is an asymmetric top.
 Rotational symmetry number  1.
 Rotational temperatures (Kelvin)      2.89874     0.46628     0.40167
 Rotational constants (GHZ):          60.39996     9.71574     8.36946
    1 imaginary frequencies ignored.
 Zero-point vibrational energy      82175.1 (Joules/Mol)
                                   19.64033 (Kcal/Mol)
 Warning -- explicit consideration of   1 degrees of freedom as
           vibrations may cause significant error
 Vibrational temperatures:    300.64   912.86   984.93  1041.88  1114.19
          (Kelvin)           1325.78  1561.56  1796.94  3427.11  3570.49
                             3730.38

 Zero-point correction=                           0.031299 (Hartree/Particle)
 Thermal correction to Energy=                    0.035219
 Thermal correction to Enthalpy=                  0.036163
 Thermal correction to Gibbs Free Energy=         0.005606
 Sum of electronic and zero-point Energies=           -113.994041
 Sum of electronic and thermal Energies=              -113.990121
 Sum of electronic and thermal Enthalpies=            -113.989177
 Sum of electronic and thermal Free Energies=         -114.019734

                     E (Thermal)             CV                S
                      KCal/Mol        Cal/Mol-Kelvin    Cal/Mol-Kelvin
 Total                   22.100             12.030             64.313
 Electronic               0.000              0.000              2.183
 Translational            0.889              2.981             36.913
 Rotational               0.889              2.981             21.709
 Vibrational             20.323              6.068              3.508
 Vibration     1          0.642              1.827              2.053

 Optimization completed.
    -- Stationary point found.
 Normal termination of Gaussian 09 at Mon Jun 20 10:45:09 2016.
