 Gaussian 09, Revision E.01,
 Gaussian 09:  EM64L-G09RevE.01 30-Nov-2015

 ---------------------------------------------
 #p b3lyp/6-311++G(3df,2p) freq symmetry=Loose
 ---------------------------------------------

 ---------
 b3lyp opt
 ---------
 Symbolic Z-matrix:
 Charge =  0 Multiplicity = 2

                         Standard orientation:
 ---------------------------------------------------------------------
 Center     Atomic      Atomic             Coordinates (Angstroms)
 Number     Number       Type             X           Y           Z
 ---------------------------------------------------------------------
      1          6           0        0.000000    0.924140    0.000000
      2          1           0       -0.189369    1.993918   -0.000000
      3          6           0       -0.914508   -0.135696   -0.000000
      4          1           0       -2.000665   -0.105753   -0.000000
      5          6           0        1.284620    0.374195    0.000000
      6          6           0       -0.181358   -1.325652   -0.000000
      7          1           0        1.057507   -0.910083    0.000000
 ---------------------------------------------------------------------

 SCF Done:  E(UB3LYP) =  -153.967754010     A.U. after   15 cycles

 The electronic state is 2-A".
 Alpha  occ. eigenvalues --  -10.24844 -10.24815 -10.23569 -10.23523  -0.90009
 Alpha  occ. eigenvalues --   -0.72554  -0.65819  -0.50872  -0.50527  -0.46504
 Alpha  occ. eigenvalues --   -0.40264  -0.30798  -0.26482  -0.25303
 Alpha virt. eigenvalues --   -0.11199  -0.08751  -0.01070   0.01445   0.01982
 Alpha virt. eigenvalues --    0.02534   0.04737   0.06369   0.06833   0.07407
 Alpha virt. eigenvalues --    0.08899   0.09999   0.10903   0.11421   0.11486

  Beta  occ. eigenvalues --  -10.24304 -10.24275 -10.23347 -10.23297  -0.88844
  Beta  occ. eigenvalues --   -0.70604  -0.65170  -0.50426  -0.49633  -0.46123
  Beta  occ. eigenvalues --   -0.36933  -0.29917  -0.24587
  Beta virt. eigenvalues --   -0.16841  -0.08096  -0.08054  -0.01045   0.01484
  Beta virt. eigenvalues --    0.02655   0.04812   0.04979   0.06382   0.06901
  Beta virt. eigenvalues --    0.07544   0.09350   0.10507   0.10962   0.11484

 Mulliken charges and spin densities:
               1          2
     1  C    0.212673   0.169651
     2  H    0.176509  -0.008721
     3  C    0.212371   0.169383
     4  H    0.176718  -0.008733
     5  C   -0.455139   0.340845
     6  C   -0.454941   0.340995
     7  H    0.131808  -0.003420
 Sum of Mulliken charges =  -0.00000   1.00000

 Dipole moment (field-independent basis, Debye):
    X=             -2.4735    Y=              2.1270    Z=             -0.0000  Tot=              3.2622
 Quadrupole moment (field-independent basis, Debye-Ang):
   XX=            -26.7047   YY=            -27.2850   ZZ=            -25.3046
   XY=             -1.9450   XZ=             -0.0000   YZ=             -0.0000

  Exact polarizability:  59.566  10.366  62.513   0.001  -0.001  34.673
 Approx polarizability: 113.072  38.429 124.429   0.000   0.000  50.273

 ******    1 imaginary frequencies (negative Signs) ******

                      1                      2                      3
                     A"                     A'                     A"
 Frequencies --  -1393.2056               558.7404               640.1052
 Red. masses --      1.7372                 8.5481                 1.2737
 Frc consts  --      1.9867                 1.5723                 0.3075
 IR Inten    --      0.0048                 1.4121                 8.6069

                      4                      5                      6
                     A'                     A'                     A"
 Frequencies --    644.7713               906.4982               908.5330
 Red. masses --      2.1233                 1.7152                 2.3633
 Frc consts  --      0.5201                 0.8304                 1.1493
 IR Inten    --    177.9602                75.7210                 0.0005

                      7                      8                      9
                     A"                     A'                     A'
 Frequencies --    983.6225              1095.7743              1121.7214
 Red. masses --      1.0647                 1.3002                 1.7256
 Frc consts  --      0.6069                 0.9198                 1.2793
 IR Inten    --     22.2714                 1.0144                 3.1924

                     10                     11                     12
                     A'                     A'                     A'
 Frequencies --   1252.6094              1440.5426              1520.4982
 Red. masses --      4.2677                 2.4492                 4.7038
 Frc consts  --      3.9453                 2.9945                 6.4073
 IR Inten    --      1.2414                56.5205                33.5450

                     13                     14                     15
                     A'                     A'                     A'
 Frequencies --   1850.4883              3115.1168              3132.4949
 Red. masses --      1.0752                 1.0845                 1.0989
 Frc consts  --      2.1694                 6.2003                 6.3530
 IR Inten    --     40.7104                22.2814                19.0828

 - Thermochemistry -
 -------------------
 Temperature   298.150 Kelvin.  Pressure   1.00000 Atm.
 Atom     1 has atomic number  6 and mass  12.00000

 Molecular mass:    51.02348 amu.
 Principal axes and moments of inertia in atomic units:
                           1         2         3
     Eigenvalues --    98.61345 163.78220 262.39565
           X            0.65341   0.75700   0.00000
           Y            0.75700  -0.65341   0.00000
           Z           -0.00000  -0.00000   1.00000
 This molecule is an asymmetric top.
 Rotational symmetry number  1.
 Rotational temperatures (Kelvin)      0.87832     0.52884     0.33009
 Rotational constants (GHZ):          18.30117    11.01915     6.87794
    1 imaginary frequencies ignored.
 Zero-point vibrational energy     114671.1 (Joules/Mol)
                                   27.40706 (Kcal/Mol)
 Warning -- explicit consideration of   1 degrees of freedom as
           vibrations may cause significant error
 Vibrational temperatures:    803.90   920.97   927.68  1304.25  1307.17
          (Kelvin)           1415.21  1576.57  1613.90  1802.22  2072.62
                             2187.66  2662.44  4481.95  4506.96

 Zero-point correction=                           0.043676 (Hartree/Particle)
 Thermal correction to Energy=                    0.047187
 Thermal correction to Enthalpy=                  0.048131
 Thermal correction to Gibbs Free Energy=         0.017771
 Sum of electronic and zero-point Energies=           -153.924078
 Sum of electronic and thermal Energies=              -153.920567
 Sum of electronic and thermal Enthalpies=            -153.919623
 Sum of electronic and thermal Free Energies=         -153.949983

                     E (Thermal)             CV                S
                      KCal/Mol        Cal/Mol-Kelvin    Cal/Mol-Kelvin
 Total                   29.610             11.246             63.899
 Electronic               0.000              0.000              1.377
 Translational            0.889              2.981             37.712
 Rotational               0.889              2.981             22.965
 Vibrational             27.833              5.284              1.844
 Vibration     1          0.914              1.121              0.526

 Optimization completed.
    -- Stationary point found.
 Normal termination of Gaussian 09 at Mon Jun 20 10:47:01 2016.
