 Gaussian 09, Revision E.01,
 Gaussian 09:  EM64L-G09RevE.01 30-Nov-2015

 ---------------------------------------------
 #p b3lyp/6-311++G(3df,2p) freq symmetry=Loose
 ---------------------------------------------

 ---------
 b3lyp opt
 ---------
 Symbolic Z-matrix:
 Charge =  0 Multiplicity = 2

                         Standard orientation:
 ---------------------------------------------------------------------
 Center     Atomic      Atomic             Coordinates (Angstroms)
 Number     Number       Type             X           Y           Z
 ---------------------------------------------------------------------
      1          6           0       -0.638556   -1.087971    0.000740
      2          6           0       -1.136485    0.295417   -0.000153
      3          1           0       -2.164641    0.619015   -0.000643
      4          6           0        0.023377    1.100100   -0.000029
      5          1           0        0.045782    2.180834   -0.000139
      6          6           0        0.590742   -1.110431   -0.000790
      7          6           0        1.149077    0.248256    0.000248
      8          1           0        2.189926    0.527925    0.000685
 ---------------------------------------------------------------------

 SCF Done:  E(UB3LYP) =  -192.147376935     A.U. after   22 cycles

 The electronic state is 2-A.
 Alpha  occ. eigenvalues --  -10.23828 -10.23820 -10.19010 -10.18813 -10.18805
 Alpha  occ. eigenvalues --   -0.90085  -0.72411  -0.72137  -0.57392  -0.51442
 Alpha  occ. eigenvalues --   -0.50241  -0.42094  -0.40898  -0.40439  -0.27993
 Alpha  occ. eigenvalues --   -0.25659  -0.25063
 Alpha virt. eigenvalues --   -0.13276  -0.00449   0.01180   0.01252   0.02341
 Alpha virt. eigenvalues --    0.05460   0.05576   0.05772   0.06233   0.07427
 Alpha virt. eigenvalues --    0.08893   0.09413   0.10039   0.11210   0.11678

  Beta  occ. eigenvalues --  -10.22994 -10.22989 -10.19095 -10.18956 -10.18758
  Beta  occ. eigenvalues --   -0.89043  -0.72257  -0.69752  -0.56559  -0.51230
  Beta  occ. eigenvalues --   -0.49553  -0.41607  -0.40090  -0.37789  -0.27964
  Beta  occ. eigenvalues --   -0.24595
  Beta virt. eigenvalues --   -0.14683  -0.12783  -0.00414   0.01308   0.02354
  Beta virt. eigenvalues --    0.03583   0.05613   0.05792   0.05804   0.07590
  Beta virt. eigenvalues --    0.07710   0.09329   0.09611   0.10022   0.11212

 Mulliken charges and spin densities:
               1          2
     1  C    0.026433   0.027766
     2  C   -0.274655   0.628429
     3  H    0.197361  -0.022932
     4  C   -0.099144  -0.269671
     5  H    0.169771   0.005200
     6  C    0.056851   0.027280
     7  C   -0.274897   0.626910
     8  H    0.198281  -0.022981
 Sum of Mulliken charges =  -0.00000   1.00000

 Dipole moment (field-independent basis, Debye):
    X=              0.0562    Y=              1.7886    Z=             -0.0001  Tot=              1.7895
 Quadrupole moment (field-independent basis, Debye-Ang):
   XX=            -25.0015   YY=            -30.3079   ZZ=            -31.8515
   XY=             -0.1409   XZ=              0.0064   YZ=             -0.0004

  Exact polarizability:  68.137  -0.141  58.844  -0.007   0.001  36.500
 Approx polarizability: 147.492  -1.035  88.328  -0.056   0.001  52.213

 ******    1 imaginary frequencies (negative Signs) ******

                      1                      2                      3
                      A                      A                      A
 Frequencies --   -213.2666               312.2912               473.6293
 Red. masses --      6.1017                10.7830                 2.2337
 Frc consts  --      0.1635                 0.6196                 0.2952
 IR Inten    --      0.0022               104.2094                15.7283

                      4                      5                      6
                      A                      A                      A
 Frequencies --    659.1658               706.1761               720.0255
 Red. masses --      7.5432                 1.3993                 1.3553
 Frc consts  --      1.9311                 0.4111                 0.4140
 IR Inten    --    129.0672                49.0005                 0.0047

                      7                      8                      9
                      A                      A                      A
 Frequencies --    824.7683               862.2844               996.3551
 Red. masses --      7.4775                 1.3204                 2.2021
 Frc consts  --      2.9969                 0.5784                 1.2880
 IR Inten    --      1.8884                 7.6006                 1.8942

                     10                     11                     12
                      A                      A                      A
 Frequencies --   1034.6181              1100.4185              1216.5016
 Red. masses --      1.8329                 4.3764                 1.2447
 Frc consts  --      1.1560                 3.1223                 1.0853
 IR Inten    --     53.0568                15.4679                15.3755

                     13                     14                     15
                      A                      A                      A
 Frequencies --   1326.8301              1366.3857              2006.3558
 Red. masses --      1.5529                 2.2458                11.6016
 Frc consts  --      1.6108                 2.4704                27.5159
 IR Inten    --     50.1487                 7.1577                 0.1838

                     16                     17                     18
                      A                      A                      A
 Frequencies --   3189.0494              3227.3384              3234.0607
 Red. masses --      1.0899                 1.0901                 1.0992
 Frc consts  --      6.5308                 6.6900                 6.7739
 IR Inten    --      4.1342                10.1195                12.1080

 - Thermochemistry -
 -------------------
 Temperature   298.150 Kelvin.  Pressure   1.00000 Atm.
 Atom     1 has atomic number  6 and mass  12.00000

 Molecular mass:    63.02348 amu.
 Principal axes and moments of inertia in atomic units:
                           1         2         3
     Eigenvalues --   178.47647 180.72414 359.20050
           X            0.12756   0.99183   0.00006
           Y            0.99183  -0.12756  -0.00001
           Z           -0.00000  -0.00006   1.00000
 This molecule is an asymmetric top.
 Rotational symmetry number  1.
 Rotational temperatures (Kelvin)      0.48530     0.47926     0.24113
 Rotational constants (GHZ):          10.11193     9.98617     5.02433
    1 imaginary frequencies ignored.
 Zero-point vibrational energy     139103.3 (Joules/Mol)
                                   33.24648 (Kcal/Mol)
 Warning -- explicit consideration of   2 degrees of freedom as
           vibrations may cause significant error
 Vibrational temperatures:    449.32   681.45   948.39  1016.03  1035.95
          (Kelvin)           1186.66  1240.63  1433.53  1488.58  1583.25
                             1750.27  1909.01  1965.92  2886.69  4588.33
                             4643.41  4653.09

 Zero-point correction=                           0.052982 (Hartree/Particle)
 Thermal correction to Energy=                    0.057072
 Thermal correction to Enthalpy=                  0.058016
 Thermal correction to Gibbs Free Energy=         0.026004
 Sum of electronic and zero-point Energies=           -192.094395
 Sum of electronic and thermal Energies=              -192.090305
 Sum of electronic and thermal Enthalpies=            -192.089361
 Sum of electronic and thermal Free Energies=         -192.121373

                     E (Thermal)             CV                S
                      KCal/Mol        Cal/Mol-Kelvin    Cal/Mol-Kelvin
 Total                   35.813             14.065             67.375
 Electronic               0.000              0.000              1.377
 Translational            0.889              2.981             38.342
 Rotational               0.889              2.981             23.964
 Vibrational             34.036              8.103              3.692
 Vibration     1          0.701              1.650              1.350
 Vibration     2          0.830              1.309              0.727

 Normal termination of Gaussian 09 at Mon Jun 20 10:52:18 2016.
