 Gaussian 09, Revision E.01,
 Gaussian 09:  EM64L-G09RevE.01 30-Nov-2015

 ---------------------------------------------
 #p b3lyp/6-311++G(3df,2p) freq symmetry=Loose
 ---------------------------------------------

 ---------
 b3lyp opt
 ---------
 Symbolic Z-matrix:
 Charge =  2 Multiplicity = 2

                         Standard orientation:
 ---------------------------------------------------------------------
 Center     Atomic      Atomic             Coordinates (Angstroms)
 Number     Number       Type             X           Y           Z
 ---------------------------------------------------------------------
      1          6           0       -0.122937    0.201577   -0.000000
      2          6           0       -1.048225    1.187399   -0.000000
      3          6           0        0.293904    1.525528   -0.000000
      4          1           0        1.106308    2.257068   -0.000000
      5          6           0        0.293904   -1.392961    0.617350
      6          1           0        0.315196   -1.514282    1.701742
      7          6           0        0.293904   -1.392961   -0.617350
      8          1           0        0.315196   -1.514282   -1.701742
 ---------------------------------------------------------------------

 SCF Done:  E(UB3LYP) =  -191.253832698     A.U. after   14 cycles

 The electronic state is 2-A'.
 Alpha  occ. eigenvalues --  -10.78044 -10.76691 -10.75153 -10.73704 -10.73526
 Alpha  occ. eigenvalues --   -1.45590  -1.34037  -1.06651  -1.05980  -1.02043
 Alpha  occ. eigenvalues --   -0.98704  -0.94968  -0.88750  -0.87238  -0.81846
 Alpha  occ. eigenvalues --   -0.76290
 Alpha virt. eigenvalues --   -0.59452  -0.51101  -0.46734  -0.46187  -0.36651
 Alpha virt. eigenvalues --   -0.33118  -0.31716  -0.30792  -0.29991  -0.27839
 Alpha virt. eigenvalues --   -0.26493  -0.25014  -0.24130  -0.22202  -0.20157

  Beta  occ. eigenvalues --  -10.77841 -10.75003 -10.74945 -10.73675 -10.73498
  Beta  occ. eigenvalues --   -1.44540  -1.33838  -1.05957  -1.05690  -1.00582
  Beta  occ. eigenvalues --   -0.98546  -0.92364  -0.88172  -0.85772  -0.79731
  Beta virt. eigenvalues --   -0.61540  -0.59096  -0.49291  -0.46173  -0.45790
  Beta virt. eigenvalues --   -0.36319  -0.33035  -0.31372  -0.30353  -0.28895
  Beta virt. eigenvalues --   -0.27249  -0.26287  -0.24303  -0.24085  -0.22060

 Mulliken charges and spin densities:
               1          2
     1  C    0.155995  -0.034593
     2  C    0.182327   0.952621
     3  C    0.169928   0.045809
     4  H    0.381114   0.003850
     5  C    0.124050   0.018398
     6  H    0.431268  -0.002242
     7  C    0.124050   0.018398
     8  H    0.431268  -0.002242
 Sum of Mulliken charges =   2.00000   1.00000

 Dipole moment (field-independent basis, Debye):
    X=              1.3175    Y=             -0.2338    Z=             -0.0000  Tot=              1.3380
 Quadrupole moment (field-independent basis, Debye-Ang):
   XX=            -20.4669   YY=             -0.1887   ZZ=            -13.4995
   XY=             -0.9224   XZ=             -0.0000   YZ=             -0.0000

  Exact polarizability:  33.415  -4.886  53.147  -0.000   0.000  33.492
 Approx polarizability:  56.611 -11.057  86.094  -0.000  -0.000  58.357

 ******    2 imaginary frequencies (negative Signs) ******

                      1                      2                      3
                     A"                     A"                     A"
 Frequencies --   -522.2920              -205.7695               319.3622
 Red. masses --     10.6271                 2.4464                 3.6214
 Frc consts  --      1.7080                 0.0610                 0.2176
 IR Inten    --     29.5644                 4.3513                 2.1810

                      4                      5                      6
                     A'                     A'                     A"
 Frequencies --    344.6644               461.4806               597.3424
 Red. masses --      4.7692                 6.7833                 1.7255
 Frc consts  --      0.3338                 0.8511                 0.3628
 IR Inten    --      7.4113                 6.7876                 0.0002

                      7                      8                      9
                     A'                     A"                     A'
 Frequencies --    762.4201               886.6025               939.6877
 Red. masses --      1.1031                 1.2268                 1.1291
 Frc consts  --      0.3778                 0.5682                 0.5874
 IR Inten    --    107.2954                 2.3896                38.5923

                     10                     11                     12
                     A'                     A"                     A'
 Frequencies --    955.5639               961.2644              1195.8844
 Red. masses --      1.2174                 1.4105                 9.2805
 Frc consts  --      0.6549                 0.7679                 7.8198
 IR Inten    --     15.0458                14.0020                90.7953

                     13                     14                     15
                     A'                     A'                     A'
 Frequencies --   1275.2914              1593.4956              1909.0652
 Red. masses --      7.7158                 8.8930                 3.6834
 Frc consts  --      7.3935                13.3045                 7.9094
 IR Inten    --     47.4787                14.1502                53.1976

                     16                     17                     18
                     A"                     A'                     A'
 Frequencies --   3113.4976              3132.9533              3227.2856
 Red. masses --      1.0840                 1.1205                 1.2446
 Frc consts  --      6.1914                 6.4802                 7.6375
 IR Inten    --    594.2139               193.6668                68.0198

 - Thermochemistry -
 -------------------
 Temperature   298.150 Kelvin.  Pressure   1.00000 Atm.
 Atom     1 has atomic number  6 and mass  12.00000

 Molecular mass:    63.02348 amu.
 Principal axes and moments of inertia in atomic units:
                           1         2         3
     Eigenvalues --   103.92840 426.78321 429.87304
           X           -0.20254  -0.00000   0.97927
           Y            0.97927  -0.00000   0.20254
           Z           -0.00000   1.00000   0.00000
 This molecule is an asymmetric top.
 Rotational symmetry number  1.
 Rotational temperatures (Kelvin)      0.83340     0.20295     0.20149
 Rotational constants (GHZ):          17.36524     4.22871     4.19831
    2 imaginary frequencies ignored.
 Zero-point vibrational energy     129650.4 (Joules/Mol)
                                   30.98720 (Kcal/Mol)
 Warning -- explicit consideration of   4 degrees of freedom as
           vibrations may cause significant error
 Vibrational temperatures:    459.49   495.89   663.97   859.44  1096.95
          (Kelvin)           1275.62  1352.00  1374.84  1383.04  1720.61
                             1834.86  2292.68  2746.72  4479.62  4507.62
                             4643.34

 Zero-point correction=                           0.049381 (Hartree/Particle)
 Thermal correction to Energy=                    0.053706
 Thermal correction to Enthalpy=                  0.054651
 Thermal correction to Gibbs Free Energy=         0.022005
 Sum of electronic and zero-point Energies=           -191.204451
 Sum of electronic and thermal Energies=              -191.200126
 Sum of electronic and thermal Enthalpies=            -191.199182
 Sum of electronic and thermal Free Energies=         -191.231828

                     E (Thermal)             CV                S
                      KCal/Mol        Cal/Mol-Kelvin    Cal/Mol-Kelvin
 Total                   33.701             14.528             68.708
 Electronic               0.000              0.000              1.377
 Translational            0.889              2.981             38.342
 Rotational               0.889              2.981             24.459
 Vibrational             31.924              8.566              4.530
 Vibration     1          0.705              1.637              1.313
 Vibration     2          0.723              1.586              1.190
 Vibration     3          0.819              1.335              0.762
 Vibration     4          0.955              1.037              0.454

 Normal termination of Gaussian 09 at Mon Jun 20 11:02:42 2016.
