 Gaussian 09, Revision E.01,
 Gaussian 09:  EM64L-G09RevE.01 30-Nov-2015

 ---------------------------------------------
 #p b3lyp/6-311++G(3df,2p) freq symmetry=Loose
 ---------------------------------------------

 ---------
 b3lyp opt
 ---------
 Symbolic Z-matrix:
 Charge =  3 Multiplicity = 1

                         Standard orientation:
 ---------------------------------------------------------------------
 Center     Atomic      Atomic             Coordinates (Angstroms)
 Number     Number       Type             X           Y           Z
 ---------------------------------------------------------------------
      1          6           0       -1.829563    0.657219    0.000345
      2          6           0       -1.827317   -0.658549   -0.000390
      3          6           0       -0.618148    0.002421   -0.000341
      4          6           0        0.837758   -0.000569    0.000230
      5          6           0        2.131328   -0.009849    0.002706
      6          1           0        2.603021    1.086868   -0.103193
      7          1           0        2.616915   -0.434334    0.997666
      8          1           0        2.615714   -0.596570   -0.909773
 ---------------------------------------------------------------------

 SCF Done:  E(RB3LYP) =  -190.320263920     A.U. after   16 cycles

 The electronic state is 1-A.
 Alpha  occ. eigenvalues --  -11.12640 -11.04685 -10.99618 -10.99514 -10.94687
 Alpha  occ. eigenvalues --   -1.69099  -1.58401  -1.45175  -1.24154  -1.21354
 Alpha  occ. eigenvalues --   -1.17239  -1.16331  -1.14777  -1.10898  -0.97387
 Alpha virt. eigenvalues --   -0.91652  -0.90353  -0.82368  -0.70648  -0.67452
 Alpha virt. eigenvalues --   -0.61215  -0.53942  -0.52708  -0.49513  -0.46813
 Alpha virt. eigenvalues --   -0.45169  -0.43609  -0.43349  -0.41931  -0.38726

 Mulliken charges:
               1
     1  C    0.255048
     2  C    0.238700
     3  C    0.718201
     4  C    0.512162
     5  C    0.049910
     6  H    0.413503
     7  H    0.405608
     8  H    0.406869
 Sum of Mulliken charges =   3.00000

 Dipole moment (field-independent basis, Debye):
    X=              6.6135    Y=              0.1365    Z=             -0.0373  Tot=              6.6150
 Quadrupole moment (field-independent basis, Debye-Ang):
   XX=             38.3821   YY=            -17.1438   ZZ=            -18.1954
   XY=              0.3780   XZ=             -0.1091   YZ=             -0.0069

  Exact polarizability:  78.727   0.070  41.081  -0.029   0.000  27.148
 Approx polarizability: 158.602   0.468 139.872   0.007   0.036  40.413

 ******    1 imaginary frequencies (negative Signs) ******

                      1                      2                      3
                      A                      A                      A
 Frequencies --    -23.1472               156.3611               198.6225
 Red. masses --      1.3191                 3.1749                 2.6544
 Frc consts  --      0.0004                 0.0457                 0.0617
 IR Inten    --      3.0649                 6.4978                19.5783

                      4                      5                      6
                      A                      A                      A
 Frequencies --    265.2951               355.1632               597.8679
 Red. masses --      1.5509                 1.9284                 5.4008
 Frc consts  --      0.0643                 0.1433                 1.1374
 IR Inten    --     42.2173                20.3689                47.1700

                      7                      8                      9
                      A                      A                      A
 Frequencies --    614.3022               646.2608               689.6352
 Red. masses --     10.9954                 4.1686                 5.5377
 Frc consts  --      2.4447                 1.0258                 1.5518
 IR Inten    --    159.5546                32.5130                 0.2939

                     10                     11                     12
                      A                      A                      A
 Frequencies --    751.3343               785.0560              1025.2553
 Red. masses --      1.1016                 1.1190                 1.1542
 Frc consts  --      0.3664                 0.4063                 0.7148
 IR Inten    --    125.5988               157.8852               346.2558

                     13                     14                     15
                      A                      A                      A
 Frequencies --   1412.9878              1594.9803              1724.7006
 Red. masses --     11.8031                11.3316                 9.2347
 Frc consts  --     13.8842                16.9845                16.1845
 IR Inten    --      3.1029               311.5625               322.5000

                     16                     17                     18
                      A                      A                      A
 Frequencies --   2114.1809              2191.9804              2290.6315
 Red. masses --      1.0754                 1.0807                 1.0556
 Frc consts  --      2.8321                 3.0595                 3.2634
 IR Inten    --    723.9250               691.9754              2238.1472

 - Thermochemistry -
 -------------------
 Temperature   298.150 Kelvin.  Pressure   1.00000 Atm.
 Atom     1 has atomic number  6 and mass  12.00000

 Molecular mass:    63.02348 amu.
 Principal axes and moments of inertia in atomic units:
                           1         2         3
     Eigenvalues --    49.90913 604.47415 641.18390
           X            1.00000   0.00089  -0.00024
           Y           -0.00089   1.00000  -0.00027
           Z            0.00024   0.00027   1.00000
 This molecule is an asymmetric top.
 Rotational symmetry number  1.
 Rotational temperatures (Kelvin)      1.73543     0.14329     0.13508
 Rotational constants (GHZ):          36.16054     2.98564     2.81470
    1 imaginary frequencies ignored.
 Zero-point vibrational energy     104162.5 (Joules/Mol)
                                   24.89544 (Kcal/Mol)
 Warning -- explicit consideration of   6 degrees of freedom as
           vibrations may cause significant error
 Vibrational temperatures:    224.97   285.77   381.70   511.00   860.20
          (Kelvin)            883.84   929.82   992.23  1081.00  1129.52
                             1475.11  2032.97  2294.82  2481.46  3041.83
                             3153.77  3295.70

 Zero-point correction=                           0.039673 (Hartree/Particle)
 Thermal correction to Energy=                    0.045312
 Thermal correction to Enthalpy=                  0.046256
 Thermal correction to Gibbs Free Energy=         0.011816
 Sum of electronic and zero-point Energies=           -190.280591
 Sum of electronic and thermal Energies=              -190.274952
 Sum of electronic and thermal Enthalpies=            -190.274008
 Sum of electronic and thermal Free Energies=         -190.308448

                     E (Thermal)             CV                S
                      KCal/Mol        Cal/Mol-Kelvin    Cal/Mol-Kelvin
 Total                   28.433             18.789             72.485
 Electronic               0.000              0.000              0.000
 Translational            0.889              2.981             38.342
 Rotational               0.889              2.981             24.473
 Vibrational             26.656             12.827              9.669
 Vibration     1          0.620              1.896              2.593
 Vibration     2          0.637              1.842              2.146
 Vibration     3          0.671              1.737              1.627
 Vibration     4          0.731              1.565              1.143
 Vibration     5          0.956              1.036              0.453
 Vibration     6          0.974              1.002              0.426

 Normal termination of Gaussian 09 at Mon Jun 20 11:09:39 2016.
