 Gaussian 09, Revision E.01,
 Gaussian 09:  EM64L-G09RevE.01 30-Nov-2015

 ---------------------------------------------
 #p b3lyp/6-311++G(3df,2p) freq symmetry=Loose
 ---------------------------------------------

 ---------
 b3lyp opt
 ---------
 Symbolic Z-matrix:
 Charge =  2 Multiplicity = 2

                         Standard orientation:
 ---------------------------------------------------------------------
 Center     Atomic      Atomic             Coordinates (Angstroms)
 Number     Number       Type             X           Y           Z
 ---------------------------------------------------------------------
      1          6           0        0.000000    0.706416    0.000000
      2          6           0        1.354697    1.017912    0.000000
      3          6           0       -0.956930    1.727346    0.000000
      4          6           0       -0.542814   -0.680698    0.000000
      5          1           0       -1.631526   -0.760807    0.000000
      6          6           0        0.242442   -1.861810    0.000000
      7          1           0        1.331011   -1.876451    0.000000
      8          1           0       -0.283854   -2.817748    0.000000
 ---------------------------------------------------------------------

 SCF Done:  E(UB3LYP) =  -191.134446076     A.U. after   30 cycles

 The electronic state is 2-A".
 Alpha  occ. eigenvalues --  -10.83130 -10.82536 -10.75752 -10.72025 -10.71502
 Alpha  occ. eigenvalues --   -1.37207  -1.26968  -1.17197  -1.10240  -0.98898
 Alpha  occ. eigenvalues --   -0.93227  -0.87695  -0.87243  -0.82085  -0.79092
 Alpha  occ. eigenvalues --   -0.77731
 Alpha virt. eigenvalues --   -0.64427  -0.62802  -0.59395  -0.54926  -0.41266
 Alpha virt. eigenvalues --   -0.33016  -0.31007  -0.29275  -0.26417  -0.26105
 Alpha virt. eigenvalues --   -0.24183  -0.23018  -0.22432  -0.21784  -0.21061

  Beta  occ. eigenvalues --  -10.82997 -10.82418 -10.75039 -10.71523 -10.71385
  Beta  occ. eigenvalues --   -1.36499  -1.24446  -1.16810  -1.09032  -0.98238
  Beta  occ. eigenvalues --   -0.92404  -0.86871  -0.85381  -0.81962  -0.78797
  Beta virt. eigenvalues --   -0.66933  -0.64053  -0.61470  -0.59317  -0.50360
  Beta virt. eigenvalues --   -0.39188  -0.32792  -0.30722  -0.28844  -0.25797
  Beta virt. eigenvalues --   -0.25511  -0.23940  -0.22900  -0.22093  -0.21351

 Mulliken charges and spin densities:
               1          2
     1  C    0.915816   0.006031
     2  C    0.160716   0.061965
     3  C    0.203102   0.068002
     4  C    0.058438   0.500615
     5  H    0.300722  -0.009063
     6  C   -0.177871   0.392819
     7  H    0.253644  -0.009490
     8  H    0.285433  -0.010879
 Sum of Mulliken charges =   2.00000   1.00000

 Dipole moment (field-independent basis, Debye):
    X=             -0.2867    Y=             -1.7995    Z=              0.0000  Tot=              1.8222
 Quadrupole moment (field-independent basis, Debye-Ang):
   XX=            -16.4623   YY=              0.9572   ZZ=            -24.4508
   XY=             -0.4092   XZ=              0.0000   YZ=              0.0000

  Exact polarizability:  50.301  -4.322  67.302  -0.000   0.000  28.153
 Approx polarizability: 111.989 -15.675 104.680  -0.000  -0.000  43.624

 ******    1 imaginary frequencies (negative Signs) ******

                      1                      2                      3
                     A"                     A"                     A'
 Frequencies --    -52.6230               119.0981               178.1482
 Red. masses --      1.4553                 1.5286                 6.3644
 Frc consts  --      0.0024                 0.0128                 0.1190
 IR Inten    --      0.0013                 0.1882                 0.8878

                      4                      5                      6
                     A"                     A'                     A'
 Frequencies --    325.8000               328.1947               429.0706
 Red. masses --      6.9276                 8.4714                 3.4868
 Frc consts  --      0.4332                 0.5376                 0.3782
 IR Inten    --      0.2083                26.2857                 1.2051

                      7                      8                      9
                     A"                     A'                     A'
 Frequencies --    809.8602               819.3921              1058.6504
 Red. masses --      1.4429                 4.0249                 1.5204
 Frc consts  --      0.5576                 1.5922                 1.0040
 IR Inten    --     23.1205                 4.3060                 3.0885

                     10                     11                     12
                     A"                     A'                     A'
 Frequencies --   1077.6218              1146.1161              1293.8778
 Red. masses --      1.3963                 6.4141                 2.5119
 Frc consts  --      0.9554                 4.9641                 2.4777
 IR Inten    --     10.1802               324.6603                14.8957

                     13                     14                     15
                     A'                     A'                     A'
 Frequencies --   1387.4838              1443.1196              1500.9616
 Red. masses --      2.4296                 2.3902                 1.3443
 Frc consts  --      2.7557                 2.9328                 1.7843
 IR Inten    --    286.0918               280.7026                18.6003

                     16                     17                     18
                     A'                     A'                     A'
 Frequencies --   3078.5041              3106.4637              3194.8173
 Red. masses --      1.0556                 1.0939                 1.1256
 Frc consts  --      5.8941                 6.2198                 6.7692
 IR Inten    --    126.6343                64.1218                76.2962

 - Thermochemistry -
 -------------------
 Temperature   298.150 Kelvin.  Pressure   1.00000 Atm.
 Atom     1 has atomic number  6 and mass  12.00000

 Molecular mass:    63.02348 amu.
 Principal axes and moments of inertia in atomic units:
                           1         2         3
     Eigenvalues --   148.11667 404.85601 552.97268
           X           -0.06664   0.99778   0.00000
           Y            0.99778   0.06664   0.00000
           Z           -0.00000   0.00000   1.00000
 This molecule is an asymmetric top.
 Rotational symmetry number  1.
 Rotational temperatures (Kelvin)      0.58477     0.21394     0.15663
 Rotational constants (GHZ):          12.18459     4.45774     3.26371
    1 imaginary frequencies ignored.
 Zero-point vibrational energy     127385.4 (Joules/Mol)
                                   30.44585 (Kcal/Mol)
 Warning -- explicit consideration of   5 degrees of freedom as
           vibrations may cause significant error
 Vibrational temperatures:    171.36   256.32   468.75   472.20   617.34
          (Kelvin)           1165.21  1178.92  1523.16  1550.46  1649.00
                             1861.60  1996.28  2076.32  2159.55  4429.28
                             4469.50  4596.62

 Zero-point correction=                           0.048519 (Hartree/Particle)
 Thermal correction to Energy=                    0.053959
 Thermal correction to Enthalpy=                  0.054903
 Thermal correction to Gibbs Free Energy=         0.019619
 Sum of electronic and zero-point Energies=           -191.085928
 Sum of electronic and thermal Energies=              -191.080487
 Sum of electronic and thermal Enthalpies=            -191.079543
 Sum of electronic and thermal Free Energies=         -191.114827

                     E (Thermal)             CV                S
                      KCal/Mol        Cal/Mol-Kelvin    Cal/Mol-Kelvin
 Total                   33.860             16.956             74.261
 Electronic               0.000              0.000              1.377
 Translational            0.889              2.981             38.342
 Rotational               0.889              2.981             25.009
 Vibrational             32.082             10.994              9.533
 Vibration     1          0.609              1.933              3.115
 Vibration     2          0.629              1.869              2.348
 Vibration     3          0.710              1.624              1.281
 Vibration     4          0.711              1.619              1.269
 Vibration     5          0.790              1.407              0.862

 Normal termination of Gaussian 09 at Mon Jun 20 11:03:50 2016.
