 Gaussian 09, Revision E.01,
 Gaussian 09:  EM64L-G09RevE.01 30-Nov-2015

 ---------------------------------------------
 #p b3lyp/6-311++G(3df,2p) freq symmetry=Loose
 ---------------------------------------------

 ---------
 b3lyp opt
 ---------
 Symbolic Z-matrix:
 Charge =  1 Multiplicity = 3

                         Standard orientation:
 ---------------------------------------------------------------------
 Center     Atomic      Atomic             Coordinates (Angstroms)
 Number     Number       Type             X           Y           Z
 ---------------------------------------------------------------------
      1          6           0        0.008199    0.517379    0.000000
      2          6           0       -1.312141    0.142491    0.000000
      3          6           0        1.027360    1.425233    0.000000
      4          1           0        1.188376    2.492344    0.000000
      5          6           0        0.008199   -1.011916    0.642068
      6          1           0        0.186366   -1.429987    1.620763
      7          6           0        0.008199   -1.011916   -0.642068
      8          1           0        0.186366   -1.429987   -1.620763
 ---------------------------------------------------------------------

 SCF Done:  E(UB3LYP) =  -191.731847988     A.U. after   15 cycles

 The electronic state is 3-A".
 Alpha  occ. eigenvalues --  -10.51238 -10.51118 -10.50014 -10.48781 -10.47538
 Alpha  occ. eigenvalues --   -1.22074  -1.00713  -0.92487  -0.85495  -0.78177
 Alpha  occ. eigenvalues --   -0.76657  -0.66967  -0.63978  -0.61990  -0.54013
 Alpha  occ. eigenvalues --   -0.48841  -0.48684
 Alpha virt. eigenvalues --   -0.31941  -0.23894  -0.22161  -0.17426  -0.14383
 Alpha virt. eigenvalues --   -0.14118  -0.13489  -0.12591  -0.09223  -0.08820
 Alpha virt. eigenvalues --   -0.07456  -0.06843  -0.05596  -0.05450  -0.04566

  Beta  occ. eigenvalues --  -10.51053 -10.50933 -10.50204 -10.48291 -10.45004
  Beta  occ. eigenvalues --   -1.21303  -0.96902  -0.90230  -0.84893  -0.77620
  Beta  occ. eigenvalues --   -0.74632  -0.65903  -0.62000  -0.60318  -0.51233
  Beta virt. eigenvalues --   -0.36907  -0.33665  -0.28378  -0.23144  -0.20091
  Beta virt. eigenvalues --   -0.16526  -0.14204  -0.13703  -0.12436  -0.12046
  Beta virt. eigenvalues --   -0.09050  -0.08501  -0.07060  -0.06262  -0.04825

 Mulliken charges and spin densities:
               1          2
     1  C    0.588500  -0.103143
     2  C   -0.446075   0.280145
     3  C   -0.091245   1.571179
     4  H    0.282349  -0.002905
     5  C   -0.005924   0.126552
     6  H    0.339159   0.000810
     7  C   -0.005924   0.126552
     8  H    0.339159   0.000810
 Sum of Mulliken charges =   1.00000   2.00000

 Dipole moment (field-independent basis, Debye):
    X=              2.3465    Y=             -0.7261    Z=              0.0000  Tot=              2.4562
 Quadrupole moment (field-independent basis, Debye-Ang):
   XX=            -28.5646   YY=            -13.9946   ZZ=            -20.2111
   XY=              2.5014   XZ=              0.0000   YZ=              0.0000

  Exact polarizability:  49.231   7.650  57.177  -0.000  -0.000  38.122
 Approx polarizability:  89.192  11.562  97.464  -0.000   0.000  64.816

 ******    1 imaginary frequencies (negative Signs) ******

                      1                      2                      3
                     A"                     A"                     A'
 Frequencies --   -460.7536               329.9099               335.6477
 Red. masses --      6.9363                 2.2574                 3.1196
 Frc consts  --      0.8676                 0.1448                 0.2071
 IR Inten    --      0.1606                 4.4199                19.9628

                      4                      5                      6
                     A'                     A"                     A'
 Frequencies --    443.2102               504.8677               553.2210
 Red. masses --      5.7259                 1.9082                 3.5950
 Frc consts  --      0.6627                 0.2866                 0.6482
 IR Inten    --     20.7446                44.6106                 6.5449

                      7                      8                      9
                     A"                     A'                     A'
 Frequencies --    608.6347               780.9871               791.5066
 Red. masses --      3.7661                 1.4671                 1.4999
 Frc consts  --      0.8220                 0.5272                 0.5536
 IR Inten    --      1.6949                87.2439                18.4156

                     10                     11                     12
                     A"                     A'                     A"
 Frequencies --    840.6448               895.0653               966.9650
 Red. masses --      1.2696                 1.1869                 1.2854
 Frc consts  --      0.5286                 0.5602                 0.7081
 IR Inten    --      5.4974                15.1134                23.4785

                     13                     14                     15
                     A'                     A'                     A'
 Frequencies --   1043.6970              1515.2692              1713.3335
 Red. masses --      4.4599                10.2797                 4.9173
 Frc consts  --      2.8623                13.9063                 8.5047
 IR Inten    --     17.3030                10.1509                 1.4655

                     16                     17                     18
                     A"                     A'                     A'
 Frequencies --   3234.4503              3247.3360              3290.0822
 Red. masses --      1.0866                 1.0969                 1.1604
 Frc consts  --      6.6976                 6.8150                 7.4007
 IR Inten    --    151.1021               108.9268                64.2161

 - Thermochemistry -
 -------------------
 Temperature   298.150 Kelvin.  Pressure   1.00000 Atm.
 Atom     1 has atomic number  6 and mass  12.00000

 Molecular mass:    63.02348 amu.
 Principal axes and moments of inertia in atomic units:
                           1         2         3
     Eigenvalues --   148.04279 308.86882 348.43061
           X            0.43486   0.90050   0.00000
           Y            0.90050  -0.43486   0.00000
           Z            0.00000  -0.00000   1.00000
 This molecule is an asymmetric top.
 Rotational symmetry number  1.
 Rotational temperatures (Kelvin)      0.58506     0.28042     0.24858
 Rotational constants (GHZ):          12.19067     5.84307     5.17963
    1 imaginary frequencies ignored.
 Zero-point vibrational energy     126175.1 (Joules/Mol)
                                   30.15657 (Kcal/Mol)
 Warning -- explicit consideration of   6 degrees of freedom as
           vibrations may cause significant error
 Vibrational temperatures:    474.67   482.92   637.68   726.39   795.96
          (Kelvin)            875.69  1123.66  1138.80  1209.50  1287.80
                             1391.25  1501.65  2180.13  2465.10  4653.65
                             4672.19  4733.69

 Zero-point correction=                           0.048058 (Hartree/Particle)
 Thermal correction to Energy=                    0.052852
 Thermal correction to Enthalpy=                  0.053796
 Thermal correction to Gibbs Free Energy=         0.020208
 Sum of electronic and zero-point Energies=           -191.683790
 Sum of electronic and thermal Energies=              -191.678996
 Sum of electronic and thermal Enthalpies=            -191.678052
 Sum of electronic and thermal Free Energies=         -191.711640

                     E (Thermal)             CV                S
                      KCal/Mol        Cal/Mol-Kelvin    Cal/Mol-Kelvin
 Total                   33.165             17.236             70.692
 Electronic               0.000              0.000              2.183
 Translational            0.889              2.981             38.342
 Rotational               0.889              2.981             24.281
 Vibrational             31.387             11.274              5.886
 Vibration     1          0.713              1.616              1.261
 Vibration     2          0.717              1.604              1.233
 Vibration     3          0.803              1.376              0.817
 Vibration     4          0.860              1.239              0.646
 Vibration     5          0.909              1.133              0.538
 Vibration     6          0.968              1.014              0.435

 Optimization completed.
    -- Stationary point found.
 Normal termination of Gaussian 09 at Mon Jun 20 11:02:48 2016.
