 Gaussian 09, Revision E.01,
 Gaussian 09:  EM64L-G09RevE.01 30-Nov-2015

 ---------------------------------------------
 #p b3lyp/6-311++G(3df,2p) freq symmetry=Loose
 ---------------------------------------------

 ---------
 b3lyp opt
 ---------
 Symbolic Z-matrix:
 Charge =  1 Multiplicity = 1

                         Standard orientation:
 ---------------------------------------------------------------------
 Center     Atomic      Atomic             Coordinates (Angstroms)
 Number     Number       Type             X           Y           Z
 ---------------------------------------------------------------------
      1          6           0       -0.086393    0.235899    0.000000
      2          6           0       -1.135916    1.147246    0.000000
      3          6           0        0.312901    1.483439    0.000000
      4          1           0        1.041660    2.281255    0.000000
      5          6           0        0.312901   -1.373053    0.612002
      6          1           0        0.329990   -1.502067    1.680401
      7          6           0        0.312901   -1.373053   -0.612002
      8          1           0        0.329990   -1.502067   -1.680401
 ---------------------------------------------------------------------

 SCF Done:  E(RB3LYP) =  -191.789369652     A.U. after   11 cycles

 The electronic state is 1-A'.
 Alpha  occ. eigenvalues --  -10.51043 -10.50849 -10.48706 -10.47154 -10.42533
 Alpha  occ. eigenvalues --   -1.16850  -1.10369  -0.85693  -0.81399  -0.79116
 Alpha  occ. eigenvalues --   -0.76146  -0.69540  -0.61907  -0.59792  -0.54665
 Alpha  occ. eigenvalues --   -0.45224
 Alpha virt. eigenvalues --   -0.34153  -0.26819  -0.23562  -0.22713  -0.15990
 Alpha virt. eigenvalues --   -0.14878  -0.13432  -0.12874  -0.11088  -0.10396
 Alpha virt. eigenvalues --   -0.09743  -0.07394  -0.06709  -0.04398  -0.04372

 Mulliken charges:
               1
     1  C    0.111773
     2  C   -0.410169
     3  C    0.170579
     4  H    0.332890
     5  C    0.007896
     6  H    0.389568
     7  C    0.007896
     8  H    0.389568
 Sum of Mulliken charges =   1.00000

 Dipole moment (field-independent basis, Debye):
    X=              3.6444    Y=             -2.6848    Z=             -0.0000  Tot=              4.5266
 Quadrupole moment (field-independent basis, Debye-Ang):
   XX=            -29.9352   YY=            -13.8444   ZZ=            -17.8051
   XY=              3.2841   XZ=              0.0000   YZ=              0.0000

  Exact polarizability:  38.867  -3.930  59.454   0.000  -0.000  39.219
 Approx polarizability:  58.933  -5.151  97.604   0.000   0.000  69.501

 ******    2 imaginary frequencies (negative Signs) ******

                      1                      2                      3
                     A"                     A"                     A"
 Frequencies --   -383.0775              -247.9705               274.3922
 Red. masses --      9.9614                 2.5519                 3.4090
 Frc consts  --      0.8613                 0.0925                 0.1512
 IR Inten    --      6.2570                24.9192                 0.0018

                      4                      5                      6
                     A'                     A'                     A"
 Frequencies --    329.7035               384.1548               637.8888
 Red. masses --      5.2353                 8.3268                 1.6429
 Frc consts  --      0.3353                 0.7240                 0.3939
 IR Inten    --      8.8490                 2.8216                 0.0160

                      7                      8                      9
                     A'                     A'                     A"
 Frequencies --    751.9892               844.9443               858.1935
 Red. masses --      1.1083                 2.1025                 1.2177
 Frc consts  --      0.3692                 0.8844                 0.5284
 IR Inten    --     93.9975                 4.0529                 0.0236

                     10                     11                     12
                     A'                     A"                     A'
 Frequencies --    886.6773               946.5829               960.4170
 Red. masses --      1.1028                 1.4635                 2.1009
 Frc consts  --      0.5108                 0.7726                 1.1418
 IR Inten    --     30.0937                 6.5584                75.9552

                     13                     14                     15
                     A'                     A'                     A'
 Frequencies --   1295.4298              1619.7505              1953.2921
 Red. masses --      9.6866                 6.8870                 3.8988
 Frc consts  --      9.5774                10.6458                 8.7642
 IR Inten    --     40.5912                 7.5142                 8.0418

                     16                     17                     18
                     A'                     A"                     A'
 Frequencies --   3240.0430              3267.4122              3366.2034
 Red. masses --      1.1181                 1.0844                 1.2246
 Frc consts  --      6.9153                 6.8208                 8.1754
 IR Inten    --     45.6420               345.3940                46.4959

 - Thermochemistry -
 -------------------
 Temperature   298.150 Kelvin.  Pressure   1.00000 Atm.
 Atom     1 has atomic number  6 and mass  12.00000

 Molecular mass:    63.02348 amu.
 Principal axes and moments of inertia in atomic units:
                           1         2         3
     Eigenvalues --   109.09088 418.09558 422.33427
           X           -0.22799   0.97366  -0.00000
           Y            0.97366   0.22799  -0.00000
           Z            0.00000   0.00000   1.00000
 This molecule is an asymmetric top.
 Rotational symmetry number  1.
 Rotational temperatures (Kelvin)      0.79396     0.20716     0.20508
 Rotational constants (GHZ):          16.54347     4.31658     4.27325
    2 imaginary frequencies ignored.
 Zero-point vibrational energy     129298.8 (Joules/Mol)
                                   30.90316 (Kcal/Mol)
 Warning -- explicit consideration of   3 degrees of freedom as
           vibrations may cause significant error
 Vibrational temperatures:    394.79   474.37   552.71   917.78  1081.94
          (Kelvin)           1215.68  1234.75  1275.73  1361.92  1381.82
                             1863.83  2330.46  2810.35  4661.69  4701.07
                             4843.21

 Zero-point correction=                           0.049247 (Hartree/Particle)
 Thermal correction to Energy=                    0.053766
 Thermal correction to Enthalpy=                  0.054710
 Thermal correction to Gibbs Free Energy=         0.022377
 Sum of electronic and zero-point Energies=           -191.740122
 Sum of electronic and thermal Energies=              -191.735604
 Sum of electronic and thermal Enthalpies=            -191.734660
 Sum of electronic and thermal Free Energies=         -191.766993

                     E (Thermal)             CV                S
                      KCal/Mol        Cal/Mol-Kelvin    Cal/Mol-Kelvin
 Total                   33.739             15.222             68.051
 Electronic               0.000              0.000              0.000
 Translational            0.889              2.981             38.342
 Rotational               0.889              2.981             24.469
 Vibrational             31.961              9.260              5.240
 Vibration     1          0.677              1.721              1.568
 Vibration     2          0.712              1.616              1.262
 Vibration     3          0.753              1.504              1.023

 Optimization completed.
    -- Stationary point found.
 Normal termination of Gaussian 09 at Mon Jun 20 10:59:06 2016.
