 Gaussian 09, Revision E.01,
 Gaussian 09:  EM64L-G09RevE.01 30-Nov-2015

 ---------------------------------------------
 #p b3lyp/6-311++G(3df,2p) freq symmetry=Loose
 ---------------------------------------------

 ---------
 b3lyp opt
 ---------
 Symbolic Z-matrix:
 Charge =  0 Multiplicity = 4

                         Standard orientation:
 ---------------------------------------------------------------------
 Center     Atomic      Atomic             Coordinates (Angstroms)
 Number     Number       Type             X           Y           Z
 ---------------------------------------------------------------------
      1          6           0       -0.003676    0.232306    0.000000
      2          6           0       -1.205911    1.065688    0.000000
      3          6           0        1.029008    1.199123    0.000000
      4          1           0        1.168505    2.266485    0.000000
      5          6           0       -0.003676   -1.156924    0.644977
      6          1           0       -0.020457   -1.683048    1.584624
      7          6           0       -0.003676   -1.156924   -0.644977
      8          1           0       -0.020457   -1.683048   -1.584624
 ---------------------------------------------------------------------

 SCF Done:  E(UB3LYP) =  -191.974794200     A.U. after   17 cycles

 The electronic state is 4-A'.
 Alpha  occ. eigenvalues --  -10.24411 -10.23347 -10.23323 -10.22650 -10.22538
 Alpha  occ. eigenvalues --   -0.92655  -0.78022  -0.64464  -0.60496  -0.56974
 Alpha  occ. eigenvalues --   -0.51851  -0.42483  -0.39939  -0.35205  -0.30122
 Alpha  occ. eigenvalues --   -0.26276  -0.23054  -0.19958
 Alpha virt. eigenvalues --   -0.08996  -0.03197  -0.00401   0.01093   0.01163
 Alpha virt. eigenvalues --    0.03755   0.04846   0.05177   0.06590   0.07194
 Alpha virt. eigenvalues --    0.09130   0.09773   0.10163   0.10672   0.11760

  Beta  occ. eigenvalues --  -10.24623 -10.22246 -10.22132 -10.21716 -10.20929
  Beta  occ. eigenvalues --   -0.91236  -0.74767  -0.59343  -0.59052  -0.55661
  Beta  occ. eigenvalues --   -0.50354  -0.40679  -0.36216  -0.32962  -0.26819
  Beta virt. eigenvalues --   -0.13548  -0.08401  -0.06591  -0.04278  -0.00876
  Beta virt. eigenvalues --   -0.00254   0.01455   0.01493   0.04071   0.05050
  Beta virt. eigenvalues --    0.05600   0.07003   0.07489   0.09283   0.10111

 Mulliken charges and spin densities:
               1          2
     1  C    0.750935  -0.289565
     2  C   -0.729236   1.115357
     3  C   -0.675789   1.748773
     4  H    0.247947  -0.010833
     5  C   -0.055352   0.194291
     6  H    0.258424   0.023843
     7  C   -0.055352   0.194291
     8  H    0.258424   0.023843
 Sum of Mulliken charges =  -0.00000   3.00000

 Dipole moment (field-independent basis, Debye):
    X=              1.8352    Y=             -1.9274    Z=              0.0000  Tot=              2.6613
 Quadrupole moment (field-independent basis, Debye-Ang):
   XX=            -34.9273   YY=            -27.3349   ZZ=            -28.1371
   XY=              4.2994   XZ=             -0.0000   YZ=              0.0000

  Exact polarizability:  63.952   0.601  70.431  -0.000   0.000  53.344
 Approx polarizability: 107.345   3.272  99.886   0.000  -0.000  84.004

 ******    1 imaginary frequencies (negative Signs) ******

                      1                      2                      3
                     A"                     A'                     A"
 Frequencies --   -467.8570               241.9243               324.5172
 Red. masses --      1.2172                 7.7475                 3.2698
 Frc consts  --      0.1570                 0.2672                 0.2029
 IR Inten    --     48.5348                15.8369                 1.5359

                      4                      5                      6
                     A'                     A"                     A'
 Frequencies --    330.5119               389.8183               558.3473
 Red. masses --      2.7091                 3.2134                 1.2176
 Frc consts  --      0.1744                 0.2877                 0.2236
 IR Inten    --     19.0313                 0.6406                 6.9692

                      7                      8                      9
                     A"                     A'                     A'
 Frequencies --    558.5519               680.8653               746.2809
 Red. masses --      6.2737                 1.4529                 2.9293
 Frc consts  --      1.1532                 0.3968                 0.9612
 IR Inten    --      1.9395               166.8733                14.6869

                     10                     11                     12
                     A"                     A'                     A"
 Frequencies --    829.5756               949.0023               979.1426
 Red. masses --      1.4632                 1.8178                 1.4612
 Frc consts  --      0.5933                 0.9646                 0.8254
 IR Inten    --      0.0160                 3.3896                28.7292

                     13                     14                     15
                     A'                     A'                     A'
 Frequencies --    998.0241              1169.5984              1693.9437
 Red. masses --      3.7994                 7.5272                 5.3601
 Frc consts  --      2.2297                 6.0668                 9.0619
 IR Inten    --      7.5050                 2.3655                24.1866

                     16                     17                     18
                     A"                     A'                     A'
 Frequencies --   3214.6777              3261.7499              3267.9651
 Red. masses --      1.0833                 1.1457                 1.0948
 Frc consts  --      6.5957                 7.1813                 6.8890
 IR Inten    --      0.5367                 0.2510                 9.4054

 - Thermochemistry -
 -------------------
 Temperature   298.150 Kelvin.  Pressure   1.00000 Atm.
 Atom     1 has atomic number  6 and mass  12.00000

 Molecular mass:    63.02348 amu.
 Principal axes and moments of inertia in atomic units:
                           1         2         3
     Eigenvalues --   165.85422 320.26376 378.66283
           X            0.05176   0.99866   0.00000
           Y            0.99866  -0.05176   0.00000
           Z            0.00000  -0.00000   1.00000
 This molecule is an asymmetric top.
 Rotational symmetry number  1.
 Rotational temperatures (Kelvin)      0.52223     0.27045     0.22874
 Rotational constants (GHZ):          10.88149     5.63517     4.76609
    1 imaginary frequencies ignored.
 Zero-point vibrational energy     120789.9 (Joules/Mol)
                                   28.86948 (Kcal/Mol)
 Warning -- explicit consideration of   6 degrees of freedom as
           vibrations may cause significant error
 Vibrational temperatures:    348.07   466.91   475.53   560.86   803.34
          (Kelvin)            803.63   979.61  1073.73  1193.57  1365.40
                             1408.77  1435.93  1682.79  2437.20  4625.20
                             4692.92  4701.87

 Zero-point correction=                           0.046006 (Hartree/Particle)
 Thermal correction to Energy=                    0.051228
 Thermal correction to Enthalpy=                  0.052172
 Thermal correction to Gibbs Free Energy=         0.017426
 Sum of electronic and zero-point Energies=           -191.928788
 Sum of electronic and thermal Energies=              -191.923566
 Sum of electronic and thermal Enthalpies=            -191.922622
 Sum of electronic and thermal Free Energies=         -191.957368

                     E (Thermal)             CV                S
                      KCal/Mol        Cal/Mol-Kelvin    Cal/Mol-Kelvin
 Total                   32.146             18.406             73.130
 Electronic               0.000              0.000              2.755
 Translational            0.889              2.981             38.342
 Rotational               0.889              2.981             24.512
 Vibrational             30.369             12.444              7.521
 Vibration     1          0.658              1.776              1.789
 Vibration     2          0.709              1.626              1.287
 Vibration     3          0.713              1.615              1.258
 Vibration     4          0.758              1.492              1.001
 Vibration     5          0.914              1.121              0.527
 Vibration     6          0.914              1.121              0.527

 Optimization completed.
    -- Stationary point found.
 Normal termination of Gaussian 09 at Mon Jun 20 11:03:02 2016.
