 Gaussian 09, Revision E.01,
 Gaussian 09:  EM64L-G09RevE.01 30-Nov-2015

 ---------------------------------------------
 #p b3lyp/6-311++G(3df,2p) freq symmetry=Loose
 ---------------------------------------------

 ---------
 b3lyp opt
 ---------
 Symbolic Z-matrix:
 Charge =  0 Multiplicity = 2

                         Standard orientation:
 ---------------------------------------------------------------------
 Center     Atomic      Atomic             Coordinates (Angstroms)
 Number     Number       Type             X           Y           Z
 ---------------------------------------------------------------------
      1          6           0       -0.655986    1.525915    0.000000
      2          1           0       -1.572677    2.089358    0.000000
      3          6           0        0.000000    0.241310    0.000000
      4          6           0        0.656521    1.525697    0.000000
      5          1           0        1.573448    2.088860    0.000000
      6          6           0       -0.000405   -1.099822    0.000000
      7          6           0       -0.000141   -2.325178    0.000000
      8          1           0       -0.000708   -3.385752    0.000000
 ---------------------------------------------------------------------

 SCF Done:  E(UB3LYP) =  -192.179920724     A.U. after   15 cycles

 The electronic state is 2-A".
 Alpha  occ. eigenvalues --  -10.23230 -10.23132 -10.21959 -10.17082 -10.16227
 Alpha  occ. eigenvalues --   -0.92852  -0.76099  -0.65410  -0.60508  -0.56971
 Alpha  occ. eigenvalues --   -0.50753  -0.41531  -0.40771  -0.37934  -0.30119
 Alpha  occ. eigenvalues --   -0.26197  -0.15092
 Alpha virt. eigenvalues --   -0.04596  -0.00590   0.00206   0.01212   0.02040
 Alpha virt. eigenvalues --    0.04004   0.04593   0.06232   0.06622   0.07329
 Alpha virt. eigenvalues --    0.08729   0.09573   0.10822   0.11052   0.11301

  Beta  occ. eigenvalues --  -10.23138 -10.23042 -10.21071 -10.17361 -10.15494
  Beta  occ. eigenvalues --   -0.92101  -0.75303  -0.63497  -0.60283  -0.56634
  Beta  occ. eigenvalues --   -0.50115  -0.40502  -0.38880  -0.37548  -0.27810
  Beta  occ. eigenvalues --   -0.25840
  Beta virt. eigenvalues --   -0.05263  -0.03813  -0.00589   0.00366   0.01274
  Beta virt. eigenvalues --    0.02106   0.04017   0.04908   0.06345   0.06948
  Beta virt. eigenvalues --    0.07370   0.08801   0.09694   0.10879   0.11198

 Mulliken charges and spin densities:
               1          2
     1  C   -0.060523   0.117364
     2  H    0.250173  -0.005322
     3  C   -0.439609   0.494595
     4  C   -0.060331   0.117643
     5  H    0.250130  -0.005331
     6  C   -0.582872  -0.240089
     7  C    0.339204   0.540201
     8  H    0.303828  -0.019061
 Sum of Mulliken charges =  -0.00000   1.00000

 Dipole moment (field-independent basis, Debye):
    X=             -0.0000    Y=              2.4791    Z=              0.0000  Tot=              2.4791
 Quadrupole moment (field-independent basis, Debye-Ang):
   XX=            -26.6655   YY=            -23.1182   ZZ=            -31.4322
   XY=              0.0016   XZ=              0.0000   YZ=              0.0000

  Exact polarizability:  49.375   0.006 105.013   0.000   0.000  37.978
 Approx polarizability:  77.295  -0.001 161.701  -0.000  -0.000  53.016

 ******    1 imaginary frequencies (negative Signs) ******

                      1                      2                      3
                     A"                     A"                     A'
 Frequencies --    -77.2852                68.6927               199.2779
 Red. masses --      1.7656                 3.0056                 3.6361
 Frc consts  --      0.0062                 0.0084                 0.0851
 IR Inten    --     42.2864                31.1638                 4.8909

                      4                      5                      6
                     A"                     A'                     A"
 Frequencies --    359.9794               474.7228               600.7518
 Red. masses --      3.8507                 4.4146                 1.2044
 Frc consts  --      0.2940                 0.5862                 0.2561
 IR Inten    --      6.9193                 6.9708                58.2257

                      7                      8                      9
                     A'                     A'                     A'
 Frequencies --    657.7430               700.7293               711.6105
 Red. masses --      1.3319                 6.0683                 3.9190
 Frc consts  --      0.3395                 1.7556                 1.1693
 IR Inten    --     30.4181                40.3789                 1.5719

                     10                     11                     12
                     A"                     A'                     A'
 Frequencies --    874.3874               976.9812              1038.3045
 Red. masses --      1.4360                 1.2095                 1.4163
 Frc consts  --      0.6468                 0.6802                 0.8996
 IR Inten    --      0.0000                 0.4078                12.2262

                     13                     14                     15
                     A'                     A'                     A'
 Frequencies --   1473.4991              1689.1947              2037.8914
 Red. masses --      8.7649                 5.6591                 7.3650
 Frc consts  --     11.2124                 9.5139                18.0214
 IR Inten    --     25.0592                46.5933                16.1055

                     16                     17                     18
                     A'                     A'                     A'
 Frequencies --   3230.1911              3278.4917              3462.0208
 Red. masses --      1.0804                 1.1412                 1.1342
 Frc consts  --      6.6416                 7.2272                 8.0097
 IR Inten    --      9.9130                 1.5486                92.7790

 - Thermochemistry -
 -------------------
 Temperature   298.150 Kelvin.  Pressure   1.00000 Atm.
 Atom     1 has atomic number  6 and mass  12.00000

 Molecular mass:    63.02348 amu.
 Principal axes and moments of inertia in atomic units:
                           1         2         3
     Eigenvalues --    54.72243 558.17798 612.90041
           X            0.00015   1.00000   0.00000
           Y            1.00000  -0.00015   0.00000
           Z            0.00000  -0.00000   1.00000
 This molecule is an asymmetric top.
 Rotational symmetry number  1.
 Rotational temperatures (Kelvin)      1.58278     0.15517     0.14132
 Rotational constants (GHZ):          32.97992     3.23327     2.94459
    1 imaginary frequencies ignored.
 Zero-point vibrational energy     130599.1 (Joules/Mol)
                                   31.21394 (Kcal/Mol)
 Warning -- explicit consideration of   5 degrees of freedom as
           vibrations may cause significant error
 Vibrational temperatures:     98.83   286.72   517.93   683.02   864.35
          (Kelvin)            946.34  1008.19  1023.85  1258.05  1405.66
                             1493.89  2120.03  2430.37  2932.07  4647.52
                             4717.01  4981.07

 Zero-point correction=                           0.049743 (Hartree/Particle)
 Thermal correction to Energy=                    0.055178
 Thermal correction to Enthalpy=                  0.056122
 Thermal correction to Gibbs Free Energy=         0.020914
 Sum of electronic and zero-point Energies=           -192.130178
 Sum of electronic and thermal Energies=              -192.124743
 Sum of electronic and thermal Enthalpies=            -192.123799
 Sum of electronic and thermal Free Energies=         -192.159006

                     E (Thermal)             CV                S
                      KCal/Mol        Cal/Mol-Kelvin    Cal/Mol-Kelvin
 Total                   34.625             17.617             74.101
 Electronic               0.000              0.000              1.377
 Translational            0.889              2.981             38.342
 Rotational               0.889              2.981             24.441
 Vibrational             32.847             11.655              9.940
 Vibration     1          0.598              1.969              4.190
 Vibration     2          0.637              1.841              2.140
 Vibration     3          0.734              1.555              1.122
 Vibration     4          0.831              1.306              0.724
 Vibration     5          0.959              1.030              0.448

 Optimization completed.
    -- Stationary point found.
 Normal termination of Gaussian 09 at Mon Jun 20 11:02:10 2016.
