 Gaussian 09, Revision E.01,
 Gaussian 09:  EM64L-G09RevE.01 30-Nov-2015

 ---------------------------------------------
 #p b3lyp/6-311++G(3df,2p) freq symmetry=Loose
 ---------------------------------------------

 ---------
 b3lyp opt
 ---------
 Symbolic Z-matrix:
 Charge =  1 Multiplicity = 4

                         Standard orientation:
 ---------------------------------------------------------------------
 Center     Atomic      Atomic             Coordinates (Angstroms)
 Number     Number       Type             X           Y           Z
 ---------------------------------------------------------------------
      1          6           0        0.000000    0.000000    0.000000
      2          1           0        0.000000    0.437961    1.356036
      3          1           0       -0.437961    0.000000   -1.356036
      4          1           0        0.437961   -0.000000   -1.356036
      5          1           0       -0.000000   -0.437961    1.356036
 ---------------------------------------------------------------------

 SCF Done:  E(UB3LYP) =  -39.8231732573     A.U. after    9 cycles

 The electronic state is 4-A1.
 Alpha  occ. eigenvalues --  -10.60656  -1.04093  -0.89812  -0.60416  -0.60416
 Alpha  occ. eigenvalues --   -0.58096
 Alpha virt. eigenvalues --   -0.26591  -0.21012  -0.21012  -0.16343  -0.11353
 Alpha virt. eigenvalues --   -0.11353  -0.09009  -0.06535  -0.03618  -0.03618
 Alpha virt. eigenvalues --    0.00207   0.06340   0.06570   0.06795   0.11585

  Beta  occ. eigenvalues --  -10.56310  -0.93575  -0.84375
  Beta virt. eigenvalues --   -0.41174  -0.40156  -0.40156  -0.21619  -0.16503
  Beta virt. eigenvalues --   -0.16503  -0.15580  -0.09561  -0.09561  -0.07483
  Beta virt. eigenvalues --   -0.05515  -0.02023  -0.02023   0.00539   0.07600

 Mulliken charges and spin densities:
               1          2
     1  C    0.097121   2.195762
     2  H    0.225720   0.201059
     3  H    0.225720   0.201059
     4  H    0.225720   0.201059
     5  H    0.225720   0.201059
 Sum of Mulliken charges =   1.00000   3.00000

 Dipole moment (field-independent basis, Debye):
    X=              0.0000    Y=              0.0000    Z=             -0.0000  Tot=              0.0000
 Quadrupole moment (field-independent basis, Debye-Ang):
   XX=             -7.2853   YY=             -7.2853   ZZ=              1.1023
   XY=             -0.0000   XZ=             -0.0000   YZ=             -0.0000

  Exact polarizability:  12.368   0.000  12.368   0.000  -0.000  30.835
 Approx polarizability:  15.682  -0.000  15.682  -0.000   0.000  43.066

 ******    3 imaginary frequencies (negative Signs) ******

                      1                      2                      3
                     B2                      E                      E
 Frequencies --  -1103.4871              -356.3601              -356.3601
 Red. masses --      1.2890                 1.0522                 1.0522
 Frc consts  --      0.9248                 0.0787                 0.0787
 IR Inten    --    266.6116                11.0012                11.0012

                      4                      5                      6
                     B1                      E                      E
 Frequencies --    532.5815               946.6280               946.6280
 Red. masses --      1.0078                 1.2414                 1.2414
 Frc consts  --      0.1684                 0.6554                 0.6554
 IR Inten    --      0.0000               140.5566               140.5566

                      7                      8                      9
                     A1                     B2                     A1
 Frequencies --   1385.5158              2846.4901              2875.7983
 Red. masses --      1.0078                 1.0203                 1.0078
 Frc consts  --      1.1399                 4.8707                 4.9108
 IR Inten    --      0.0000               187.0496                 0.0000

 - Thermochemistry -
 -------------------
 Temperature   298.150 Kelvin.  Pressure   1.00000 Atm.
 Atom     1 has atomic number  6 and mass  12.00000

 Molecular mass:    16.03130 amu.
 Principal axes and moments of inertia in atomic units:
                           1         2         3
     Eigenvalues --     2.76130  27.85256  27.85256
           X           -0.00000   0.79631  -0.60489
           Y           -0.00000   0.60489   0.79631
           Z            1.00000   0.00000  -0.00000
 This molecule is a prolate symmetric top.
 Rotational symmetry number  4.
 Rotational temperatures (Kelvin)     31.36703     3.10973     3.10973
 Rotational constants (GHZ):         653.58366    64.79624    64.79624
    3 imaginary frequencies ignored.
 Zero-point vibrational energy      57023.8 (Joules/Mol)
                                   13.62903 (Kcal/Mol)
 Warning -- explicit consideration of   1 degrees of freedom as
           vibrations may cause significant error
 Vibrational temperatures:    766.27  1361.98  1361.98  1993.45  4095.46
          (Kelvin)           4137.63

 Zero-point correction=                           0.021719 (Hartree/Particle)
 Thermal correction to Energy=                    0.024851
 Thermal correction to Enthalpy=                  0.025795
 Thermal correction to Gibbs Free Energy=         0.001793
 Sum of electronic and zero-point Energies=            -39.801454
 Sum of electronic and thermal Energies=               -39.798322
 Sum of electronic and thermal Enthalpies=             -39.797378
 Sum of electronic and thermal Free Energies=          -39.821380

                     E (Thermal)             CV                S
                      KCal/Mol        Cal/Mol-Kelvin    Cal/Mol-Kelvin
 Total                   15.594              8.130             50.517
 Electronic               0.000              0.000              2.755
 Translational            0.889              2.981             34.261
 Rotational               0.889              2.981             12.669
 Vibrational             13.817              2.169              0.832
 Vibration     1          0.888              1.178              0.581

 Optimization completed.
    -- Stationary point found.
 Normal termination of Gaussian 09 at Mon Jun 20 11:51:57 2016.
