 Gaussian 09, Revision E.01,
 Gaussian 09:  EM64L-G09RevE.01 30-Nov-2015

 ---------------------------------------------
 #p b3lyp/6-311++G(3df,2p) freq symmetry=Loose
 ---------------------------------------------

 ---------
 b3lyp opt
 ---------
 Symbolic Z-matrix:
 Charge =  1 Multiplicity = 2

                         Standard orientation:
 ---------------------------------------------------------------------
 Center     Atomic      Atomic             Coordinates (Angstroms)
 Number     Number       Type             X           Y           Z
 ---------------------------------------------------------------------
      1          6           0        0.000000    0.707288    0.000000
      2          1           0       -0.932218    1.262589    0.000000
      3          1           0        0.931983    1.263382    0.000000
      4          6           0       -0.000000   -0.707288    0.000000
      5          1           0        0.932218   -1.262589    0.000000
      6          1           0       -0.931983   -1.263382    0.000000
 ---------------------------------------------------------------------

 SCF Done:  E(UB3LYP) =  -78.2388772532     A.U. after    9 cycles

 The electronic state is 2-AU.
 Alpha  occ. eigenvalues --  -10.53176 -10.53132  -1.09099  -0.89719  -0.77500
 Alpha  occ. eigenvalues --   -0.73285  -0.66757  -0.61670
 Alpha virt. eigenvalues --   -0.34736  -0.18154  -0.15188  -0.15043  -0.11097
 Alpha virt. eigenvalues --   -0.09920  -0.08910  -0.08792  -0.05719  -0.05025
 Alpha virt. eigenvalues --   -0.04188  -0.02568  -0.02302  -0.01334   0.00801

  Beta  occ. eigenvalues --  -10.52427 -10.52389  -1.05708  -0.88099  -0.76829
  Beta  occ. eigenvalues --   -0.72338  -0.66367
  Beta virt. eigenvalues --   -0.48125  -0.28409  -0.17900  -0.14909  -0.14704
  Beta virt. eigenvalues --   -0.10227  -0.09579  -0.08731  -0.08132  -0.05599
  Beta virt. eigenvalues --   -0.04333  -0.04137  -0.02106  -0.01746  -0.01298

 Mulliken charges and spin densities:
               1          2
     1  C    0.029619   0.523011
     2  H    0.235139  -0.011501
     3  H    0.235242  -0.011510
     4  C    0.029619   0.523011
     5  H    0.235139  -0.011501
     6  H    0.235242  -0.011510
 Sum of Mulliken charges =   1.00000   1.00000

 Dipole moment (field-independent basis, Debye):
    X=             -0.0000    Y=              0.0000    Z=              0.0000  Tot=              0.0000
 Quadrupole moment (field-independent basis, Debye-Ang):
   XX=             -8.5305   YY=             -5.4774   ZZ=            -11.3766
   XY=              0.0023   XZ=              0.0000   YZ=              0.0000

  Exact polarizability:  18.509   0.002  27.419   0.000   0.000  13.788
 Approx polarizability:  23.492   0.004  34.830  -0.000  -0.000  18.859

 ******    1 imaginary frequencies (negative Signs) ******

                      1                      2                      3
                     AU                     BU                     AU
 Frequencies --   -501.5402               842.6141               981.7765
 Red. masses --      1.0078                 1.0401                 1.1607
 Frc consts  --      0.1494                 0.4351                 0.6592
 IR Inten    --      0.0000                 2.3715                32.6102

                      4                      5                      6
                     BG                     AG                     AG
 Frequencies --   1122.8523              1236.2899              1270.4005
 Red. masses --      1.4810                 1.4583                 2.2048
 Frc consts  --      1.1001                 1.3133                 2.0966
 IR Inten    --      0.0000                 0.0000                 0.0000

                      7                      8                      9
                     BU                     AG                     BU
 Frequencies --   1475.7195              1554.6751              3122.1041
 Red. masses --      1.1121                 1.4841                 1.0476
 Frc consts  --      1.4270                 2.1134                 6.0164
 IR Inten    --     32.4440                 0.0000                46.8747

                     10                     11                     12
                     AG                     AG                     BU
 Frequencies --   3126.6312              3228.4850              3245.4541
 Red. masses --      1.0633                 1.1271                 1.1207
 Frc consts  --      6.1246                 6.9215                 6.9548
 IR Inten    --      0.0000                 0.0000                55.3013

 - Thermochemistry -
 -------------------
 Temperature   298.150 Kelvin.  Pressure   1.00000 Atm.
 Atom     1 has atomic number  6 and mass  12.00000

 Molecular mass:    28.03130 amu.
 Principal axes and moments of inertia in atomic units:
                           1         2         3
     Eigenvalues --    12.50744  65.83833  78.34577
           X            0.00006   1.00000   0.00000
           Y            1.00000  -0.00006   0.00000
           Z            0.00000  -0.00000   1.00000
 This molecule is an asymmetric top.
 Rotational symmetry number  2.
 Rotational temperatures (Kelvin)      6.92498     1.31555     1.10553
 Rotational constants (GHZ):         144.29344    27.41171    23.03559
    1 imaginary frequencies ignored.
 Zero-point vibrational energy     126846.0 (Joules/Mol)
                                   30.31693 (Kcal/Mol)
 Vibrational temperatures:   1212.33  1412.56  1615.53  1778.74  1827.82
          (Kelvin)           2123.23  2236.83  4492.01  4498.52  4645.06
                             4669.48

 Zero-point correction=                           0.048313 (Hartree/Particle)
 Thermal correction to Energy=                    0.051311
 Thermal correction to Enthalpy=                  0.052256
 Thermal correction to Gibbs Free Energy=         0.026050
 Sum of electronic and zero-point Energies=            -78.190564
 Sum of electronic and thermal Energies=               -78.187566
 Sum of electronic and thermal Enthalpies=             -78.186622
 Sum of electronic and thermal Free Energies=          -78.212828

                     E (Thermal)             CV                S
                      KCal/Mol        Cal/Mol-Kelvin    Cal/Mol-Kelvin
 Total                   32.198              7.693             55.155
 Electronic               0.000              0.000              1.377
 Translational            0.889              2.981             35.927
 Rotational               0.889              2.981             17.429
 Vibrational             30.421              1.731              0.422

 Normal termination of Gaussian 09 at Mon Jun 20 11:13:21 2016.
