 Gaussian 09, Revision E.01,
 Gaussian 09:  EM64L-G09RevE.01 30-Nov-2015

 ---------------------------------------------
 #p b3lyp/6-311++G(3df,2p) freq symmetry=Loose
 ---------------------------------------------

 ---------
 b3lyp opt
 ---------
 Symbolic Z-matrix:
 Charge =  2 Multiplicity = 1

                         Standard orientation:
 ---------------------------------------------------------------------
 Center     Atomic      Atomic             Coordinates (Angstroms)
 Number     Number       Type             X           Y           Z
 ---------------------------------------------------------------------
      1          6           0        0.000000    0.808801    0.000000
      2          1           0        0.967166    1.343616    0.000000
      3          1           0       -0.967820    1.342555    0.000000
      4          6           0       -0.000000   -0.808801    0.000000
      5          1           0       -0.967166   -1.343616    0.000000
      6          1           0        0.967820   -1.342555    0.000000
 ---------------------------------------------------------------------

 SCF Done:  E(RB3LYP) =  -77.5255069839     A.U. after    7 cycles

 The electronic state is 1-AG.
 Alpha  occ. eigenvalues --  -10.90950 -10.90938  -1.35762  -1.20300  -1.06324
 Alpha  occ. eigenvalues --   -1.01728  -0.98736
 Alpha virt. eigenvalues --   -0.80190  -0.65323  -0.45181  -0.40742  -0.37192
 Alpha virt. eigenvalues --   -0.33886  -0.31479  -0.29398  -0.28706  -0.28617
 Alpha virt. eigenvalues --   -0.27396  -0.24240  -0.23898  -0.22271  -0.17276

 Mulliken charges:
               1
     1  C    0.349918
     2  H    0.325156
     3  H    0.324926
     4  C    0.349918
     5  H    0.325156
     6  H    0.324926
 Sum of Mulliken charges =   2.00000

 Dipole moment (field-independent basis, Debye):
    X=              0.0000    Y=              0.0000    Z=              0.0000  Tot=              0.0000
 Quadrupole moment (field-independent basis, Debye-Ang):
   XX=             -4.9541   YY=              2.4130   ZZ=             -8.3046
   XY=              0.0023   XZ=              0.0000   YZ=              0.0000

  Exact polarizability:  15.424   0.001  18.843  -0.000  -0.000  10.800
 Approx polarizability:  19.134   0.003  22.228  -0.000  -0.000  16.017

 ******    1 imaginary frequencies (negative Signs) ******

                      1                      2                      3
                     AU                     BU                     AG
 Frequencies --   -876.1478               805.6231               903.6855
 Red. masses --      1.0078                 1.0349                 4.8141
 Frc consts  --      0.4558                 0.3958                 2.3163
 IR Inten    --      0.0000                 5.6674                 0.0000

                      4                      5                      6
                     AU                     AG                     BG
 Frequencies --   1020.2155              1139.7413              1300.1971
 Red. masses --      1.1607                 1.3605                 1.4194
 Frc consts  --      0.7118                 1.0413                 1.4138
 IR Inten    --     20.0818                 0.0000                 0.0000

                      7                      8                      9
                     BU                     AG                     BU
 Frequencies --   1389.8680              1434.8788              2939.7663
 Red. masses --      1.1153                 1.1014                 1.0448
 Frc consts  --      1.2694                 1.3360                 5.3197
 IR Inten    --     19.6209                 0.0000               206.9523

                     10                     11                     12
                     AG                     BU                     AG
 Frequencies --   2955.1466              3083.6188              3084.4206
 Red. masses --      1.0503                 1.1267                 1.1441
 Frc consts  --      5.4039                 6.3123                 6.4128
 IR Inten    --      0.0000               363.4670                 0.0000

 - Thermochemistry -
 -------------------
 Temperature   298.150 Kelvin.  Pressure   1.00000 Atm.
 Atom     1 has atomic number  6 and mass  12.00000

 Molecular mass:    28.03130 amu.
 Principal axes and moments of inertia in atomic units:
                           1         2         3
     Eigenvalues --    13.47530  82.03377  95.50907
           X            0.00002   1.00000   0.00000
           Y            1.00000  -0.00002   0.00000
           Z            0.00000  -0.00000   1.00000
 This molecule is an asymmetric top.
 Rotational symmetry number  2.
 Rotational temperatures (Kelvin)      6.42760     1.05583     0.90686
 Rotational constants (GHZ):         133.92953    21.99998    18.89602
    1 imaginary frequencies ignored.
 Zero-point vibrational energy     119968.5 (Joules/Mol)
                                   28.67315 (Kcal/Mol)
 Vibrational temperatures:   1159.11  1300.20  1467.86  1639.83  1870.69
          (Kelvin)           1999.71  2064.47  4229.66  4251.79  4436.63
                             4437.79

 Zero-point correction=                           0.045694 (Hartree/Particle)
 Thermal correction to Energy=                    0.048737
 Thermal correction to Enthalpy=                  0.049681
 Thermal correction to Gibbs Free Energy=         0.023840
 Sum of electronic and zero-point Energies=            -77.479813
 Sum of electronic and thermal Energies=               -77.476770
 Sum of electronic and thermal Enthalpies=             -77.475826
 Sum of electronic and thermal Free Energies=          -77.501667

                     E (Thermal)             CV                S
                      KCal/Mol        Cal/Mol-Kelvin    Cal/Mol-Kelvin
 Total                   30.583              8.054             54.387
 Electronic               0.000              0.000              0.000
 Translational            0.889              2.981             35.927
 Rotational               0.889              2.981             17.919
 Vibrational             28.805              2.092              0.541

 Optimization completed.
    -- Stationary point found.
 Normal termination of Gaussian 09 at Mon Jun 20 11:13:09 2016.
