 Gaussian 09, Revision E.01,
 Gaussian 09:  EM64L-G09RevE.01 30-Nov-2015

 ---------------------------------------------
 #p b3lyp/6-311++G(3df,2p) freq symmetry=Loose
 ---------------------------------------------

 ---------
 b3lyp opt
 ---------
 Symbolic Z-matrix:
 Charge =  3 Multiplicity = 2

                         Standard orientation:
 ---------------------------------------------------------------------
 Center     Atomic      Atomic             Coordinates (Angstroms)
 Number     Number       Type             X           Y           Z
 ---------------------------------------------------------------------
      1          6           0        0.000000    0.778987    0.000000
      2          1           0       -0.982562    1.548167    0.000000
      3          1           0        0.982432    1.549112    0.000000
      4          6           0       -0.000000   -0.778987    0.000000
      5          1           0        0.982562   -1.548167    0.000000
      6          1           0       -0.982432   -1.549112    0.000000
 ---------------------------------------------------------------------

 SCF Done:  E(UB3LYP) =  -76.4579392830     A.U. after    9 cycles

 The electronic state is 2-AG.
 Alpha  occ. eigenvalues --  -11.25540 -11.25525  -1.66542  -1.48867  -1.34394
 Alpha  occ. eigenvalues --   -1.33129  -1.24751
 Alpha virt. eigenvalues --   -1.10129  -0.93980  -0.77073  -0.74053  -0.67572
 Alpha virt. eigenvalues --   -0.62042  -0.60889  -0.55060  -0.49669  -0.49648
 Alpha virt. eigenvalues --   -0.48223  -0.47577  -0.43544  -0.41619  -0.36126

  Beta  occ. eigenvalues --  -11.25094 -11.25075  -1.64885  -1.45418  -1.32512
  Beta  occ. eigenvalues --   -1.27087
  Beta virt. eigenvalues --   -1.13287  -1.09633  -0.93288  -0.75054  -0.70751
  Beta virt. eigenvalues --   -0.65768  -0.59400  -0.58317  -0.54674  -0.49059
  Beta virt. eigenvalues --   -0.48829  -0.48054  -0.46846  -0.42725  -0.41393

 Mulliken charges and spin densities:
               1          2
     1  C    0.591933   0.249780
     2  H    0.453916   0.125066
     3  H    0.454151   0.125154
     4  C    0.591933   0.249780
     5  H    0.453916   0.125066
     6  H    0.454151   0.125154
 Sum of Mulliken charges =   3.00000   1.00000

 Dipole moment (field-independent basis, Debye):
    X=             -0.0000    Y=              0.0000    Z=              0.0000  Tot=              0.0000
 Quadrupole moment (field-independent basis, Debye-Ang):
   XX=             -0.1062   YY=             16.1896   ZZ=             -7.4890
   XY=              0.0079   XZ=              0.0000   YZ=              0.0000

  Exact polarizability:  17.359   0.011  42.421   0.000  -0.000  10.096
 Approx polarizability:  23.425   0.021  73.011  -0.000  -0.000  14.694

 ******    2 imaginary frequencies (negative Signs) ******

                      1                      2                      3
                     AU                     BU                     AG
 Frequencies --   -820.4055              -336.4954               501.3961
 Red. masses --      1.0078                 1.1553                 1.7842
 Frc consts  --      0.3997                 0.0771                 0.2643
 IR Inten    --      0.0000              4902.4983                 0.0000

                      4                      5                      6
                     BU                     AU                     AG
 Frequencies --    564.4395               743.8606               937.7853
 Red. masses --      1.0588                 1.1607                 3.2307
 Frc consts  --      0.1988                 0.3784                 1.6740
 IR Inten    --    112.8949               203.0854                 0.0000

                      7                      8                      9
                     BG                     AG                     AG
 Frequencies --   1001.1802              1114.3110              1308.4159
 Red. masses --      1.5883                 1.1772                 1.0144
 Frc consts  --      0.9380                 0.8612                 1.0232
 IR Inten    --      0.0000                 0.0000                 0.0000

                     10                     11                     12
                     BU                     BU                     AG
 Frequencies --   1499.7288              1619.4797              2110.3286
 Red. masses --      1.0120                 1.0997                 1.1004
 Frc consts  --      1.3410                 1.6993                 2.8873
 IR Inten    --   2494.3940              2039.2110                 0.0000

 - Thermochemistry -
 -------------------
 Temperature   298.150 Kelvin.  Pressure   1.00000 Atm.
 Atom     1 has atomic number  6 and mass  12.00000

 Molecular mass:    28.03130 amu.
 Principal axes and moments of inertia in atomic units:
                           1         2         3
     Eigenvalues --    13.89650  86.53370 100.43019
           X            0.00007   1.00000   0.00000
           Y            1.00000  -0.00007   0.00000
           Z           -0.00000  -0.00000   1.00000
 This molecule is an asymmetric top.
 Rotational symmetry number  2.
 Rotational temperatures (Kelvin)      6.23278     1.00093     0.86243
 Rotational constants (GHZ):         129.87023    20.85594    17.97011
    2 imaginary frequencies ignored.
 Zero-point vibrational energy      68192.7 (Joules/Mol)
                                   16.29844 (Kcal/Mol)
 Warning -- explicit consideration of   2 degrees of freedom as
           vibrations may cause significant error
 Vibrational temperatures:    721.40   812.10  1070.25  1349.26  1440.47
          (Kelvin)           1603.24  1882.52  2157.77  2330.07  3036.29

 Zero-point correction=                           0.025973 (Hartree/Particle)
 Thermal correction to Energy=                    0.029432
 Thermal correction to Enthalpy=                  0.030376
 Thermal correction to Gibbs Free Energy=         0.003245
 Sum of electronic and zero-point Energies=            -76.431966
 Sum of electronic and thermal Energies=               -76.428507
 Sum of electronic and thermal Enthalpies=             -76.427563
 Sum of electronic and thermal Free Energies=          -76.454695

                     E (Thermal)             CV                S
                      KCal/Mol        Cal/Mol-Kelvin    Cal/Mol-Kelvin
 Total                   18.469             10.434             57.103
 Electronic               0.000              0.000              1.377
 Translational            0.889              2.981             35.927
 Rotational               0.889              2.981             18.052
 Vibrational             16.691              4.473              1.746
 Vibration     1          0.857              1.247              0.655
 Vibration     2          0.920              1.108              0.515

 Optimization completed.
    -- Stationary point found.
 Normal termination of Gaussian 09 at Mon Jun 20 11:13:19 2016.
