 Gaussian 09, Revision E.01,
 Gaussian 09:  EM64L-G09RevE.01 30-Nov-2015

 ---------------------------------------------
 #p b3lyp/6-311++G(3df,2p) freq symmetry=Loose
 ---------------------------------------------

 ---------
 b3lyp opt
 ---------
 Symbolic Z-matrix:
 Charge =  1 Multiplicity = 4

                         Standard orientation:
 ---------------------------------------------------------------------
 Center     Atomic      Atomic             Coordinates (Angstroms)
 Number     Number       Type             X           Y           Z
 ---------------------------------------------------------------------
      1          6           0        0.000000    0.950080    0.000000
      2          1           0        1.047678    1.220991    0.000000
      3          1           0       -1.048208    1.218535    0.000000
      4          6           0       -0.000000   -0.950080    0.000000
      5          1           0       -1.047678   -1.220991    0.000000
      6          1           0        1.048208   -1.218535    0.000000
 ---------------------------------------------------------------------

 SCF Done:  E(UB3LYP) =  -78.0362712573     A.U. after    9 cycles

 The electronic state is 4-BU.
 Alpha  occ. eigenvalues --  -10.53693 -10.53689  -1.03315  -0.92535  -0.78351
 Alpha  occ. eigenvalues --   -0.73307  -0.64644  -0.58189  -0.49257
 Alpha virt. eigenvalues --   -0.26997  -0.21078  -0.14430  -0.13956  -0.12169
 Alpha virt. eigenvalues --   -0.10129  -0.09340  -0.07779  -0.07130  -0.05593
 Alpha virt. eigenvalues --   -0.02754  -0.02164  -0.00080   0.00845   0.00894

  Beta  occ. eigenvalues --  -10.51373 -10.51373  -0.95224  -0.85629  -0.76515
  Beta  occ. eigenvalues --   -0.71484
  Beta virt. eigenvalues --   -0.49576  -0.39113  -0.29455  -0.19371  -0.19342
  Beta virt. eigenvalues --   -0.13702  -0.12330  -0.11274  -0.09134  -0.08358
  Beta virt. eigenvalues --   -0.06058  -0.05810  -0.04096  -0.02050  -0.01925

 Mulliken charges and spin densities:
               1          2
     1  C   -0.056857   1.500615
     2  H    0.278459  -0.000461
     3  H    0.278398  -0.000155
     4  C   -0.056857   1.500615
     5  H    0.278459  -0.000461
     6  H    0.278398  -0.000155
 Sum of Mulliken charges =   1.00000   3.00000

 Dipole moment (field-independent basis, Debye):
    X=              0.0000    Y=              0.0000    Z=              0.0000  Tot=              0.0000
 Quadrupole moment (field-independent basis, Debye-Ang):
   XX=             -6.6701   YY=             -4.4430   ZZ=            -13.5440
   XY=              0.0038   XZ=              0.0000   YZ=              0.0000

  Exact polarizability:  21.071   0.001  29.358   0.000  -0.000  16.629
 Approx polarizability:  27.108  -0.004  36.865  -0.000  -0.000  21.025

 ******    3 imaginary frequencies (negative Signs) ******

                      1                      2                      3
                     BG                     AU                     AU
 Frequencies --   -625.7120              -527.9731              -363.1923
 Red. masses --      1.2576                 1.1607                 1.0078
 Frc consts  --      0.2901                 0.1906                 0.0783
 IR Inten    --      0.0000               178.2406                 0.0011

                      4                      5                      6
                     AG                     AG                     BU
 Frequencies --    386.5450               481.9113               660.3403
 Red. masses --      1.2287                 6.4499                 1.0147
 Frc consts  --      0.1082                 0.8825                 0.2607
 IR Inten    --      0.0000                 0.0000                 1.2888

                      7                      8                      9
                     BU                     AG                     BU
 Frequencies --   1065.0521              1209.8305              3051.9139
 Red. masses --      1.1486                 1.0782                 1.0171
 Frc consts  --      0.7677                 0.9298                 5.5818
 IR Inten    --     15.5193                 0.0000               117.4615

                     10                     11                     12
                     AG                     AG                     BU
 Frequencies --   3075.1329              3308.8470              3349.8185
 Red. masses --      1.0149                 1.1425                 1.1517
 Frc consts  --      5.6545                 7.3697                 7.6145
 IR Inten    --      0.0000                 0.0000               321.0951

 - Thermochemistry -
 -------------------
 Temperature   298.150 Kelvin.  Pressure   1.00000 Atm.
 Atom     1 has atomic number  6 and mass  12.00000

 Molecular mass:    28.03130 amu.
 Principal axes and moments of inertia in atomic units:
                           1         2         3
     Eigenvalues --    15.80950  98.78105 114.59055
           X            0.00017   1.00000   0.00000
           Y            1.00000  -0.00017   0.00000
           Z            0.00000  -0.00000   1.00000
 This molecule is an asymmetric top.
 Rotational symmetry number  2.
 Rotational temperatures (Kelvin)      5.47859     0.87683     0.75585
 Rotational constants (GHZ):         114.15548    18.27012    15.74948
    3 imaginary frequencies ignored.
 Zero-point vibrational energy      99226.6 (Joules/Mol)
                                   23.71573 (Kcal/Mol)
 Warning -- explicit consideration of   2 degrees of freedom as
           vibrations may cause significant error
 Vibrational temperatures:    556.15   693.36   950.08  1532.37  1740.67
          (Kelvin)           4391.02  4424.42  4760.69  4819.64

 Zero-point correction=                           0.037793 (Hartree/Particle)
 Thermal correction to Energy=                    0.041361
 Thermal correction to Enthalpy=                  0.042305
 Thermal correction to Gibbs Free Energy=         0.014124
 Sum of electronic and zero-point Energies=            -77.998478
 Sum of electronic and thermal Energies=               -77.994910
 Sum of electronic and thermal Enthalpies=             -77.993966
 Sum of electronic and thermal Free Energies=          -78.022147

                     E (Thermal)             CV                S
                      KCal/Mol        Cal/Mol-Kelvin    Cal/Mol-Kelvin
 Total                   25.954             10.168             59.311
 Electronic               0.000              0.000              2.755
 Translational            0.889              2.981             35.927
 Rotational               0.889              2.981             18.443
 Vibrational             24.177              4.206              2.187
 Vibration     1          0.755              1.499              1.013
 Vibration     2          0.838              1.290              0.705

 Optimization completed.
    -- Stationary point found.
 Normal termination of Gaussian 09 at Mon Jun 20 11:13:21 2016.
