 Gaussian 09, Revision E.01,
 Gaussian 09:  EM64L-G09RevE.01 30-Nov-2015

 ---------------------------------------------
 #p b3lyp/6-311++G(3df,2p) freq symmetry=Loose
 ---------------------------------------------

 ---------
 b3lyp opt
 ---------
 Symbolic Z-matrix:
 Charge =  0 Multiplicity = 3

                         Standard orientation:
 ---------------------------------------------------------------------
 Center     Atomic      Atomic             Coordinates (Angstroms)
 Number     Number       Type             X           Y           Z
 ---------------------------------------------------------------------
      1          6           0        0.000000    0.768097    0.000000
      2          1           0       -0.929758    1.314128    0.000000
      3          1           0        0.929523    1.315247    0.000000
      4          6           0       -0.000000   -0.768097    0.000000
      5          1           0        0.929758   -1.314128    0.000000
      6          1           0       -0.929523   -1.315247    0.000000
 ---------------------------------------------------------------------

 SCF Done:  E(UB3LYP) =  -78.4886962540     A.U. after    9 cycles

 The electronic state is 3-BU.
 Alpha  occ. eigenvalues --  -10.19228 -10.19212  -0.75343  -0.61483  -0.46807
 Alpha  occ. eigenvalues --   -0.40910  -0.38908  -0.31474  -0.15397
 Alpha virt. eigenvalues --   -0.00150   0.01435   0.02400   0.05196   0.06360
 Alpha virt. eigenvalues --    0.07860   0.10054   0.10796   0.11872   0.14137
 Alpha virt. eigenvalues --    0.14467   0.14780   0.16536   0.16538   0.17245

  Beta  occ. eigenvalues --  -10.17783 -10.17766  -0.70748  -0.57907  -0.45757
  Beta  occ. eigenvalues --   -0.39443  -0.38070
  Beta virt. eigenvalues --   -0.14433   0.00030   0.00468   0.01678   0.02350
  Beta virt. eigenvalues --    0.05098   0.07807   0.07978   0.11717   0.12060
  Beta virt. eigenvalues --    0.12750   0.14065   0.15050   0.15604   0.16656

 Mulliken charges and spin densities:
               1          2
     1  C   -0.303292   1.061566
     2  H    0.151629  -0.030745
     3  H    0.151663  -0.030822
     4  C   -0.303292   1.061566
     5  H    0.151629  -0.030745
     6  H    0.151663  -0.030822
 Sum of Mulliken charges =   0.00000   2.00000

 Dipole moment (field-independent basis, Debye):
    X=             -0.0000    Y=              0.0000    Z=              0.0000  Tot=              0.0000
 Quadrupole moment (field-independent basis, Debye-Ang):
   XX=            -12.5633   YY=            -13.9119   ZZ=            -16.0329
   XY=              0.0022   XZ=              0.0000   YZ=              0.0000

  Exact polarizability:  25.127   0.006  30.079   0.000   0.000  25.806
 Approx polarizability:  32.283   0.009  33.976  -0.000  -0.000  30.993

 ******    2 imaginary frequencies (negative Signs) ******

                      1                      2                      3
                     AU                     AU                     BG
 Frequencies --   -699.9970              -299.0638               196.8174
 Red. masses --      1.0078                 1.1607                 1.4441
 Frc consts  --      0.2910                 0.0612                 0.0330
 IR Inten    --      0.0016                98.9757                 0.0000

                      4                      5                      6
                     BU                     AG                     AG
 Frequencies --    768.3720              1041.1741              1159.6500
 Red. masses --      1.0401                 3.7782                 1.4155
 Frc consts  --      0.3618                 2.4132                 1.1215
 IR Inten    --      0.5682                 0.0000                 0.0000

                      7                      8                      9
                     BU                     AG                     BU
 Frequencies --   1425.4227              1470.3509              3158.0383
 Red. masses --      1.1152                 1.1698                 1.0449
 Frc consts  --      1.3350                 1.4900                 6.1400
 IR Inten    --      0.8371                 0.0000                14.7464

                     10                     11                     12
                     AG                     AG                     BU
 Frequencies --   3164.8220              3262.0314              3282.4604
 Red. masses --      1.0546                 1.1210                 1.1207
 Frc consts  --      6.2234                 7.0282                 7.1144
 IR Inten    --      0.0000                 0.0000                 8.8925

 - Thermochemistry -
 -------------------
 Temperature   298.150 Kelvin.  Pressure   1.00000 Atm.
 Atom     1 has atomic number  6 and mass  12.00000

 Molecular mass:    28.03130 amu.
 Principal axes and moments of inertia in atomic units:
                           1         2         3
     Eigenvalues --    12.44151  75.44612  87.88763
           X            0.00008   1.00000   0.00000
           Y            1.00000  -0.00008   0.00000
           Z            0.00000  -0.00000   1.00000
 This molecule is an asymmetric top.
 Rotational symmetry number  2.
 Rotational temperatures (Kelvin)      6.96168     1.14802     0.98551
 Rotational constants (GHZ):         145.05810    23.92093    20.53464
    2 imaginary frequencies ignored.
 Zero-point vibrational energy     113221.4 (Joules/Mol)
                                   27.06056 (Kcal/Mol)
 Warning -- explicit consideration of   1 degrees of freedom as
           vibrations may cause significant error
 Vibrational temperatures:    283.18  1105.51  1498.02  1668.48  2050.86
          (Kelvin)           2115.50  4543.71  4553.47  4693.33  4722.72

 Zero-point correction=                           0.043124 (Hartree/Particle)
 Thermal correction to Energy=                    0.046673
 Thermal correction to Enthalpy=                  0.047618
 Thermal correction to Gibbs Free Energy=         0.019899
 Sum of electronic and zero-point Energies=            -78.445573
 Sum of electronic and thermal Energies=               -78.442023
 Sum of electronic and thermal Enthalpies=             -78.441079
 Sum of electronic and thermal Free Energies=          -78.468797

                     E (Thermal)             CV                S
                      KCal/Mol        Cal/Mol-Kelvin    Cal/Mol-Kelvin
 Total                   29.288              9.258             58.338
 Electronic               0.000              0.000              2.183
 Translational            0.889              2.981             35.927
 Rotational               0.889              2.981             17.674
 Vibrational             27.511              3.296              2.555
 Vibration     1          0.636              1.844              2.163

 Optimization completed.
    -- Stationary point found.
 Normal termination of Gaussian 09 at Mon Jun 20 11:05:11 2016.
