 Gaussian 09, Revision E.01,
 Gaussian 09:  EM64L-G09RevE.01 30-Nov-2015

 ---------------------------------------------
 #p b3lyp/6-311++G(3df,2p) freq symmetry=Loose
 ---------------------------------------------

 ---------
 b3lyp opt
 ---------
 Symbolic Z-matrix:
 Charge =  0 Multiplicity = 3

                         Standard orientation:
 ---------------------------------------------------------------------
 Center     Atomic      Atomic             Coordinates (Angstroms)
 Number     Number       Type             X           Y           Z
 ---------------------------------------------------------------------
      1          6           0        0.000000    0.000000   -1.880711
      2          1           0       -0.000000    1.018581   -2.281249
      3          1           0       -0.882117   -0.509290   -2.281249
      4          1           0        0.882117   -0.509290   -2.281249
      5          6           0        0.000000    0.000000   -0.434951
      6          6           0        0.000000    0.000000    0.831117
      7          6           0        0.000000    0.000000    2.098542
      8          1           0        0.000000    0.000000    3.159771
 ---------------------------------------------------------------------

 SCF Done:  E(UB3LYP) =  -154.720972541     A.U. after   13 cycles

 The electronic state is 3-A1.
 Alpha  occ. eigenvalues --  -10.20328 -10.20097 -10.19446 -10.18392  -0.81372
 Alpha  occ. eigenvalues --   -0.75829  -0.67399  -0.53176  -0.47998  -0.44940
 Alpha  occ. eigenvalues --   -0.44940  -0.34148  -0.34148  -0.20557  -0.20557
 Alpha virt. eigenvalues --   -0.01095   0.00820   0.03031   0.03031   0.04374
 Alpha virt. eigenvalues --    0.05560   0.05560   0.07748   0.08952   0.08952
 Alpha virt. eigenvalues --    0.10394   0.10394   0.10837   0.11276   0.13072

  Beta  occ. eigenvalues --  -10.20218 -10.19042 -10.18556 -10.17663  -0.79063
  Beta  occ. eigenvalues --   -0.74474  -0.63825  -0.51576  -0.46835  -0.43700
  Beta  occ. eigenvalues --   -0.43700  -0.30909  -0.30909
  Beta virt. eigenvalues --   -0.08132  -0.08132  -0.01009   0.01004   0.03176
  Beta virt. eigenvalues --    0.03176   0.04461   0.05901   0.05901   0.07970
  Beta virt. eigenvalues --    0.09101   0.09101   0.11100   0.11744   0.12530

 Mulliken charges and spin densities:
               1          2
     1  C   -0.527357  -0.074121
     2  H    0.153059   0.039650
     3  H    0.153059   0.039650
     4  H    0.153059   0.039650
     5  C    0.070037   1.070370
     6  C   -0.479954  -0.264869
     7  C    0.158950   1.185927
     8  H    0.319149  -0.036259
 Sum of Mulliken charges =  -0.00000   2.00000

 Dipole moment (field-independent basis, Debye):
    X=             -0.0000    Y=              0.0000    Z=             -1.1729  Tot=              1.1729
 Quadrupole moment (field-independent basis, Debye-Ang):
   XX=            -25.4825   YY=            -25.4825   ZZ=            -17.4696
   XY=             -0.0000   XZ=             -0.0000   YZ=             -0.0000

  Exact polarizability:  34.904  -0.000  34.905  -0.000  -0.000  90.807
 Approx polarizability:  47.701  -0.000  47.701  -0.000  -0.000 140.002

 ******    2 imaginary frequencies (negative Signs) ******

                      1                      2                      3
                      E                      E                      E
 Frequencies --   -185.5048              -185.5048                93.9460
 Red. masses --      1.3814                 1.3814                 3.2883
 Frc consts  --      0.0280                 0.0280                 0.0171
 IR Inten    --     49.1945                49.1945                 9.4578

                      4                      5                      6
                      E                      E                      E
 Frequencies --     93.9680               402.6976               402.7018
 Red. masses --      3.2882                 4.6301                 4.6301
 Frc consts  --      0.0171                 0.4424                 0.4424
 IR Inten    --      9.4577                 2.8276                 2.8279

                      7                      8                      9
                     A1                      E                      E
 Frequencies --    786.8084              1017.2963              1017.2990
 Red. masses --      4.5336                 1.3157                 1.3157
 Frc consts  --      1.6536                 0.8022                 0.8022
 IR Inten    --      0.0887                 1.2185                 1.2189

                     10                     11                     12
                     A1                      E                      E
 Frequencies --   1405.0778              1462.3979              1462.3981
 Red. masses --      1.1986                 1.0406                 1.0406
 Frc consts  --      1.3942                 1.3112                 1.3112
 IR Inten    --      5.1595                 7.5787                 7.5800

                     13                     14                     15
                     A1                     A1                     A1
 Frequencies --   1487.5165              1822.2314              2983.6207
 Red. masses --      7.1883                10.4185                 1.0324
 Frc consts  --      9.3713                20.3828                 5.4147
 IR Inten    --      0.9840                 1.0748                35.1314

                     16                     17                     18
                      E                      E                     A1
 Frequencies --   3032.3521              3032.3525              3444.4247
 Red. masses --      1.0996                 1.0996                 1.1140
 Frc consts  --      5.9575                 5.9575                 7.7870
 IR Inten    --      8.8576                 8.8548                70.3301

 - Thermochemistry -
 -------------------
 Temperature   298.150 Kelvin.  Pressure   1.00000 Atm.
 Atom     1 has atomic number  6 and mass  12.00000

 Molecular mass:    52.03130 amu.
 Principal axes and moments of inertia in atomic units:
                           1         2         3
     Eigenvalues --    11.20199 474.80552 474.80552
           X            0.00000   0.85749  -0.51450
           Y            0.00000   0.51450   0.85749
           Z            1.00000  -0.00000  -0.00000
 This molecule is a prolate symmetric top.
 Rotational symmetry number  3.
 Rotational temperatures (Kelvin)      7.73200     0.18242     0.18242
 Rotational constants (GHZ):         161.10896     3.80101     3.80101
    2 imaginary frequencies ignored.
 Zero-point vibrational energy     143235.4 (Joules/Mol)
                                   34.23408 (Kcal/Mol)
 Warning -- explicit consideration of   4 degrees of freedom as
           vibrations may cause significant error
 Vibrational temperatures:    135.17   135.20   579.39   579.40  1132.04
          (Kelvin)           1463.66  1463.66  2021.59  2104.06  2104.06
                             2140.20  2621.78  4292.76  4362.87  4362.87
                             4955.75

 Zero-point correction=                           0.054555 (Hartree/Particle)
 Thermal correction to Energy=                    0.059670
 Thermal correction to Enthalpy=                  0.060615
 Thermal correction to Gibbs Free Energy=         0.027483
 Sum of electronic and zero-point Energies=           -154.666417
 Sum of electronic and thermal Energies=              -154.661302
 Sum of electronic and thermal Enthalpies=            -154.660358
 Sum of electronic and thermal Free Energies=         -154.693490

                     E (Thermal)             CV                S
                      KCal/Mol        Cal/Mol-Kelvin    Cal/Mol-Kelvin
 Total                   37.444             14.564             69.732
 Electronic               0.000              0.000              2.183
 Translational            0.889              2.981             37.771
 Rotational               0.889              2.981             20.267
 Vibrational             35.666              8.603              9.511
 Vibration     1          0.603              1.954              3.576
 Vibration     2          0.603              1.954              3.576
 Vibration     3          0.768              1.464              0.953
 Vibration     4          0.768              1.464              0.953

 Optimization completed.
    -- Stationary point found.
 Normal termination of Gaussian 09 at Mon Jun 20 11:20:56 2016.
