 Gaussian 09, Revision E.01,
 Gaussian 09:  EM64L-G09RevE.01 30-Nov-2015

 ---------------------------------------------
 #p b3lyp/6-311++G(3df,2p) freq symmetry=Loose
 ---------------------------------------------

 ---------
 b3lyp opt
 ---------
 Symbolic Z-matrix:
 Charge =  0 Multiplicity = 3

                         Standard orientation:
 ---------------------------------------------------------------------
 Center     Atomic      Atomic             Coordinates (Angstroms)
 Number     Number       Type             X           Y           Z
 ---------------------------------------------------------------------
      1          6           0        0.000000    0.133020    0.000000
      2          6           0       -1.243186   -0.547317   -0.000000
      3          1           0       -2.182429   -0.016182   -0.000000
      4          1           0       -1.256785   -1.627357   -0.000000
      5          6           0       -0.000301    1.507354   -0.000000
      6          6           0        1.243234   -0.545853    0.000000
      7          1           0        1.258703   -1.625735    0.000000
      8          1           0        2.182030   -0.013949    0.000000
 ---------------------------------------------------------------------

 SCF Done:  E(UB3LYP) =  -154.643423365     A.U. after   13 cycles

 The electronic state is 3-A'.
 Alpha  occ. eigenvalues --  -10.25110 -10.21000 -10.20989 -10.20583  -0.85528
 Alpha  occ. eigenvalues --   -0.71594  -0.68172  -0.52840  -0.47536  -0.44595
 Alpha  occ. eigenvalues --   -0.41850  -0.38665  -0.31129  -0.24099  -0.22474
 Alpha virt. eigenvalues --   -0.12224  -0.00748   0.01500   0.01941   0.02169
 Alpha virt. eigenvalues --    0.04413   0.05538   0.07839   0.08355   0.08718
 Alpha virt. eigenvalues --    0.08735   0.09848   0.10019   0.11843   0.12840

  Beta  occ. eigenvalues --  -10.24053 -10.20954 -10.19835 -10.19826  -0.84100
  Beta  occ. eigenvalues --   -0.68543  -0.65438  -0.51875  -0.46810  -0.43375
  Beta  occ. eigenvalues --   -0.41118  -0.34379  -0.29680
  Beta virt. eigenvalues --   -0.10920  -0.10176  -0.08763  -0.00591   0.01589
  Beta virt. eigenvalues --    0.02202   0.02589   0.04418   0.05622   0.07954
  Beta virt. eigenvalues --    0.09017   0.09904   0.10028   0.10580   0.11990

 Mulliken charges and spin densities:
               1          2
     1  C    1.335891  -0.325261
     2  C   -0.716179   0.871828
     3  H    0.174901  -0.025347
     4  H    0.166167  -0.028156
     5  C   -0.585404   0.689257
     6  C   -0.716351   0.871132
     7  H    0.166208  -0.028124
     8  H    0.174768  -0.025329
 Sum of Mulliken charges =  -0.00000   2.00000

 Dipole moment (field-independent basis, Debye):
    X=              0.0001    Y=             -2.3909    Z=             -0.0000  Tot=              2.3909
 Quadrupole moment (field-independent basis, Debye-Ang):
   XX=            -21.2276   YY=            -28.5875   ZZ=            -27.7668
   XY=              0.0003   XZ=             -0.0000   YZ=              0.0000

  Exact polarizability:  56.948  -0.001  55.609  -0.000   0.000  36.203
 Approx polarizability:  79.512  -0.010  79.551   0.000  -0.000  49.119

 ******    1 imaginary frequencies (negative Signs) ******

                      1                      2                      3
                     A"                     A'                     A"
 Frequencies --   -230.1599               254.1871               341.8024
 Red. masses --      1.0116                 5.6925                 1.1871
 Frc consts  --      0.0316                 0.2167                 0.0817
 IR Inten    --      0.0000                19.2330                 0.6990

                      4                      5                      6
                     A'                     A"                     A"
 Frequencies --    376.2179               471.8378               649.9793
 Red. masses --      2.2201                 2.1149                 1.3108
 Frc consts  --      0.1851                 0.2774                 0.3263
 IR Inten    --      0.0081                10.3907                 0.0022

                      7                      8                      9
                     A"                     A'                     A'
 Frequencies --    694.8589               937.3831               966.2063
 Red. masses --      1.8165                 3.6791                 1.2191
 Frc consts  --      0.5168                 1.9047                 0.6705
 IR Inten    --     76.2143                 0.0259                 0.1912

                     10                     11                     12
                     A'                     A'                     A'
 Frequencies --    986.6735              1255.1241              1387.2926
 Red. masses --      1.9421                 5.3447                 4.8256
 Frc consts  --      1.1139                 4.9607                 5.4719
 IR Inten    --      3.3358                 0.0294                14.3207

                     13                     14                     15
                     A'                     A'                     A'
 Frequencies --   1457.6079              1483.5144              3149.6038
 Red. masses --      1.1790                 1.1634                 1.0510
 Frc consts  --      1.4758                 1.5085                 6.1427
 IR Inten    --      4.5349                 3.2317                 0.4775

                     16                     17                     18
                     A'                     A'                     A'
 Frequencies --   3151.2080              3255.7555              3256.5027
 Red. masses --      1.0504                 1.1196                 1.1189
 Frc consts  --      6.1454                 6.9921                 6.9911
 IR Inten    --      1.5109                 0.2149                 0.6257

 - Thermochemistry -
 -------------------
 Temperature   298.150 Kelvin.  Pressure   1.00000 Atm.
 Atom     1 has atomic number  6 and mass  12.00000

 Molecular mass:    52.03130 amu.
 Principal axes and moments of inertia in atomic units:
                           1         2         3
     Eigenvalues --   142.04648 178.12873 320.17521
           X            1.00000  -0.00198   0.00000
           Y            0.00198   1.00000   0.00000
           Z           -0.00000   0.00000   1.00000
 This molecule is an asymmetric top.
 Rotational symmetry number  1.
 Rotational temperatures (Kelvin)      0.60976     0.48624     0.27052
 Rotational constants (GHZ):          12.70529    10.13167     5.63673
    1 imaginary frequencies ignored.
 Zero-point vibrational energy     144005.0 (Joules/Mol)
                                   34.41802 (Kcal/Mol)
 Warning -- explicit consideration of   4 degrees of freedom as
           vibrations may cause significant error
 Vibrational temperatures:    365.72   491.78   541.29   678.87   935.17
          (Kelvin)            999.75  1348.68  1390.15  1419.60  1805.84
                             1996.00  2097.17  2134.44  4531.57  4533.88
                             4684.30  4685.38

 Zero-point correction=                           0.054849 (Hartree/Particle)
 Thermal correction to Energy=                    0.059520
 Thermal correction to Enthalpy=                  0.060465
 Thermal correction to Gibbs Free Energy=         0.027518
 Sum of electronic and zero-point Energies=           -154.588575
 Sum of electronic and thermal Energies=              -154.583903
 Sum of electronic and thermal Enthalpies=            -154.582959
 Sum of electronic and thermal Free Energies=         -154.615906

                     E (Thermal)             CV                S
                      KCal/Mol        Cal/Mol-Kelvin    Cal/Mol-Kelvin
 Total                   37.350             15.617             69.343
 Electronic               0.000              0.000              2.183
 Translational            0.889              2.981             37.771
 Rotational               0.889              2.981             23.609
 Vibrational             35.572              9.655              5.780
 Vibration     1          0.665              1.756              1.701
 Vibration     2          0.721              1.592              1.204
 Vibration     3          0.747              1.521              1.054
 Vibration     4          0.829              1.313              0.732

 Optimization completed.
    -- Stationary point found.
 Normal termination of Gaussian 09 at Mon Jun 20 11:21:11 2016.
