 Gaussian 09, Revision E.01,
 Gaussian 09:  EM64L-G09RevE.01 30-Nov-2015

 ---------------------------------------------
 #p b3lyp/6-311++G(3df,2p) freq symmetry=Loose
 ---------------------------------------------

 ---------
 b3lyp opt
 ---------
 Symbolic Z-matrix:
 Charge =  0 Multiplicity = 1

                         Standard orientation:
 ---------------------------------------------------------------------
 Center     Atomic      Atomic             Coordinates (Angstroms)
 Number     Number       Type             X           Y           Z
 ---------------------------------------------------------------------
      1          6           0        1.053024   -0.561288    0.000000
      2          1           0        0.821067   -1.630913    0.000000
      3          6           0       -2.431074    0.689553   -0.000000
      4          6           0        2.343647    0.014269    0.000000
      5          1           0        3.107394   -0.780619    0.000000
      6          6           0        0.000000    0.313650   -0.000000
      7          1           0        0.229415    1.371871    0.000000
      8          6           0       -1.384394   -0.090408   -0.000000
      9          1           0       -1.645092   -1.154999   -0.000000
 ---------------------------------------------------------------------

 SCF Done:  E(RB3LYP) =  -192.705892827     A.U. after   16 cycles

 The electronic state is 1-A'.
 Alpha  occ. eigenvalues --  -10.28161 -10.26025 -10.22286 -10.20407 -10.19184
 Alpha  occ. eigenvalues --   -0.87541  -0.80383  -0.68902  -0.58951  -0.56101
 Alpha  occ. eigenvalues --   -0.50677  -0.42886  -0.40151  -0.39228  -0.33654
 Alpha  occ. eigenvalues --   -0.30678  -0.21880
 Alpha virt. eigenvalues --   -0.14402  -0.14022  -0.01521  -0.01243   0.00904
 Alpha virt. eigenvalues --    0.01248   0.01321   0.03889   0.04420   0.05763
 Alpha virt. eigenvalues --    0.06964   0.08576   0.08900   0.09320   0.10502

 Mulliken charges:
               1
     1  C    0.100355
     2  H    0.113292
     3  C   -0.505253
     4  C   -0.748132
     5  H    0.173097
     6  C    0.185939
     7  H    0.197963
     8  C    0.329552
     9  H    0.153187
 Sum of Mulliken charges =  -0.00000

 Dipole moment (field-independent basis, Debye):
    X=             -1.5038    Y=             -2.6037    Z=             -0.0000  Tot=              3.0068
 Quadrupole moment (field-independent basis, Debye-Ang):
   XX=            -41.1988   YY=            -29.7839   ZZ=            -32.1736
   XY=             -0.4490   XZ=             -0.0000   YZ=              0.0000

  Exact polarizability: 133.416  -9.854  59.337   0.000   0.000  42.290
 Approx polarizability: 261.786 -30.480  92.035   0.000  -0.000  63.489

 ******    1 imaginary frequencies (negative Signs) ******

                      1                      2                      3
                     A"                     A'                     A"
 Frequencies --   -199.3584               144.7445               200.8536
 Red. masses --      1.4315                 7.3054                 4.1063
 Frc consts  --      0.0335                 0.0902                 0.0976
 IR Inten    --     17.1413                19.6043                 8.6951

                      4                      5                      6
                     A'                     A"                     A'
 Frequencies --    322.9322               400.7799               505.5643
 Red. masses --      3.2725                 1.9344                 4.5808
 Frc consts  --      0.2011                 0.1831                 0.6898
 IR Inten    --      6.3949                33.1175                31.3794

                      7                      8                      9
                     A"                     A'                     A"
 Frequencies --    735.7063               900.9703               913.5979
 Red. masses --      1.4438                 1.5897                 1.7490
 Frc consts  --      0.4604                 0.7603                 0.8601
 IR Inten    --     34.2340                75.7444                 8.6709

                     10                     11                     12
                     A"                     A'                     A'
 Frequencies --   1001.6639              1032.2412              1127.7522
 Red. masses --      1.1763                 1.1416                 2.3061
 Frc consts  --      0.6954                 0.7167                 1.7281
 IR Inten    --     27.9066                48.6458                 9.1110

                     13                     14                     15
                     A'                     A'                     A'
 Frequencies --   1185.7143              1295.4713              1328.2238
 Red. masses --      3.5135                 1.3034                 1.6519
 Frc consts  --      2.9104                 1.2888                 1.7170
 IR Inten    --     29.3157                16.9197                 8.3358

                     16                     17                     18
                     A'                     A'                     A'
 Frequencies --   1546.5785              1701.1506              2964.6744
 Red. masses --      3.7893                 8.9660                 1.0810
 Frc consts  --      5.3402                15.2875                 5.5978
 IR Inten    --    157.2188               271.0411                94.2290

                     19                     20                     21
                     A'                     A'                     A'
 Frequencies --   3021.4134              3048.8703              3183.9446
 Red. masses --      1.0893                 1.0823                 1.0895
 Frc consts  --      5.8587                 5.9275                 6.5073
 IR Inten    --     62.1670                29.8441                 0.6554

 - Thermochemistry -
 -------------------
 Temperature   298.150 Kelvin.  Pressure   1.00000 Atm.
 Atom     1 has atomic number  6 and mass  12.00000

 Molecular mass:    64.03130 amu.
 Principal axes and moments of inertia in atomic units:
                           1         2         3
     Eigenvalues --    46.73269 679.84410 726.57680
           X            0.98825   0.15287   0.00000
           Y           -0.15287   0.98825   0.00000
           Z           -0.00000   0.00000   1.00000
 This molecule is an asymmetric top.
 Rotational symmetry number  1.
 Rotational temperatures (Kelvin)      1.85339     0.12740     0.11921
 Rotational constants (GHZ):          38.61839     2.65464     2.48390
    1 imaginary frequencies ignored.
 Zero-point vibrational energy     158881.1 (Joules/Mol)
                                   37.97350 (Kcal/Mol)
 Warning -- explicit consideration of   5 degrees of freedom as
           vibrations may cause significant error
 Vibrational temperatures:    208.25   288.98   464.63   576.63   727.39
          (Kelvin)           1058.52  1296.29  1314.46  1441.17  1485.16
                             1622.58  1705.98  1863.89  1911.02  2225.18
                             2447.57  4265.50  4347.13  4386.64  4580.98

 Zero-point correction=                           0.060515 (Hartree/Particle)
 Thermal correction to Energy=                    0.065821
 Thermal correction to Enthalpy=                  0.066765
 Thermal correction to Gibbs Free Energy=         0.032707
 Sum of electronic and zero-point Energies=           -192.645378
 Sum of electronic and thermal Energies=              -192.640072
 Sum of electronic and thermal Enthalpies=            -192.639128
 Sum of electronic and thermal Free Energies=         -192.673186

                     E (Thermal)             CV                S
                      KCal/Mol        Cal/Mol-Kelvin    Cal/Mol-Kelvin
 Total                   41.303             17.363             71.682
 Electronic               0.000              0.000              0.000
 Translational            0.889              2.981             38.389
 Rotational               0.889              2.981             24.649
 Vibrational             39.526             11.402              8.644
 Vibration     1          0.616              1.908              2.740
 Vibration     2          0.638              1.839              2.125
 Vibration     3          0.708              1.630              1.295
 Vibration     4          0.767              1.468              0.960
 Vibration     5          0.861              1.238              0.644

 Optimization completed.
    -- Stationary point found.
 Normal termination of Gaussian 09 at Mon Jun 20 11:22:21 2016.
