 Gaussian 09, Revision E.01,
 Gaussian 09:  EM64L-G09RevE.01 30-Nov-2015

 ---------------------------------------------
 #p b3lyp/6-311++G(3df,2p) freq symmetry=Loose
 ---------------------------------------------

 ---------
 b3lyp opt
 ---------
 Symbolic Z-matrix:
 Charge =  2 Multiplicity = 1

                         Standard orientation:
 ---------------------------------------------------------------------
 Center     Atomic      Atomic             Coordinates (Angstroms)
 Number     Number       Type             X           Y           Z
 ---------------------------------------------------------------------
      1          6           0        0.000135   -1.476942    0.000000
      2          1           0        0.000293   -2.561343    0.000000
      3          6           0        0.000000    0.642228    0.000000
      4          6           0       -0.996036   -0.498751    0.000000
      5          1           0       -2.087647   -0.468778    0.000000
      6          6           0        0.996142   -0.498552    0.000000
      7          1           0        2.087779   -0.468676    0.000000
      8          6           0       -0.000232    1.914333    0.000000
      9          1           0       -0.000483    3.004899    0.000000
 ---------------------------------------------------------------------

 SCF Done:  E(RB3LYP) =  -191.977459079     A.U. after   12 cycles

 The electronic state is 1-A'.
 Alpha  occ. eigenvalues --  -10.75389 -10.74644 -10.74642 -10.70267 -10.67428
 Alpha  occ. eigenvalues --   -1.40035  -1.25262  -1.13452  -1.07351  -0.99763
 Alpha  occ. eigenvalues --   -0.99426  -0.91489  -0.87348  -0.86998  -0.84892
 Alpha  occ. eigenvalues --   -0.74558
 Alpha virt. eigenvalues --   -0.60780  -0.59425  -0.49987  -0.36258  -0.32522
 Alpha virt. eigenvalues --   -0.30961  -0.29735  -0.29137  -0.28560  -0.26247
 Alpha virt. eigenvalues --   -0.25273  -0.24841  -0.22894  -0.20120  -0.19956

 Mulliken charges:
               1
     1  C   -0.275056
     2  H    0.356511
     3  C   -0.358208
     4  C    0.374135
     5  H    0.362350
     6  C    0.374345
     7  H    0.362328
     8  C    0.344169
     9  H    0.459426
 Sum of Mulliken charges =   2.00000

 Dipole moment (field-independent basis, Debye):
    X=             -0.0003    Y=              1.9113    Z=              0.0000  Tot=              1.9113
 Quadrupole moment (field-independent basis, Debye-Ang):
   XX=            -10.9041   YY=              5.0167   ZZ=            -25.7235
   XY=             -0.0034   XZ=              0.0000   YZ=              0.0000

  Exact polarizability:  42.323  -0.010  63.778   0.000  -0.005  24.532
 Approx polarizability:  78.110  -0.003 117.384  -0.000  -0.000  36.854

 ******    1 imaginary frequencies (negative Signs) ******

                      1                      2                      3
                     A"                     A'                     A"
 Frequencies --   -200.2863               254.5942               362.0363
 Red. masses --      1.9134                 2.5261                 3.0423
 Frc consts  --      0.0452                 0.0965                 0.2349
 IR Inten    --      5.1772                13.1138                40.9211

                      4                      5                      6
                     A"                     A'                     A'
 Frequencies --    591.3666               698.8612               755.3211
 Red. masses --      1.2434                 6.9114                 3.5314
 Frc consts  --      0.2562                 1.9888                 1.1870
 IR Inten    --     70.8524                 4.4010                23.5664

                      7                      8                      9
                     A"                     A'                     A"
 Frequencies --    849.8868               913.9944              1021.0812
 Red. masses --      1.5257                 2.7157                 1.6024
 Frc consts  --      0.6493                 1.3366                 0.9843
 IR Inten    --     21.8088                 0.0048                 2.4327

                     10                     11                     12
                     A"                     A'                     A'
 Frequencies --   1048.7775              1054.5337              1073.1999
 Red. masses --      1.3382                 1.1952                 1.9352
 Frc consts  --      0.8672                 0.7831                 1.3132
 IR Inten    --      0.0000                 3.1417                 0.0622

                     13                     14                     15
                     A'                     A'                     A'
 Frequencies --   1148.4987              1227.0863              1397.5438
 Red. masses --      1.6373                 1.3025                 3.5468
 Frc consts  --      1.2725                 1.1555                 4.0815
 IR Inten    --      0.9064                 0.3472               221.1244

                     16                     17                     18
                     A'                     A'                     A'
 Frequencies --   1418.6471              1748.3321              3127.6562
 Red. masses --      3.6847                 6.1120                 1.1005
 Frc consts  --      4.3692                11.0074                 6.3425
 IR Inten    --      1.1577               168.5769                 0.4011

                     19                     20                     21
                     A'                     A'                     A'
 Frequencies --   3136.1136              3180.7870              3207.2752
 Red. masses --      1.1051                 1.1363                 1.1141
 Frc consts  --      6.4036                 6.7733                 6.7521
 IR Inten    --    187.6554               361.4583               116.9361

 - Thermochemistry -
 -------------------
 Temperature   298.150 Kelvin.  Pressure   1.00000 Atm.
 Atom     1 has atomic number  6 and mass  12.00000

 Molecular mass:    64.03130 amu.
 Principal axes and moments of inertia in atomic units:
                           1         2         3
     Eigenvalues --   116.40937 347.18074 463.59011
           X           -0.00012   1.00000   0.00000
           Y            1.00000   0.00012   0.00000
           Z           -0.00000   0.00000   1.00000
 This molecule is an asymmetric top.
 Rotational symmetry number  1.
 Rotational temperatures (Kelvin)      0.74405     0.24948     0.18683
 Rotational constants (GHZ):          15.50340     5.19828     3.89297
    1 imaginary frequencies ignored.
 Zero-point vibrational energy     168766.7 (Joules/Mol)
                                   40.33621 (Kcal/Mol)
 Warning -- explicit consideration of   3 degrees of freedom as
           vibrations may cause significant error
 Vibrational temperatures:    366.30   520.89   850.84  1005.50  1086.74
          (Kelvin)           1222.80  1315.03  1469.11  1508.96  1517.24
                             1544.09  1652.43  1765.50  2010.75  2041.11
                             2515.46  4499.99  4512.16  4576.44  4614.55

 Zero-point correction=                           0.064280 (Hartree/Particle)
 Thermal correction to Energy=                    0.068601
 Thermal correction to Enthalpy=                  0.069545
 Thermal correction to Gibbs Free Energy=         0.037522
 Sum of electronic and zero-point Energies=           -191.913179
 Sum of electronic and thermal Energies=              -191.908858
 Sum of electronic and thermal Enthalpies=            -191.907914
 Sum of electronic and thermal Free Energies=         -191.939937

                     E (Thermal)             CV                S
                      KCal/Mol        Cal/Mol-Kelvin    Cal/Mol-Kelvin
 Total                   43.048             14.901             67.399
 Electronic               0.000              0.000              0.000
 Translational            0.889              2.981             38.389
 Rotational               0.889              2.981             24.442
 Vibrational             41.270              8.940              4.568
 Vibration     1          0.665              1.755              1.699
 Vibration     2          0.736              1.550              1.113
 Vibration     3          0.949              1.050              0.465

 Optimization completed.
    -- Stationary point found.
 Normal termination of Gaussian 09 at Mon Jun 20 11:48:34 2016.
