 Gaussian 09, Revision E.01,
 Gaussian 09:  EM64L-G09RevE.01 30-Nov-2015

 ---------------------------------------------
 #p b3lyp/6-311++G(3df,2p) freq symmetry=Loose
 ---------------------------------------------

 ---------
 b3lyp opt
 ---------
 Symbolic Z-matrix:
 Charge =  2 Multiplicity = 1

                         Standard orientation:
 ---------------------------------------------------------------------
 Center     Atomic      Atomic             Coordinates (Angstroms)
 Number     Number       Type             X           Y           Z
 ---------------------------------------------------------------------
      1          6           0       -0.003467    1.490345    0.000000
      2          6           0       -1.076965    2.350955    0.000000
      3          6           0        0.855097   -2.125234    0.000000
      4          1           0        1.911439   -1.868296    0.000000
      5          1           0        0.568968   -3.175378    0.000000
      6          6           0       -0.141847   -1.150199    0.000000
      7          1           0       -1.217645   -1.440810    0.000000
      8          6           0       -0.000000    0.165108    0.000000
      9          1           0        0.940330    2.098635    0.000000
 ---------------------------------------------------------------------

 SCF Done:  E(RB3LYP) =  -191.896748473     A.U. after   15 cycles

 The electronic state is 1-A'.
 Alpha  occ. eigenvalues --  -10.79732 -10.77773 -10.69431 -10.68104 -10.67590
 Alpha  occ. eigenvalues --   -1.33818  -1.27251  -1.15891  -1.09485  -0.96960
 Alpha  occ. eigenvalues --   -0.96459  -0.91010  -0.85353  -0.84261  -0.76633
 Alpha  occ. eigenvalues --   -0.74497
 Alpha virt. eigenvalues --   -0.60671  -0.59939  -0.56654  -0.47127  -0.35364
 Alpha virt. eigenvalues --   -0.33599  -0.30167  -0.27626  -0.27241  -0.25110
 Alpha virt. eigenvalues --   -0.24911  -0.22592  -0.21591  -0.21352  -0.20548

 Mulliken charges:
               1
     1  C    0.126885
     2  C    0.140337
     3  C   -0.217071
     4  H    0.264215
     5  H    0.293375
     6  C    0.408874
     7  H    0.251091
     8  C    0.468189
     9  H    0.264106
 Sum of Mulliken charges =   2.00000

 Dipole moment (field-independent basis, Debye):
    X=              1.4438    Y=             -1.0724    Z=              0.0000  Tot=              1.7985
 Quadrupole moment (field-independent basis, Debye-Ang):
   XX=            -15.0229   YY=             13.0431   ZZ=            -26.3242
   XY=             -5.1227   XZ=              0.0000   YZ=              0.0000

  Exact polarizability:  46.450 -22.690 108.887   0.000  -0.000  27.822
 Approx polarizability:  91.010 -72.656 270.284  -0.000  -0.000  40.440

 ******    1 imaginary frequencies (negative Signs) ******

                      1                      2                      3
                     A"                     A'                     A"
 Frequencies --   -462.8482               137.8373               202.4626
 Red. masses --      1.1408                 3.6739                 3.7619
 Frc consts  --      0.1440                 0.0411                 0.0909
 IR Inten    --     28.8543                 0.6469                 9.4129

                      4                      5                      6
                     A'                     A"                     A"
 Frequencies --    272.8759               426.1959               621.4038
 Red. masses --      6.1956                 1.6354                 5.4790
 Frc consts  --      0.2718                 0.1750                 1.2465
 IR Inten    --     11.6020                 1.8872                15.6133

                      7                      8                      9
                     A'                     A"                     A'
 Frequencies --    653.3314               761.9173               832.1902
 Red. masses --      3.1469                 1.1688                 2.0492
 Frc consts  --      0.7914                 0.3998                 0.8361
 IR Inten    --     14.6394                 7.8693                 0.5033

                     10                     11                     12
                     A'                     A'                     A"
 Frequencies --    894.9515              1005.4849              1132.2777
 Red. masses --      1.6666                 1.3484                 1.3486
 Frc consts  --      0.7865                 0.8032                 1.0187
 IR Inten    --      3.3438                21.9485                 4.7989

                     13                     14                     15
                     A'                     A'                     A'
 Frequencies --   1197.8481              1297.7929              1476.3797
 Red. masses --      1.4349                 3.3721                 1.8239
 Frc consts  --      1.2131                 3.3463                 2.3423
 IR Inten    --     64.7642               487.8043                37.9492

                     16                     17                     18
                     A'                     A'                     A'
 Frequencies --   1517.6786              1833.4943              2799.3562
 Red. masses --      2.5633                11.0302                 1.0834
 Frc consts  --      3.4786                21.8471                 5.0019
 IR Inten    --     17.5296              1502.0460               586.5636

                     19                     20                     21
                     A'                     A'                     A'
 Frequencies --   2861.8386              3103.3074              3218.3463
 Red. masses --      1.0766                 1.0576                 1.1253
 Frc consts  --      5.1950                 6.0009                 6.8671
 IR Inten    --    169.6942                85.0980                68.7491

 - Thermochemistry -
 -------------------
 Temperature   298.150 Kelvin.  Pressure   1.00000 Atm.
 Atom     1 has atomic number  6 and mass  12.00000

 Molecular mass:    64.03130 amu.
 Principal axes and moments of inertia in atomic units:
                           1         2         3
     Eigenvalues --    48.03024 710.99160 759.02184
           X           -0.29176   0.95649   0.00000
           Y            0.95649   0.29176   0.00000
           Z           -0.00000   0.00000   1.00000
 This molecule is an asymmetric top.
 Rotational symmetry number  1.
 Rotational temperatures (Kelvin)      1.80332     0.12182     0.11411
 Rotational constants (GHZ):          37.57510     2.53834     2.37772
    1 imaginary frequencies ignored.
 Zero-point vibrational energy     156991.7 (Joules/Mol)
                                   37.52193 (Kcal/Mol)
 Warning -- explicit consideration of   4 degrees of freedom as
           vibrations may cause significant error
 Vibrational temperatures:    198.32   291.30   392.61   613.20   894.06
          (Kelvin)            940.00  1096.23  1197.33  1287.63  1446.67
                             1629.09  1723.43  1867.23  2124.18  2183.60
                             2637.99  4027.64  4117.54  4464.96  4630.48

 Zero-point correction=                           0.059795 (Hartree/Particle)
 Thermal correction to Energy=                    0.065183
 Thermal correction to Enthalpy=                  0.066127
 Thermal correction to Gibbs Free Energy=         0.031853
 Sum of electronic and zero-point Energies=           -191.836953
 Sum of electronic and thermal Energies=              -191.831566
 Sum of electronic and thermal Enthalpies=            -191.830622
 Sum of electronic and thermal Free Energies=         -191.864896

                     E (Thermal)             CV                S
                      KCal/Mol        Cal/Mol-Kelvin    Cal/Mol-Kelvin
 Total                   40.903             17.735             72.136
 Electronic               0.000              0.000              0.000
 Translational            0.889              2.981             38.389
 Rotational               0.889              2.981             24.764
 Vibrational             39.125             11.773              8.982
 Vibration     1          0.614              1.916              2.834
 Vibration     2          0.639              1.836              2.111
 Vibration     3          0.676              1.723              1.578
 Vibration     4          0.788              1.413              0.871

 Optimization completed.
    -- Stationary point found.
 Normal termination of Gaussian 09 at Mon Jun 20 11:48:23 2016.
