 Gaussian 09, Revision E.01,
 Gaussian 09:  EM64L-G09RevE.01 30-Nov-2015

 ---------------------------------------------
 #p b3lyp/6-311++G(3df,2p) freq symmetry=Loose
 ---------------------------------------------

 ---------
 b3lyp opt
 ---------
 Symbolic Z-matrix:
 Charge =  2 Multiplicity = 3

                         Standard orientation:
 ---------------------------------------------------------------------
 Center     Atomic      Atomic             Coordinates (Angstroms)
 Number     Number       Type             X           Y           Z
 ---------------------------------------------------------------------
      1          6           0       -2.493010    0.375633    0.000000
      2          6           0        1.968967   -1.212184    0.000000
      3          6           0        1.307979   -0.033262    0.000000
      4          1           0        2.025463    0.232683    0.883972
      5          1           0        2.025463    0.232683   -0.883972
      6          6           0        0.000000    0.668774    0.000000
      7          1           0        0.031305    1.752887    0.000000
      8          6           0       -1.231282    0.015009    0.000000
      9          1           0       -1.398153   -1.102077    0.000000
 ---------------------------------------------------------------------

 SCF Done:  E(UB3LYP) =  -191.740694645     A.U. after   19 cycles

 The electronic state is 3-A".
 Alpha  occ. eigenvalues --  -10.81388 -10.75864 -10.69049 -10.68852 -10.67942
 Alpha  occ. eigenvalues --   -1.32841  -1.29741  -1.18360  -1.01988  -0.97494
 Alpha  occ. eigenvalues --   -0.92607  -0.91190  -0.87501  -0.85715  -0.82207
 Alpha  occ. eigenvalues --   -0.75115  -0.69251
 Alpha virt. eigenvalues --   -0.59653  -0.53722  -0.51738  -0.42304  -0.35524
 Alpha virt. eigenvalues --   -0.32411  -0.30663  -0.27483  -0.26059  -0.25324
 Alpha virt. eigenvalues --   -0.25109  -0.23508  -0.21029  -0.20477  -0.19291

  Beta  occ. eigenvalues --  -10.78436 -10.75746 -10.69111 -10.68003 -10.67788
  Beta  occ. eigenvalues --   -1.31837  -1.27998  -1.15234  -1.00369  -0.96717
  Beta  occ. eigenvalues --   -0.91849  -0.88960  -0.86579  -0.78250  -0.74899
  Beta virt. eigenvalues --   -0.65221  -0.56170  -0.55557  -0.52993  -0.49909
  Beta virt. eigenvalues --   -0.38244  -0.35393  -0.32316  -0.30266  -0.26928
  Beta virt. eigenvalues --   -0.25690  -0.25040  -0.24931  -0.23154  -0.20450

 Mulliken charges and spin densities:
               1          2
     1  C    0.142778   1.420973
     2  C    0.037375   0.063118
     3  C    0.230108  -0.017413
     4  H    0.304459   0.007822
     5  H    0.304459   0.007822
     6  C    0.121750   0.663151
     7  H    0.265085  -0.021219
     8  C    0.354846  -0.122597
     9  H    0.239140  -0.001656
 Sum of Mulliken charges =   2.00000   2.00000

 Dipole moment (field-independent basis, Debye):
    X=             -1.4070    Y=              0.7526    Z=              0.0000  Tot=              1.5957
 Quadrupole moment (field-independent basis, Debye-Ang):
   XX=             11.5395   YY=            -17.9212   ZZ=            -24.2165
   XY=             -1.5629   XZ=              0.0000   YZ=             -0.0000

  Exact polarizability:  72.264  -7.225  42.074  -0.000  -0.000  31.891
 Approx polarizability: 112.984 -12.783  72.988  -0.000  -0.000  47.750

 ******    1 imaginary frequencies (negative Signs) ******

                      1                      2                      3
                     A"                     A"                     A'
 Frequencies --    -50.6918               106.5162               155.9802
 Red. masses --      1.1192                 2.7229                 8.6556
 Frc consts  --      0.0017                 0.0182                 0.1241
 IR Inten    --     22.1667                 0.6101                23.7225

                      4                      5                      6
                     A"                     A'                     A'
 Frequencies --    246.8624               255.6229               394.7534
 Red. masses --      3.6709                 4.9937                 3.3712
 Frc consts  --      0.1318                 0.1923                 0.3095
 IR Inten    --      2.9152                 3.5493                38.3151

                      7                      8                      9
                     A"                     A"                     A'
 Frequencies --    617.3765               683.4775               765.4555
 Red. masses --      1.5251                 1.2930                 1.6920
 Frc consts  --      0.3425                 0.3559                 0.5841
 IR Inten    --     25.6433                16.6663                 9.9059

                     10                     11                     12
                     A'                     A"                     A'
 Frequencies --    803.5420               889.9078               992.3200
 Red. masses --      2.4043                 1.2563                 1.5438
 Frc consts  --      0.9147                 0.5862                 0.8957
 IR Inten    --      0.9488                 1.0395                16.3800

                     13                     14                     15
                     A'                     A'                     A'
 Frequencies --   1167.1420              1225.6986              1374.3714
 Red. masses --      2.5264                 1.0713                 1.5897
 Frc consts  --      2.0277                 0.9482                 1.7691
 IR Inten    --     13.9725                52.8314                 1.1475

                     16                     17                     18
                     A'                     A'                     A"
 Frequencies --   1434.4845              1597.9999              2488.6096
 Red. masses --      5.9411                 6.2145                 1.0767
 Frc consts  --      7.2029                 9.3500                 3.9287
 IR Inten    --     15.8029               127.4408               201.2114

                     19                     20                     21
                     A'                     A'                     A'
 Frequencies --   2505.2186              2768.3418              3168.6367
 Red. masses --      1.0584                 1.0759                 1.0901
 Frc consts  --      3.9137                 4.8580                 6.4484
 IR Inten    --    186.4626               170.8561                64.2417

 - Thermochemistry -
 -------------------
 Temperature   298.150 Kelvin.  Pressure   1.00000 Atm.
 Atom     1 has atomic number  6 and mass  12.00000

 Molecular mass:    64.03130 amu.
 Principal axes and moments of inertia in atomic units:
                           1         2         3
     Eigenvalues --    75.14754 647.01053 710.90892
           X            0.96940   0.24550   0.00000
           Y           -0.24550   0.96940   0.00000
           Z           -0.00000   0.00000   1.00000
 This molecule is an asymmetric top.
 Rotational symmetry number  1.
 Rotational temperatures (Kelvin)      1.15258     0.13387     0.12184
 Rotational constants (GHZ):          24.01597     2.78935     2.53864
    1 imaginary frequencies ignored.
 Zero-point vibrational energy     141412.5 (Joules/Mol)
                                   33.79839 (Kcal/Mol)
 Warning -- explicit consideration of   6 degrees of freedom as
           vibrations may cause significant error
 Vibrational temperatures:    153.25   224.42   355.18   367.78   567.96
          (Kelvin)            888.27   983.37  1101.32  1156.12  1280.38
                             1427.73  1679.25  1763.50  1977.41  2063.90
                             2299.16  3580.55  3604.45  3983.02  4558.96

 Zero-point correction=                           0.053861 (Hartree/Particle)
 Thermal correction to Energy=                    0.059916
 Thermal correction to Enthalpy=                  0.060860
 Thermal correction to Gibbs Free Energy=         0.024020
 Sum of electronic and zero-point Energies=           -191.686833
 Sum of electronic and thermal Energies=              -191.680779
 Sum of electronic and thermal Enthalpies=            -191.679835
 Sum of electronic and thermal Free Energies=         -191.716675

                     E (Thermal)             CV                S
                      KCal/Mol        Cal/Mol-Kelvin    Cal/Mol-Kelvin
 Total                   37.598             19.597             77.537
 Electronic               0.000              0.000              2.183
 Translational            0.889              2.981             38.389
 Rotational               0.889              2.981             25.050
 Vibrational             35.820             13.635             11.915
 Vibration     1          0.605              1.944              3.331
 Vibration     2          0.620              1.896              2.598
 Vibration     3          0.661              1.768              1.753
 Vibration     4          0.666              1.753              1.691
 Vibration     5          0.762              1.481              0.982
 Vibration     6          0.977              0.995              0.421

 Optimization completed.
    -- Stationary point found.
 Normal termination of Gaussian 09 at Mon Jun 20 11:51:39 2016.
