 Gaussian 09, Revision E.01,
 Gaussian 09:  EM64L-G09RevE.01 30-Nov-2015

 ---------------------------------------------
 #p b3lyp/6-311++G(3df,2p) freq symmetry=Loose
 ---------------------------------------------

 ---------
 b3lyp opt
 ---------
 Symbolic Z-matrix:
 Charge =  0 Multiplicity = 3

                         Standard orientation:
 ---------------------------------------------------------------------
 Center     Atomic      Atomic             Coordinates (Angstroms)
 Number     Number       Type             X           Y           Z
 ---------------------------------------------------------------------
      1          6           0       -0.007820    0.378045    0.583004
      2          6           0        1.253936    0.215702   -0.241540
      3          6           0       -1.252648    0.223522   -0.272867
      4          1           0       -0.018329   -0.340796    1.397905
      5          1           0       -0.003338    1.379564    1.022238
      6          1           0        1.432593    0.872910   -1.096831
      7          1           0       -1.355186    0.910889   -1.117346
      8          6           0        2.204171   -0.642093   -0.056033
      9          6           0       -2.206929   -0.645603   -0.046893
 ---------------------------------------------------------------------

 SCF Done:  E(UB3LYP) =  -192.610268797     A.U. after   26 cycles

 The electronic state is 3-A.
 Alpha  occ. eigenvalues --  -10.24627 -10.24598 -10.24085 -10.22784 -10.22481
 Alpha  occ. eigenvalues --   -0.86970  -0.81350  -0.72055  -0.57886  -0.54384
 Alpha  occ. eigenvalues --   -0.48860  -0.48424  -0.42343  -0.35499  -0.33643
 Alpha  occ. eigenvalues --   -0.32003  -0.31063  -0.20246
 Alpha virt. eigenvalues --   -0.15202  -0.03374  -0.01206  -0.00625   0.00476
 Alpha virt. eigenvalues --    0.01772   0.02307   0.05409   0.05884   0.06521
 Alpha virt. eigenvalues --    0.06755   0.06814   0.09272   0.09553   0.10771

  Beta  occ. eigenvalues --  -10.23873 -10.23325 -10.23213 -10.22594 -10.22328
  Beta  occ. eigenvalues --   -0.85679  -0.78864  -0.69927  -0.56732  -0.52369
  Beta  occ. eigenvalues --   -0.47918  -0.47548  -0.41708  -0.30634  -0.30006
  Beta  occ. eigenvalues --   -0.28395
  Beta virt. eigenvalues --   -0.23032  -0.10311  -0.08437  -0.01646  -0.00923
  Beta virt. eigenvalues --    0.00646   0.01263   0.02235   0.02552   0.05705
  Beta virt. eigenvalues --    0.06073   0.06675   0.07035   0.07401   0.09480

 Mulliken charges and spin densities:
               1          2
     1  C   -0.023275  -0.064975
     2  C    0.371255   0.076492
     3  C    0.378645   0.136506
     4  H    0.182092   0.009441
     5  H    0.142331   0.011111
     6  H    0.168062   0.040851
     7  H    0.171179   0.035678
     8  C   -0.698787   0.920153
     9  C   -0.691503   0.834742
 Sum of Mulliken charges =  -0.00000   2.00000

 Dipole moment (field-independent basis, Debye):
    X=              0.1656    Y=              2.6324    Z=             -0.6492  Tot=              2.7163
 Quadrupole moment (field-independent basis, Debye-Ang):
   XX=            -44.1401   YY=            -31.5700   ZZ=            -28.8896
   XY=             -0.4097   XZ=              0.0616   YZ=             -0.9859

  Exact polarizability: 185.247  -1.008  63.575   0.521  -5.647  51.218
 Approx polarizability:1073.601 -14.942  96.578   2.393 -10.352  74.642

 ******    2 imaginary frequencies (negative Signs) ******

                      1                      2                      3
                      A                      A                      A
 Frequencies --   -172.1674               -99.9581               195.3367
 Red. masses --      3.5996                 3.6605                 2.7842
 Frc consts  --      0.0629                 0.0215                 0.0626
 IR Inten    --     14.8399                12.3879                 7.6902

                      4                      5                      6
                      A                      A                      A
 Frequencies --    327.7141               337.8965               647.0836
 Red. masses --      5.9454                 3.6552                 1.4848
 Frc consts  --      0.3762                 0.2459                 0.3663
 IR Inten    --      1.6919                 4.8175                28.8317

                      7                      8                      9
                      A                      A                      A
 Frequencies --    703.9417               851.0613               896.9357
 Red. masses --      1.3825                 2.9877                 2.6492
 Frc consts  --      0.4036                 1.2750                 1.2557
 IR Inten    --     39.7275                71.4883                22.5981

                     10                     11                     12
                      A                      A                      A
 Frequencies --    918.2294              1032.1116              1134.4010
 Red. masses --      2.7174                 1.2203                 1.3937
 Frc consts  --      1.3499                 0.7659                 1.0567
 IR Inten    --     24.3405               173.2128                20.7087

                     13                     14                     15
                      A                      A                      A
 Frequencies --   1161.2848              1303.0646              1458.8874
 Red. masses --      1.2760                 1.1576                 3.5948
 Frc consts  --      1.0139                 1.1580                 4.5079
 IR Inten    --     93.2320                 0.7644                44.7311

                     16                     17                     18
                      A                      A                      A
 Frequencies --   1476.6499              1537.4358              3022.1454
 Red. masses --      1.0844                 5.8843                 1.0691
 Frc consts  --      1.3932                 8.1949                 5.7532
 IR Inten    --      8.8254                84.0554                 9.8804

                     19                     20                     21
                      A                      A                      A
 Frequencies --   3034.1085              3044.3866              3119.2286
 Red. masses --      1.0786                 1.0820                 1.0941
 Frc consts  --      5.8504                 5.9087                 6.2718
 IR Inten    --      3.0548                 8.0416                 1.8019

 - Thermochemistry -
 -------------------
 Temperature   298.150 Kelvin.  Pressure   1.00000 Atm.
 Atom     1 has atomic number  6 and mass  12.00000

 Molecular mass:    64.03130 amu.
 Principal axes and moments of inertia in atomic units:
                           1         2         3
     Eigenvalues --    98.44590 604.92511 624.58444
           X            1.00000   0.00002  -0.00059
           Y           -0.00014   0.98188  -0.18949
           Z            0.00058   0.18949   0.98188
 This molecule is an asymmetric top.
 Rotational symmetry number  1.
 Rotational temperatures (Kelvin)      0.87981     0.14318     0.13867
 Rotational constants (GHZ):          18.33232     2.98341     2.88951
    2 imaginary frequencies ignored.
 Zero-point vibrational energy     156722.2 (Joules/Mol)
                                   37.45750 (Kcal/Mol)
 Warning -- explicit consideration of   3 degrees of freedom as
           vibrations may cause significant error
 Vibrational temperatures:    281.05   471.51   486.16   931.01  1012.81
          (Kelvin)           1224.49  1290.49  1321.13  1484.98  1632.15
                             1670.83  1874.82  2099.01  2124.57  2212.02
                             4348.19  4365.40  4380.19  4487.87

 Zero-point correction=                           0.059692 (Hartree/Particle)
 Thermal correction to Energy=                    0.064372
 Thermal correction to Enthalpy=                  0.065316
 Thermal correction to Gibbs Free Energy=         0.031234
 Sum of electronic and zero-point Energies=           -192.550576
 Sum of electronic and thermal Energies=              -192.545897
 Sum of electronic and thermal Enthalpies=            -192.544953
 Sum of electronic and thermal Free Energies=         -192.579035

                     E (Thermal)             CV                S
                      KCal/Mol        Cal/Mol-Kelvin    Cal/Mol-Kelvin
 Total                   40.394             15.541             71.732
 Electronic               0.000              0.000              2.183
 Translational            0.889              2.981             38.389
 Rotational               0.889              2.981             25.123
 Vibrational             38.616              9.579              6.036
 Vibration     1          0.636              1.846              2.177
 Vibration     2          0.711              1.620              1.271
 Vibration     3          0.718              1.600              1.222

 Normal termination of Gaussian 09 at Mon Jun 20 11:39:53 2016.
