 Gaussian 09, Revision E.01,
 Gaussian 09:  EM64L-G09RevE.01 30-Nov-2015

 ---------------------------------------------
 #p b3lyp/6-311++G(3df,2p) freq symmetry=Loose
 ---------------------------------------------

 ---------
 b3lyp opt
 ---------
 Symbolic Z-matrix:
 Charge =  0 Multiplicity = 3

                         Standard orientation:
 ---------------------------------------------------------------------
 Center     Atomic      Atomic             Coordinates (Angstroms)
 Number     Number       Type             X           Y           Z
 ---------------------------------------------------------------------
      1          6           0       -2.410304    0.212036   -0.000511
      2          1           0       -3.000610   -0.163370   -0.841905
      3          1           0       -2.382376    1.305226   -0.037124
      4          1           0       -2.961348   -0.102487    0.891588
      5          6           0       -1.095594   -0.426280   -0.000937
      6          6           0        0.158801   -0.106217   -0.001266
      7          6           0        1.431463    0.038449   -0.000406
      8          6           0        2.729232   -0.020659    0.001036
      9          1           0        3.462746    0.776656   -0.000054
 ---------------------------------------------------------------------

 SCF Done:  E(UB3LYP) =  -192.757136498     A.U. after   20 cycles

 The electronic state is 3-A.
 Alpha  occ. eigenvalues --  -10.23086 -10.21608 -10.21375 -10.21160 -10.20350
 Alpha  occ. eigenvalues --   -0.83881  -0.79402  -0.72776  -0.64571  -0.50396
 Alpha  occ. eigenvalues --   -0.48167  -0.45423  -0.45218  -0.37594  -0.36685
 Alpha  occ. eigenvalues --   -0.28952  -0.27645  -0.17477
 Alpha virt. eigenvalues --   -0.07780  -0.01390   0.00761   0.02474   0.02714
 Alpha virt. eigenvalues --    0.03885   0.04165   0.06460   0.06789   0.07787
 Alpha virt. eigenvalues --    0.07918   0.07970   0.08997   0.10258   0.11868

  Beta  occ. eigenvalues --  -10.21842 -10.21149 -10.20925 -10.20372 -10.20311
  Beta  occ. eigenvalues --   -0.81903  -0.77618  -0.70972  -0.62719  -0.48925
  Beta  occ. eigenvalues --   -0.47022  -0.44332  -0.44244  -0.34558  -0.34186
  Beta  occ. eigenvalues --   -0.24019
  Beta virt. eigenvalues --   -0.17822  -0.08227  -0.03202  -0.01136   0.00895
  Beta virt. eigenvalues --    0.02561   0.02733   0.04039   0.05397   0.06930
  Beta virt. eigenvalues --    0.07191   0.07955   0.08053   0.08400   0.09547

 Mulliken charges and spin densities:
               1          2
     1  C   -0.432423  -0.049270
     2  H    0.173207   0.022071
     3  H    0.129611   0.046580
     4  H    0.174926   0.024018
     5  C   -0.266924   0.797545
     6  C    0.183919   0.245634
     7  C    0.368589   0.206910
     8  C   -0.534181   0.681121
     9  H    0.203277   0.025392
 Sum of Mulliken charges =  -0.00000   2.00000

 Dipole moment (field-independent basis, Debye):
    X=             -2.0794    Y=              1.7010    Z=              0.0078  Tot=              2.6865
 Quadrupole moment (field-independent basis, Debye-Ang):
   XX=            -25.3585   YY=            -32.7684   ZZ=            -29.7102
   XY=              2.8770   XZ=             -0.0494   YZ=              0.0224

  Exact polarizability: 152.960   3.359  48.862  -0.008  -0.076  40.069
 Approx polarizability: 289.057  16.607  67.744  -0.032  -0.012  59.662

 ******    1 imaginary frequencies (negative Signs) ******

                      1                      2                      3
                      A                      A                      A
 Frequencies --    -53.2404               135.7319               197.6666
 Red. masses --      1.2702                 3.6959                10.3440
 Frc consts  --      0.0021                 0.0401                 0.2381
 IR Inten    --     13.4736                 6.9430                 4.2382

                      4                      5                      6
                      A                      A                      A
 Frequencies --    312.0235               382.7433               479.4246
 Red. masses --      3.8811                10.1315                 2.6823
 Frc consts  --      0.2226                 0.8745                 0.3632
 IR Inten    --     64.4462                23.5748                14.6500

                      7                      8                      9
                      A                      A                      A
 Frequencies --    642.8680               693.9126               767.8399
 Red. masses --      1.7469                 1.7408                 2.3345
 Frc consts  --      0.4254                 0.4939                 0.8110
 IR Inten    --     23.7538               212.5802                93.3840

                     10                     11                     12
                      A                      A                      A
 Frequencies --   1003.8085              1041.6424              1157.4535
 Red. masses --      1.4566                 1.4187                 6.4818
 Frc consts  --      0.8648                 0.9070                 5.1162
 IR Inten    --      0.0602                 5.0955                24.5192

                     13                     14                     15
                      A                      A                      A
 Frequencies --   1373.5328              1453.7405              1458.8965
 Red. masses --      1.1668                 1.0574                 1.0774
 Frc consts  --      1.2970                 1.3166                 1.3510
 IR Inten    --      7.5875                18.6698                37.7519

                     16                     17                     18
                      A                      A                      A
 Frequencies --   1607.7251              2127.5467              2982.7199
 Red. masses --      7.9581                11.0279                 1.0349
 Frc consts  --     12.1194                29.4105                 5.4245
 IR Inten    --     13.7013                27.1770                29.3158

                     19                     20                     21
                      A                      A                      A
 Frequencies --   3043.8122              3049.9990              3161.7543
 Red. masses --      1.0954                 1.1009                 1.0982
 Frc consts  --      5.9794                 6.0340                 6.4681
 IR Inten    --      5.2164                32.4728                 5.4954

 - Thermochemistry -
 -------------------
 Temperature   298.150 Kelvin.  Pressure   1.00000 Atm.
 Atom     1 has atomic number  6 and mass  12.00000

 Molecular mass:    64.03130 amu.
 Principal axes and moments of inertia in atomic units:
                           1         2         3
     Eigenvalues --    23.94995 840.13797 853.25380
           X            1.00000   0.00103  -0.00011
           Y           -0.00103   1.00000  -0.00054
           Z            0.00011   0.00054   1.00000
 This molecule is an asymmetric top.
 Rotational symmetry number  1.
 Rotational temperatures (Kelvin)      3.61645     0.10309     0.10151
 Rotational constants (GHZ):          75.35469     2.14815     2.11513
    1 imaginary frequencies ignored.
 Zero-point vibrational energy     161943.5 (Joules/Mol)
                                   38.70543 (Kcal/Mol)
 Warning -- explicit consideration of   5 degrees of freedom as
           vibrations may cause significant error
 Vibrational temperatures:    195.29   284.40   448.93   550.68   689.78
          (Kelvin)            924.94   998.38  1104.75  1444.25  1498.69
                             1665.32  1976.20  2091.61  2099.02  2313.15
                             3061.06  4291.46  4379.36  4388.26  4549.05

 Zero-point correction=                           0.061681 (Hartree/Particle)
 Thermal correction to Energy=                    0.067170
 Thermal correction to Enthalpy=                  0.068115
 Thermal correction to Gibbs Free Energy=         0.032839
 Sum of electronic and zero-point Energies=           -192.695455
 Sum of electronic and thermal Energies=              -192.689966
 Sum of electronic and thermal Enthalpies=            -192.689022
 Sum of electronic and thermal Free Energies=         -192.724298

                     E (Thermal)             CV                S
                      KCal/Mol        Cal/Mol-Kelvin    Cal/Mol-Kelvin
 Total                   42.150             17.955             74.244
 Electronic               0.000              0.000              2.183
 Translational            0.889              2.981             38.389
 Rotational               0.889              2.981             24.355
 Vibrational             40.373             11.993              9.317
 Vibration     1          0.614              1.918              2.863
 Vibration     2          0.637              1.843              2.155
 Vibration     3          0.700              1.651              1.352
 Vibration     4          0.752              1.507              1.028
 Vibration     5          0.836              1.296              0.712

 Normal termination of Gaussian 09 at Mon Jun 20 11:37:59 2016.
