 Gaussian 09, Revision E.01,
 Gaussian 09:  EM64L-G09RevE.01 30-Nov-2015

 ---------------------------------------------
 #p b3lyp/6-311++G(3df,2p) freq symmetry=Loose
 ---------------------------------------------

 ---------
 b3lyp opt
 ---------
 Symbolic Z-matrix:
 Charge =  1 Multiplicity = 4

                         Standard orientation:
 ---------------------------------------------------------------------
 Center     Atomic      Atomic             Coordinates (Angstroms)
 Number     Number       Type             X           Y           Z
 ---------------------------------------------------------------------
      1          6           0        1.837139   -0.497211   -0.000669
      2          1           0        2.677950    0.194176   -0.027328
      3          1           0        1.898095   -1.124020    0.894418
      4          1           0        1.876453   -1.170719   -0.861707
      5          6           0        0.574327    0.219131   -0.000241
      6          6           0       -0.195195    1.330856   -0.000061
      7          6           0       -0.867586    0.147836    0.000213
      8          6           0       -2.035962   -0.580574   -0.000145
      9          1           0       -2.328835   -1.619659    0.000034
 ---------------------------------------------------------------------

 SCF Done:  E(UB3LYP) =  -192.420413284     A.U. after   15 cycles

 The electronic state is 4-A.
 Alpha  occ. eigenvalues --  -10.50404 -10.49975 -10.49589 -10.47666 -10.39587
 Alpha  occ. eigenvalues --   -1.20161  -1.00137  -0.97470  -0.77424  -0.76001
 Alpha  occ. eigenvalues --   -0.71415  -0.68198  -0.64818  -0.61522  -0.61420
 Alpha  occ. eigenvalues --   -0.56784  -0.50032  -0.47050
 Alpha virt. eigenvalues --   -0.26747  -0.21981  -0.16190  -0.12239  -0.11277
 Alpha virt. eigenvalues --   -0.10812  -0.10304  -0.08712  -0.07857  -0.07023
 Alpha virt. eigenvalues --   -0.06885  -0.06323  -0.06228  -0.03711  -0.03466

  Beta  occ. eigenvalues --  -10.49805 -10.49438 -10.48140 -10.44989 -10.39587
  Beta  occ. eigenvalues --   -1.18179  -0.97723  -0.93632  -0.75181  -0.72250
  Beta  occ. eigenvalues --   -0.68939  -0.66474  -0.62436  -0.59775  -0.59723
  Beta virt. eigenvalues --   -0.39519  -0.36858  -0.30180  -0.23459  -0.17229
  Beta virt. eigenvalues --   -0.15788  -0.11709  -0.10534  -0.10445  -0.09604
  Beta virt. eigenvalues --   -0.08131  -0.07131  -0.06550  -0.06232  -0.05569

 Mulliken charges and spin densities:
               1          2
     1  C   -0.297093   0.033067
     2  H    0.202476   0.021436
     3  H    0.210522   0.009344
     4  H    0.208627   0.009456
     5  C    0.135094   0.341251
     6  C    0.007991   1.039406
     7  C    0.524903  -0.056557
     8  C   -0.261990   1.600374
     9  H    0.269471   0.002223
 Sum of Mulliken charges =   1.00000   3.00000

 Dipole moment (field-independent basis, Debye):
    X=              0.0573    Y=             -1.4918    Z=              0.0076  Tot=              1.4929
 Quadrupole moment (field-independent basis, Debye-Ang):
   XX=            -13.0131   YY=            -21.6155   ZZ=            -26.3213
   XY=              1.8845   XZ=              0.0152   YZ=             -0.0067

  Exact polarizability:  68.057   2.871  48.817   0.034  -0.004  32.113
 Approx polarizability:  95.072   4.916  79.288   0.078  -0.019  47.178

 ******    1 imaginary frequencies (negative Signs) ******

                      1                      2                      3
                      A                      A                      A
 Frequencies --    -17.8625               210.5571               333.6377
 Red. masses --      1.0792                 2.8641                 4.1723
 Frc consts  --      0.0002                 0.0748                 0.2736
 IR Inten    --      0.3001                 2.1651                 0.3202

                      4                      5                      6
                      A                      A                      A
 Frequencies --    457.7005               470.7503               597.2518
 Red. masses --      3.1590                 2.3614                 1.6115
 Frc consts  --      0.3899                 0.3083                 0.3387
 IR Inten    --      1.2543                 4.4175                15.5188

                      7                      8                      9
                      A                      A                      A
 Frequencies --    722.3373               838.2871               906.6670
 Red. masses --      3.8591                 1.5478                 3.9540
 Frc consts  --      1.1864                 0.6408                 1.9151
 IR Inten    --      6.2897                35.8694                11.3019

                     10                     11                     12
                      A                      A                      A
 Frequencies --   1009.2793              1035.0360              1172.8066
 Red. masses --      1.5616                 2.1508                 4.6936
 Frc consts  --      0.9372                 1.3576                 3.8037
 IR Inten    --      4.5537                 4.8295                34.7225

                     13                     14                     15
                      A                      A                      A
 Frequencies --   1381.9225              1438.0933              1440.9436
 Red. masses --      1.1698                 1.0545                 1.0997
 Frc consts  --      1.3162                 1.2849                 1.3452
 IR Inten    --     40.0022                17.5680                13.8735

                     16                     17                     18
                      A                      A                      A
 Frequencies --   1523.2768              1741.5956              3015.9206
 Red. masses --      7.4291                11.0196                 1.0353
 Frc consts  --     10.1565                19.6930                 5.5483
 IR Inten    --     68.5104                23.1171                44.7435

                     19                     20                     21
                      A                      A                      A
 Frequencies --   3070.0204              3122.1399              3237.1322
 Red. masses --      1.0969                 1.1025                 1.0957
 Frc consts  --      6.0913                 6.3320                 6.7652
 IR Inten    --     10.9642                 3.5335                55.6414

 - Thermochemistry -
 -------------------
 Temperature   298.150 Kelvin.  Pressure   1.00000 Atm.
 Atom     1 has atomic number  6 and mass  12.00000

 Molecular mass:    64.03130 amu.
 Principal axes and moments of inertia in atomic units:
                           1         2         3
     Eigenvalues --   127.78058 445.87725 562.54931
           X            1.00000  -0.00308   0.00006
           Y            0.00308   1.00000  -0.00007
           Z           -0.00006   0.00007   1.00000
 This molecule is an asymmetric top.
 Rotational symmetry number  1.
 Rotational temperatures (Kelvin)      0.67783     0.19425     0.15397
 Rotational constants (GHZ):          14.12375     4.04762     3.20815
    1 imaginary frequencies ignored.
 Zero-point vibrational energy     165834.5 (Joules/Mol)
                                   39.63539 (Kcal/Mol)
 Warning -- explicit consideration of   5 degrees of freedom as
           vibrations may cause significant error
 Vibrational temperatures:    302.94   480.03   658.53   677.30   859.31
          (Kelvin)           1039.28  1206.11  1304.49  1452.13  1489.18
                             1687.41  1988.28  2069.09  2073.19  2191.65
                             2505.76  4339.23  4417.07  4492.06  4657.51

 Zero-point correction=                           0.063163 (Hartree/Particle)
 Thermal correction to Energy=                    0.067923
 Thermal correction to Enthalpy=                  0.068867
 Thermal correction to Gibbs Free Energy=         0.034544
 Sum of electronic and zero-point Energies=           -192.357250
 Sum of electronic and thermal Energies=              -192.352490
 Sum of electronic and thermal Enthalpies=            -192.351546
 Sum of electronic and thermal Free Energies=         -192.385870

                     E (Thermal)             CV                S
                      KCal/Mol        Cal/Mol-Kelvin    Cal/Mol-Kelvin
 Total                   42.622             16.288             72.240
 Electronic               0.000              0.000              2.755
 Translational            0.889              2.981             38.389
 Rotational               0.889              2.981             24.975
 Vibrational             40.845             10.327              6.121
 Vibration     1          0.643              1.825              2.039
 Vibration     2          0.715              1.608              1.242
 Vibration     3          0.816              1.344              0.773
 Vibration     4          0.828              1.315              0.735
 Vibration     5          0.955              1.038              0.454

 Normal termination of Gaussian 09 at Mon Jun 20 11:38:27 2016.
