 Gaussian 09, Revision E.01,
 Gaussian 09:  EM64L-G09RevE.01 30-Nov-2015

 ---------------------------------------------
 #p b3lyp/6-311++G(3df,2p) freq symmetry=Loose
 ---------------------------------------------

 ---------
 b3lyp opt
 ---------
 Symbolic Z-matrix:
 Charge =  2 Multiplicity = 3

                         Standard orientation:
 ---------------------------------------------------------------------
 Center     Atomic      Atomic             Coordinates (Angstroms)
 Number     Number       Type             X           Y           Z
 ---------------------------------------------------------------------
      1          6           0       -1.756633   -1.596386   -0.000000
      2          1           0       -1.062585   -2.430647   -0.000000
      3          1           0       -2.826983   -1.780196   -0.000000
      4          6           0       -1.306196   -0.238416   -0.000000
      5          1           0       -2.050188    0.575315   -0.000000
      6          6           0        0.000000    0.223472    0.000000
      7          6           0        1.161848    0.715080    0.000000
      8          6           0        2.335381    1.225455    0.000000
      9          1           0        3.333353    1.660296    0.000000
 ---------------------------------------------------------------------

 SCF Done:  E(UB3LYP) =  -191.946146839     A.U. after   17 cycles

 The electronic state is 3-A'.
 Alpha  occ. eigenvalues --  -10.74363 -10.72669 -10.71548 -10.69022 -10.66325
 Alpha  occ. eigenvalues --   -1.31037  -1.26297  -1.17846  -1.09261  -0.98764
 Alpha  occ. eigenvalues --   -0.95860  -0.89982  -0.85785  -0.82907  -0.80178
 Alpha  occ. eigenvalues --   -0.78206  -0.67073
 Alpha virt. eigenvalues --   -0.60097  -0.49605  -0.37159  -0.33945  -0.31679
 Alpha virt. eigenvalues --   -0.30070  -0.28238  -0.26495  -0.25002  -0.24136
 Alpha virt. eigenvalues --   -0.23391  -0.21936  -0.21132  -0.20007  -0.18775

  Beta  occ. eigenvalues --  -10.73123 -10.72173 -10.70919 -10.69032 -10.65470
  Beta  occ. eigenvalues --   -1.29124  -1.23541  -1.15260  -1.07478  -0.97599
  Beta  occ. eigenvalues --   -0.95107  -0.89044  -0.82370  -0.80301  -0.79635
  Beta virt. eigenvalues --   -0.65850  -0.58818  -0.54424  -0.42697  -0.36648
  Beta virt. eigenvalues --   -0.31337  -0.29572  -0.28751  -0.27952  -0.26149
  Beta virt. eigenvalues --   -0.24003  -0.23493  -0.22705  -0.21626  -0.20694

 Mulliken charges and spin densities:
               1          2
     1  C   -0.332222   0.554646
     2  H    0.256903  -0.013607
     3  H    0.295516  -0.015472
     4  C    0.244284   0.452304
     5  H    0.272271  -0.009801
     6  C    0.134819   0.297442
     7  C    0.215162   0.135328
     8  C    0.469886   0.619182
     9  H    0.443382  -0.020021
 Sum of Mulliken charges =   2.00000   2.00000

 Dipole moment (field-independent basis, Debye):
    X=              1.2764    Y=              0.6525    Z=              0.0000  Tot=              1.4335
 Quadrupole moment (field-independent basis, Debye-Ang):
   XX=             19.7665   YY=             -6.6032   ZZ=            -25.6114
   XY=             21.9307   XZ=              0.0000   YZ=              0.0000

  Exact polarizability:  95.983  37.663  56.779   0.000   0.000  25.815
 Approx polarizability: 194.190  77.795  90.597   0.000   0.000  36.315

 ******    1 imaginary frequencies (negative Signs) ******

                      1                      2                      3
                     A"                     A'                     A"
 Frequencies --   -141.7673               136.9859               151.3757
 Red. masses --      1.2317                 3.3354                 2.5502
 Frc consts  --      0.0146                 0.0369                 0.0344
 IR Inten    --      5.5512                10.7265                13.3066

                      4                      5                      6
                     A'                     A"                     A"
 Frequencies --    300.2858               358.4281               402.6748
 Red. masses --      3.9436                 1.1533                 9.8260
 Frc consts  --      0.2095                 0.0873                 0.9387
 IR Inten    --     10.5170                41.7418                 0.1650

                      7                      8                      9
                     A'                     A'                     A"
 Frequencies --    594.8377               773.7103               816.5059
 Red. masses --      4.9404                 3.5033                 1.8417
 Frc consts  --      1.0299                 1.2356                 0.7234
 IR Inten    --      8.1985                20.9169                 5.9718

                     10                     11                     12
                     A'                     A'                     A'
 Frequencies --    872.4246              1042.3808              1193.8771
 Red. masses --      1.3587                 1.3601                 2.3160
 Frc consts  --      0.6093                 0.8707                 1.9449
 IR Inten    --      7.4374                 3.4002                20.9836

                     13                     14                     15
                     A'                     A"                     A'
 Frequencies --   1309.3403              1463.3526              1472.8455
 Red. masses --      1.9020                 1.2223                 1.1878
 Frc consts  --      1.9211                 1.5421                 1.5181
 IR Inten    --    133.1607                51.8250                29.1437

                     16                     17                     18
                     A'                     A'                     A'
 Frequencies --   1490.5595              1970.6154              2989.8307
 Red. masses --      5.0231                 9.6830                 1.0836
 Frc consts  --      6.5754                22.1546                 5.7072
 IR Inten    --    270.8072                34.1341               173.4835

                     19                     20                     21
                     A'                     A'                     A'
 Frequencies --   3113.4191              3193.9048              3239.6417
 Red. masses --      1.0522                 1.1286                 1.1271
 Frc consts  --      6.0091                 6.7833                 6.9693
 IR Inten    --    157.9950               439.3674                60.3595

 - Thermochemistry -
 -------------------
 Temperature   298.150 Kelvin.  Pressure   1.00000 Atm.
 Atom     1 has atomic number  6 and mass  12.00000

 Molecular mass:    64.03130 amu.
 Principal axes and moments of inertia in atomic units:
                           1         2         3
     Eigenvalues --    38.58223 789.51717 828.09940
           X            0.85262  -0.52253   0.00000
           Y            0.52253   0.85262   0.00000
           Z            0.00000  -0.00000   1.00000
 This molecule is an asymmetric top.
 Rotational symmetry number  1.
 Rotational temperatures (Kelvin)      2.24491     0.10970     0.10459
 Rotational constants (GHZ):          46.77648     2.28588     2.17938
    1 imaginary frequencies ignored.
 Zero-point vibrational energy     160820.0 (Joules/Mol)
                                   38.43689 (Kcal/Mol)
 Warning -- explicit consideration of   6 degrees of freedom as
           vibrations may cause significant error
 Vibrational temperatures:    197.09   217.80   432.04   515.70   579.36
          (Kelvin)            855.84  1113.20  1174.77  1255.22  1499.75
                             1717.72  1883.85  2105.44  2119.09  2144.58
                             2835.27  4301.69  4479.51  4595.31  4661.12

 Zero-point correction=                           0.061253 (Hartree/Particle)
 Thermal correction to Energy=                    0.066931
 Thermal correction to Enthalpy=                  0.067875
 Thermal correction to Gibbs Free Energy=         0.031986
 Sum of electronic and zero-point Energies=           -191.884894
 Sum of electronic and thermal Energies=              -191.879216
 Sum of electronic and thermal Enthalpies=            -191.878272
 Sum of electronic and thermal Free Energies=         -191.914161

                     E (Thermal)             CV                S
                      KCal/Mol        Cal/Mol-Kelvin    Cal/Mol-Kelvin
 Total                   42.000             18.319             75.534
 Electronic               0.000              0.000              2.183
 Translational            0.889              2.981             38.389
 Rotational               0.889              2.981             24.737
 Vibrational             40.222             12.358             10.224
 Vibration     1          0.614              1.916              2.846
 Vibration     2          0.619              1.901              2.655
 Vibration     3          0.693              1.673              1.415
 Vibration     4          0.733              1.558              1.129
 Vibration     5          0.768              1.464              0.953
 Vibration     6          0.953              1.043              0.459

 Optimization completed.
    -- Stationary point found.
 Normal termination of Gaussian 09 at Mon Jun 20 11:58:55 2016.
