 Gaussian 09, Revision E.01,
 Gaussian 09:  EM64L-G09RevE.01 30-Nov-2015

 ---------------------------------------------
 #p b3lyp/6-311++G(3df,2p) freq symmetry=Loose
 ---------------------------------------------

 ---------
 b3lyp opt
 ---------
 Symbolic Z-matrix:
 Charge =  1 Multiplicity = 2

                         Standard orientation:
 ---------------------------------------------------------------------
 Center     Atomic      Atomic             Coordinates (Angstroms)
 Number     Number       Type             X           Y           Z
 ---------------------------------------------------------------------
      1          6           0       -0.961892   -1.861079   -0.000000
      2          1           0       -1.912942   -2.385658   -0.000000
      3          1           0       -0.069123   -2.488330   -0.000000
      4          6           0       -0.911196   -0.552757   -0.000000
      5          6           0        0.000000    0.510455    0.000000
      6          6           0        0.141128    1.861207    0.000000
      7          6           0        1.397624    0.633324    0.000000
      8          1           0        1.955069    1.580481    0.000000
      9          1           0        2.033011   -0.253396    0.000000
 ---------------------------------------------------------------------

 SCF Done:  E(UB3LYP) =  -192.409367103     A.U. after   18 cycles

 The electronic state is 2-A'.
 Alpha  occ. eigenvalues --  -10.52759 -10.51678 -10.48908 -10.43085 -10.40805
 Alpha  occ. eigenvalues --   -1.16881  -1.01222  -0.90712  -0.87261  -0.76294
 Alpha  occ. eigenvalues --   -0.70704  -0.68334  -0.65113  -0.64104  -0.55258
 Alpha  occ. eigenvalues --   -0.50673  -0.45472
 Alpha virt. eigenvalues --   -0.35073  -0.29764  -0.28316  -0.16236  -0.14270
 Alpha virt. eigenvalues --   -0.13288  -0.11278  -0.10116  -0.09674  -0.08991
 Alpha virt. eigenvalues --   -0.07503  -0.06442  -0.05083  -0.03977  -0.03616

  Beta  occ. eigenvalues --  -10.52625 -10.51571 -10.48912 -10.41539 -10.40939
  Beta  occ. eigenvalues --   -1.16508  -0.99316  -0.90308  -0.86567  -0.75202
  Beta  occ. eigenvalues --   -0.69946  -0.67364  -0.63776  -0.63726  -0.54714
  Beta  occ. eigenvalues --   -0.49929
  Beta virt. eigenvalues --   -0.34900  -0.31392  -0.28376  -0.28061  -0.16139
  Beta virt. eigenvalues --   -0.13226  -0.13126  -0.11032  -0.10042  -0.09526
  Beta virt. eigenvalues --   -0.08780  -0.07368  -0.06320  -0.05025  -0.03572

 Mulliken charges and spin densities:
               1          2
     1  C   -0.381534  -0.206309
     2  H    0.238045   0.034591
     3  H    0.185499   0.072883
     4  C    0.223367   0.912704
     5  C    0.830717   0.012597
     6  C   -0.161311   0.091685
     7  C   -0.446980   0.066866
     8  H    0.259451   0.016243
     9  H    0.252745  -0.001260
 Sum of Mulliken charges =   1.00000   1.00000

 Dipole moment (field-independent basis, Debye):
    X=              2.7809    Y=             -1.0598    Z=              0.0000  Tot=              2.9760
 Quadrupole moment (field-independent basis, Debye-Ang):
   XX=            -15.8015   YY=            -17.4187   ZZ=            -28.5638
   XY=              5.6500   XZ=             -0.0000   YZ=              0.0000

  Exact polarizability:  58.845  14.677  76.174  -0.006   0.002  31.618
 Approx polarizability: 103.412  16.140 129.550   0.000  -0.000  47.723

 ******    1 imaginary frequencies (negative Signs) ******

                      1                      2                      3
                     A"                     A'                     A"
 Frequencies --   -234.6675               182.8303               264.9543
 Red. masses --      1.5458                 2.5585                 2.4887
 Frc consts  --      0.0502                 0.0504                 0.1029
 IR Inten    --      0.2026                 3.7376                 1.9770

                      4                      5                      6
                     A"                     A'                     A'
 Frequencies --    348.8580               353.1672               455.7210
 Red. masses --      1.3913                 1.8127                 7.0746
 Frc consts  --      0.0998                 0.1332                 0.8657
 IR Inten    --      0.0172                34.7352                30.7852

                      7                      8                      9
                     A"                     A'                     A'
 Frequencies --    629.7165               640.4882               804.5913
 Red. masses --      2.0475                 2.3930                 4.5343
 Frc consts  --      0.4784                 0.5784                 1.7295
 IR Inten    --      1.7775                59.9885                25.6904

                     10                     11                     12
                     A"                     A'                     A"
 Frequencies --    953.8709               993.5382              1003.9466
 Red. masses --      1.3811                 1.6977                 1.3301
 Frc consts  --      0.7404                 0.9873                 0.7899
 IR Inten    --     33.7420                 0.9855                33.7638

                     13                     14                     15
                     A'                     A'                     A'
 Frequencies --   1220.2881              1355.4234              1413.6987
 Red. masses --      3.0772                 1.2601                 1.1267
 Frc consts  --      2.6998                 1.3640                 1.3267
 IR Inten    --     49.6498                31.3169                45.4432

                     16                     17                     18
                     A'                     A'                     A'
 Frequencies --   1579.8631              1744.3677              3013.7939
 Red. masses --      6.9109                 9.6494                 1.0612
 Frc consts  --     10.1631                17.2991                 5.6788
 IR Inten    --     36.2236               112.6668               209.5442

                     19                     20                     21
                     A'                     A'                     A'
 Frequencies --   3058.4682              3120.3365              3160.7553
 Red. masses --      1.0630                 1.1028                 1.1063
 Frc consts  --      5.8587                 6.3265                 6.5118
 IR Inten    --     12.0772                77.1916                21.6912

 - Thermochemistry -
 -------------------
 Temperature   298.150 Kelvin.  Pressure   1.00000 Atm.
 Atom     1 has atomic number  6 and mass  12.00000

 Molecular mass:    64.03130 amu.
 Principal axes and moments of inertia in atomic units:
                           1         2         3
     Eigenvalues --    97.51686 493.48672 591.00358
           X            0.51217   0.85888   0.00000
           Y            0.85888  -0.51217   0.00000
           Z           -0.00000  -0.00000   1.00000
 This molecule is an asymmetric top.
 Rotational symmetry number  1.
 Rotational temperatures (Kelvin)      0.88819     0.17551     0.14655
 Rotational constants (GHZ):          18.50697     3.65712     3.05369
    1 imaginary frequencies ignored.
 Zero-point vibrational energy     157301.0 (Joules/Mol)
                                   37.59585 (Kcal/Mol)
 Warning -- explicit consideration of   5 degrees of freedom as
           vibrations may cause significant error
 Vibrational temperatures:    263.05   381.21   501.93   508.13   655.68
          (Kelvin)            906.02   921.52  1157.63  1372.41  1429.48
                             1444.45  1755.72  1950.15  2033.99  2273.07
                             2509.75  4336.17  4400.45  4489.46  4547.62

 Zero-point correction=                           0.059913 (Hartree/Particle)
 Thermal correction to Energy=                    0.065294
 Thermal correction to Enthalpy=                  0.066238
 Thermal correction to Gibbs Free Energy=         0.031538
 Sum of electronic and zero-point Energies=           -192.349454
 Sum of electronic and thermal Energies=              -192.344073
 Sum of electronic and thermal Enthalpies=            -192.343129
 Sum of electronic and thermal Free Energies=         -192.377830

                     E (Thermal)             CV                S
                      KCal/Mol        Cal/Mol-Kelvin    Cal/Mol-Kelvin
 Total                   40.972             18.309             73.033
 Electronic               0.000              0.000              1.377
 Translational            0.889              2.981             38.389
 Rotational               0.889              2.981             24.856
 Vibrational             39.195             12.347              8.410
 Vibration     1          0.630              1.863              2.299
 Vibration     2          0.671              1.737              1.629
 Vibration     3          0.726              1.578              1.171
 Vibration     4          0.729              1.569              1.152
 Vibration     5          0.814              1.348              0.779

 Normal termination of Gaussian 09 at Mon Jun 20 11:36:01 2016.
