 Gaussian 09, Revision E.01,
 Gaussian 09:  EM64L-G09RevE.01 30-Nov-2015

 ---------------------------------------------
 #p b3lyp/6-311++G(3df,2p) freq symmetry=Loose
 ---------------------------------------------

 ---------
 b3lyp opt
 ---------
 Symbolic Z-matrix:
 Charge =  0 Multiplicity = 1

                         Standard orientation:
 ---------------------------------------------------------------------
 Center     Atomic      Atomic             Coordinates (Angstroms)
 Number     Number       Type             X           Y           Z
 ---------------------------------------------------------------------
      1          6           0       -0.667492    1.865821    0.000000
      2          1           0       -1.749207    1.918395    0.000000
      3          1           0       -0.119533    2.800690    0.000000
      4          6           0        0.000000    0.701695    0.000000
      5          6           0        0.128243   -0.689947    0.000000
      6          6           0        1.328715    0.122423    0.000000
      7          6           0       -0.315499   -1.956362    0.000000
      8          1           0        0.394327   -2.775112    0.000000
      9          1           0       -1.369392   -2.205755    0.000000
 ---------------------------------------------------------------------

 SCF Done:  E(RB3LYP) =  -192.780569306     A.U. after   12 cycles

 The electronic state is 1-A'.
 Alpha  occ. eigenvalues --  -10.22018 -10.22016 -10.20783 -10.20726 -10.20713
 Alpha  occ. eigenvalues --   -0.90735  -0.76879  -0.73751  -0.53783  -0.53205
 Alpha  occ. eigenvalues --   -0.48971  -0.46536  -0.40318  -0.39729  -0.32123
 Alpha  occ. eigenvalues --   -0.27210  -0.23436
 Alpha virt. eigenvalues --   -0.14750  -0.00978   0.00468   0.00516   0.02395
 Alpha virt. eigenvalues --    0.03096   0.04510   0.05171   0.06248   0.07628
 Alpha virt. eigenvalues --    0.07971   0.08381   0.10159   0.11077   0.11218

 Mulliken charges:
               1
     1  C   -0.449490
     2  H    0.183977
     3  H    0.193967
     4  C    0.403796
     5  C    0.397581
     6  C   -0.656540
     7  C   -0.451174
     8  H    0.193908
     9  H    0.183974
 Sum of Mulliken charges =  -0.00000

 Dipole moment (field-independent basis, Debye):
    X=             -3.4389    Y=             -0.3166    Z=              0.0000  Tot=              3.4534
 Quadrupole moment (field-independent basis, Debye-Ang):
   XX=            -34.6200   YY=            -22.5860   ZZ=            -31.4141
   XY=             -1.1178   XZ=              0.0000   YZ=              0.0000

  Exact polarizability:  58.191  -5.468 117.045  -0.000  -0.000  40.412
 Approx polarizability:  85.679 -16.360 261.791  -0.000  -0.000  60.653

 ******    1 imaginary frequencies (negative Signs) ******

                      1                      2                      3
                     A"                     A'                     A"
 Frequencies --   -193.8523               231.9760               276.8943
 Red. masses --      1.1485                 2.5802                 2.1807
 Frc consts  --      0.0254                 0.0818                 0.0985
 IR Inten    --     19.3981                 3.1983                 0.0001

                      4                      5                      6
                     A"                     A'                     A"
 Frequencies --    333.1485               400.3395               726.8544
 Red. masses --      4.0301                 3.2583                 1.4146
 Frc consts  --      0.2635                 0.3077                 0.4403
 IR Inten    --      5.7430                 1.6403                 0.0005

                      7                      8                      9
                     A'                     A'                     A"
 Frequencies --    793.0743               817.9645               970.4039
 Red. masses --      4.3559                 3.2305                 1.3804
 Frc consts  --      1.6142                 1.2735                 0.7659
 IR Inten    --     44.6801                 1.6323                 1.6925

                     10                     11                     12
                     A"                     A'                     A'
 Frequencies --    972.7877              1007.1846              1108.6477
 Red. masses --      1.3456                 2.0825                 1.6846
 Frc consts  --      0.7503                 1.2447                 1.2199
 IR Inten    --     62.2733                 3.9299                 5.6014

                     13                     14                     15
                     A'                     A'                     A'
 Frequencies --   1229.1331              1428.4089              1479.7316
 Red. masses --      3.8395                 1.2853                 1.1539
 Frc consts  --      3.4176                 1.5451                 1.4886
 IR Inten    --     41.2379                82.3776                 1.0533

                     16                     17                     18
                     A'                     A'                     A'
 Frequencies --   1603.4605              1800.1039              3118.3590
 Red. masses --      4.1728                10.2762                 1.0559
 Frc consts  --      6.3212                19.6190                 6.0493
 IR Inten    --    100.1873                22.4828                12.2732

                     19                     20                     21
                     A'                     A'                     A'
 Frequencies --   3119.6279              3207.3144              3207.5272
 Red. masses --      1.0542                 1.1177                 1.1176
 Frc consts  --      6.0449                 6.7740                 6.7746
 IR Inten    --      8.0437                 1.2991                 4.4462

 - Thermochemistry -
 -------------------
 Temperature   298.150 Kelvin.  Pressure   1.00000 Atm.
 Atom     1 has atomic number  6 and mass  12.00000

 Molecular mass:    64.03130 amu.
 Principal axes and moments of inertia in atomic units:
                           1         2         3
     Eigenvalues --   114.87203 444.81044 559.68247
           X           -0.09171   0.99579   0.00000
           Y            0.99579   0.09171   0.00000
           Z           -0.00000   0.00000   1.00000
 This molecule is an asymmetric top.
 Rotational symmetry number  1.
 Rotational temperatures (Kelvin)      0.75400     0.19472     0.15476
 Rotational constants (GHZ):          15.71089     4.05733     3.22458
    1 imaginary frequencies ignored.
 Zero-point vibrational energy     166478.0 (Joules/Mol)
                                   39.78919 (Kcal/Mol)
 Warning -- explicit consideration of   4 degrees of freedom as
           vibrations may cause significant error
 Vibrational temperatures:    333.76   398.39   479.33   576.00  1045.78
          (Kelvin)           1141.06  1176.87  1396.19  1399.62  1449.11
                             1595.09  1768.45  2055.16  2129.00  2307.02
                             2589.94  4486.62  4488.44  4614.60  4614.91

 Zero-point correction=                           0.063408 (Hartree/Particle)
 Thermal correction to Energy=                    0.068322
 Thermal correction to Enthalpy=                  0.069266
 Thermal correction to Gibbs Free Energy=         0.036010
 Sum of electronic and zero-point Energies=           -192.717161
 Sum of electronic and thermal Energies=              -192.712247
 Sum of electronic and thermal Enthalpies=            -192.711303
 Sum of electronic and thermal Free Energies=         -192.744559

                     E (Thermal)             CV                S
                      KCal/Mol        Cal/Mol-Kelvin    Cal/Mol-Kelvin
 Total                   42.873             16.513             69.993
 Electronic               0.000              0.000              0.000
 Translational            0.889              2.981             38.389
 Rotational               0.889              2.981             24.862
 Vibrational             41.095             10.551              6.742
 Vibration     1          0.653              1.792              1.864
 Vibration     2          0.678              1.716              1.553
 Vibration     3          0.715              1.609              1.245
 Vibration     4          0.766              1.469              0.961

 Optimization completed.
    -- Stationary point found.
 Normal termination of Gaussian 09 at Mon Jun 20 11:22:20 2016.
