 Gaussian 09, Revision E.01,
 Gaussian 09:  EM64L-G09RevE.01 30-Nov-2015

 ---------------------------------------------
 #p b3lyp/6-311++G(3df,2p) freq symmetry=Loose
 ---------------------------------------------

 ---------
 b3lyp opt
 ---------
 Symbolic Z-matrix:
 Charge =  3 Multiplicity = 2

                         Standard orientation:
 ---------------------------------------------------------------------
 Center     Atomic      Atomic             Coordinates (Angstroms)
 Number     Number       Type             X           Y           Z
 ---------------------------------------------------------------------
      1          6           0        2.540756    0.749476    0.000000
      2          6           0       -1.654185   -1.666606    0.000000
      3          1           0       -0.937374   -2.501217    0.000000
      4          1           0       -2.740009   -1.859723    0.000000
      5          6           0       -1.204491   -0.249563    0.000000
      6          1           0       -2.002951    0.556176    0.000000
      7          6           0        0.000000    0.337711    0.000000
      8          6           0        1.099107    1.090895    0.000000
      9          1           0        0.993209    2.233289    0.000000
 ---------------------------------------------------------------------

 SCF Done:  E(UB3LYP) =  -191.078186268     A.U. after   28 cycles

 The electronic state is 2-A".
 Alpha  occ. eigenvalues --  -11.06291 -11.01782 -10.95438 -10.94936 -10.94826
 Alpha  occ. eigenvalues --   -1.55867  -1.49655  -1.38762  -1.32491  -1.19795
 Alpha  occ. eigenvalues --   -1.16567  -1.12980  -1.07784  -1.06278  -1.00625
 Alpha  occ. eigenvalues --   -0.98403
 Alpha virt. eigenvalues --   -0.83436  -0.82069  -0.80438  -0.73564  -0.60607
 Alpha virt. eigenvalues --   -0.52978  -0.49067  -0.47650  -0.45482  -0.44670
 Alpha virt. eigenvalues --   -0.42299  -0.40860  -0.39921  -0.38952  -0.38210

  Beta  occ. eigenvalues --  -11.05851 -11.02155 -10.95201 -10.94373 -10.94144
  Beta  occ. eigenvalues --   -1.55087  -1.47651  -1.37727  -1.31534  -1.19381
  Beta  occ. eigenvalues --   -1.16099  -1.12463  -1.06105  -1.05561  -0.99599
  Beta virt. eigenvalues --   -0.88666  -0.82487  -0.80320  -0.79945  -0.69409
  Beta virt. eigenvalues --   -0.57943  -0.52342  -0.48806  -0.47410  -0.44815
  Beta virt. eigenvalues --   -0.43995  -0.41667  -0.40545  -0.39740  -0.38501

 Mulliken charges and spin densities:
               1          2
     1  C    0.554951   0.231888
     2  C    0.018068   0.142593
     3  H    0.318575  -0.003374
     4  H    0.354618  -0.004027
     5  C    0.328440   0.414523
     6  H    0.311789  -0.006787
     7  C    0.616116  -0.117714
     8  C    0.167078   0.345124
     9  H    0.330364  -0.002227
 Sum of Mulliken charges =   3.00000   1.00000

 Dipole moment (field-independent basis, Debye):
    X=             -0.9438    Y=             -0.0578    Z=              0.0000  Tot=              0.9456
 Quadrupole moment (field-independent basis, Debye-Ang):
   XX=             22.6729   YY=              7.7563   ZZ=            -23.0645
   XY=             24.6437   XZ=              0.0000   YZ=              0.0000

  Exact polarizability:  92.107  29.619  55.075  -0.000  -0.000  25.919
 Approx polarizability: 193.709  57.856  88.089  -0.000  -0.000  36.766

 ******    2 imaginary frequencies (negative Signs) ******

                      1                      2                      3
                     A"                     A"                     A'
 Frequencies --   -342.3422              -214.2233               150.2181
 Red. masses --      1.6282                 1.2245                 4.4573
 Frc consts  --      0.1124                 0.0331                 0.0593
 IR Inten    --      4.2735                 2.8600                 5.2140

                      4                      5                      6
                     A"                     A'                     A'
 Frequencies --    306.8458               325.9381               558.3451
 Red. masses --      2.2403                 5.0193                 4.1853
 Frc consts  --      0.1243                 0.3142                 0.7687
 IR Inten    --     33.5727                 7.9154                15.8119

                      7                      8                      9
                     A"                     A"                     A'
 Frequencies --    602.7529               656.1102               807.4307
 Red. masses --      2.2618                 1.6199                 3.0409
 Frc consts  --      0.4842                 0.4108                 1.1680
 IR Inten    --     24.6317                 0.9287                57.4491

                     10                     11                     12
                     A'                     A'                     A'
 Frequencies --    877.7311               964.0453              1024.7921
 Red. masses --      2.0806                 1.7715                 1.6195
 Frc consts  --      0.9444                 0.9700                 1.0021
 IR Inten    --    130.5773               249.6338               235.3084

                     13                     14                     15
                     A'                     A"                     A'
 Frequencies --   1137.1238              1158.1349              1329.0261
 Red. masses --      1.4694                 1.3549                 4.0268
 Frc consts  --      1.1195                 1.0708                 4.1906
 IR Inten    --     22.2832                 4.4501                88.8961

                     16                     17                     18
                     A'                     A'                     A'
 Frequencies --   1434.5566              1505.3580              2560.0885
 Red. masses --      1.1453                 6.9383                 1.0780
 Frc consts  --      1.3887                 9.2636                 4.1626
 IR Inten    --     30.1743               521.2735               626.7605

                     19                     20                     21
                     A'                     A'                     A'
 Frequencies --   2679.6723              2975.8638              3104.1848
 Red. masses --      1.0773                 1.0536                 1.1315
 Frc consts  --      4.5579                 5.4972                 6.4237
 IR Inten    --    532.9082               241.0560               154.7867

 - Thermochemistry -
 -------------------
 Temperature   298.150 Kelvin.  Pressure   1.00000 Atm.
 Atom     1 has atomic number  6 and mass  12.00000

 Molecular mass:    64.03130 amu.
 Principal axes and moments of inertia in atomic units:
                           1         2         3
     Eigenvalues --    74.97158 735.36695 810.33854
           X            0.85239  -0.52290   0.00000
           Y            0.52290   0.85239   0.00000
           Z            0.00000   0.00000   1.00000
 This molecule is an asymmetric top.
 Rotational symmetry number  1.
 Rotational temperatures (Kelvin)      1.15529     0.11778     0.10689
 Rotational constants (GHZ):          24.07234     2.45420     2.22714
    2 imaginary frequencies ignored.
 Zero-point vibrational energy     144498.2 (Joules/Mol)
                                   34.53591 (Kcal/Mol)
 Warning -- explicit consideration of   5 degrees of freedom as
           vibrations may cause significant error
 Vibrational temperatures:    216.13   441.48   468.95   803.33   867.23
          (Kelvin)            944.00  1161.71  1262.86  1387.04  1474.45
                             1636.07  1666.30  1912.17  2064.00  2165.87
                             3683.39  3855.45  4281.60  4466.22

 Zero-point correction=                           0.055036 (Hartree/Particle)
 Thermal correction to Energy=                    0.060060
 Thermal correction to Enthalpy=                  0.061004
 Thermal correction to Gibbs Free Energy=         0.026588
 Sum of electronic and zero-point Energies=           -191.023150
 Sum of electronic and thermal Energies=              -191.018126
 Sum of electronic and thermal Enthalpies=            -191.017182
 Sum of electronic and thermal Free Energies=         -191.051599

                     E (Thermal)             CV                S
                      KCal/Mol        Cal/Mol-Kelvin    Cal/Mol-Kelvin
 Total                   37.688             16.938             72.436
 Electronic               0.000              0.000              1.377
 Translational            0.889              2.981             38.389
 Rotational               0.889              2.981             25.305
 Vibrational             35.911             10.977              7.364
 Vibration     1          0.618              1.902              2.669
 Vibration     2          0.697              1.661              1.379
 Vibration     3          0.710              1.624              1.280
 Vibration     4          0.914              1.121              0.527
 Vibration     5          0.961              1.026              0.445

 Optimization completed.
    -- Stationary point found.
 Normal termination of Gaussian 09 at Mon Jun 20 11:59:39 2016.
