 Gaussian 09, Revision E.01,
 Gaussian 09:  EM64L-G09RevE.01 30-Nov-2015

 ---------------------------------------------
 #p b3lyp/6-311++G(3df,2p) freq symmetry=Loose
 ---------------------------------------------

 ---------
 b3lyp opt
 ---------
 Symbolic Z-matrix:
 Charge =  2 Multiplicity = 1

                         Standard orientation:
 ---------------------------------------------------------------------
 Center     Atomic      Atomic             Coordinates (Angstroms)
 Number     Number       Type             X           Y           Z
 ---------------------------------------------------------------------
      1          6           0       -1.359409    0.276634    0.000000
      2          6           0       -0.000000    0.697647    0.000000
      3          6           0       -0.272554   -0.642547    0.000000
      4          6           0        0.176379   -1.952420    0.000000
      5          1           0        0.324045   -2.487034    0.946634
      6          1           0        0.324045   -2.487034   -0.946634
      7          6           0        0.924679    1.728545    0.000000
      8          1           0        1.268671    2.163458    0.946622
      9          1           0        1.268671    2.163458   -0.946622
 ---------------------------------------------------------------------

 SCF Done:  E(RB3LYP) =  -191.921485503     A.U. after   13 cycles

 The electronic state is 1-A'.
 Alpha  occ. eigenvalues --  -10.74032 -10.74024 -10.73631 -10.73566 -10.71869
 Alpha  occ. eigenvalues --   -1.42225  -1.24705  -1.22372  -1.00342  -0.99834
 Alpha  occ. eigenvalues --   -0.94488  -0.93648  -0.91951  -0.84365  -0.81664
 Alpha  occ. eigenvalues --   -0.72540
 Alpha virt. eigenvalues --   -0.62253  -0.56941  -0.49780  -0.47417  -0.34003
 Alpha virt. eigenvalues --   -0.30097  -0.27366  -0.25964  -0.25887  -0.24857
 Alpha virt. eigenvalues --   -0.24505  -0.22834  -0.22618  -0.21591  -0.21246

 Mulliken charges:
               1
     1  C    0.089637
     2  C    0.612872
     3  C    0.612206
     4  C   -0.290181
     5  H    0.316296
     6  H    0.316296
     7  C   -0.289736
     8  H    0.316305
     9  H    0.316305
 Sum of Mulliken charges =   2.00000

 Dipole moment (field-independent basis, Debye):
    X=              3.8715    Y=             -0.7857    Z=             -0.0000  Tot=              3.9504
 Quadrupole moment (field-independent basis, Debye-Ang):
   XX=            -19.2124   YY=             10.3910   ZZ=            -20.3363
   XY=              6.2739   XZ=             -0.0000   YZ=              0.0000

  Exact polarizability:  51.084   7.593  86.921   0.000   0.000  29.691
 Approx polarizability: 126.622  14.088 193.100  -0.000  -0.000  44.215

 ******    1 imaginary frequencies (negative Signs) ******

                      1                      2                      3
                     A"                     A'                     A"
 Frequencies --   -266.4376               155.8877               305.0388
 Red. masses --      1.2633                 3.3132                 2.4551
 Frc consts  --      0.0528                 0.0474                 0.1346
 IR Inten    --      0.0000                16.5869                 8.4630

                      4                      5                      6
                     A'                     A"                     A"
 Frequencies --    356.9506               455.4423               537.0462
 Red. masses --      5.0311                 1.8468                 1.1836
 Frc consts  --      0.3777                 0.2257                 0.2011
 IR Inten    --      0.0937                 0.0000                 1.7346

                      7                      8                      9
                     A'                     A'                     A"
 Frequencies --    778.9836               788.8281               958.9519
 Red. masses --      5.0709                 7.7232                 1.4328
 Frc consts  --      1.8130                 2.8315                 0.7763
 IR Inten    --     22.6621                10.3275                 0.0309

                     10                     11                     12
                     A'                     A"                     A'
 Frequencies --    970.5074               994.3805              1115.6120
 Red. masses --      6.4283                 1.5619                 1.4892
 Frc consts  --      3.5673                 0.9100                 1.0920
 IR Inten    --      7.6678                 0.0000                86.6509

                     13                     14                     15
                     A'                     A'                     A'
 Frequencies --   1128.9939              1188.3972              1407.3509
 Red. masses --      1.4583                 4.1322                 1.1452
 Frc consts  --      1.0952                 3.4384                 1.3364
 IR Inten    --     29.1259               420.6437                20.0875

                     16                     17                     18
                     A'                     A'                     A'
 Frequencies --   1409.3365              1804.6137              3010.2783
 Red. masses --      1.2125                11.3517                 1.0530
 Frc consts  --      1.4189                21.7811                 5.6222
 IR Inten    --      3.9625                25.3208               422.1451

                     19                     20                     21
                     A'                     A"                     A"
 Frequencies --   3016.7055              3120.2282              3121.1505
 Red. masses --      1.0514                 1.1222                 1.1221
 Frc consts  --      5.6375                 6.4369                 6.4402
 IR Inten    --     75.7084                62.0383               201.1465

 - Thermochemistry -
 -------------------
 Temperature   298.150 Kelvin.  Pressure   1.00000 Atm.
 Atom     1 has atomic number  6 and mass  12.00000

 Molecular mass:    64.03130 amu.
 Principal axes and moments of inertia in atomic units:
                           1         2         3
     Eigenvalues --   133.00431 436.33858 543.54219
           X            0.19914   0.97997   0.00000
           Y            0.97997  -0.19914   0.00000
           Z           -0.00000  -0.00000   1.00000
 This molecule is an asymmetric top.
 Rotational symmetry number  1.
 Rotational temperatures (Kelvin)      0.65121     0.19850     0.15935
 Rotational constants (GHZ):          13.56904     4.13610     3.32033
    1 imaginary frequencies ignored.
 Zero-point vibrational energy     159251.0 (Joules/Mol)
                                   38.06190 (Kcal/Mol)
 Warning -- explicit consideration of   5 degrees of freedom as
           vibrations may cause significant error
 Vibrational temperatures:    224.29   438.88   513.57   655.28   772.69
          (Kelvin)           1120.78  1134.95  1379.72  1396.34  1430.69
                             1605.11  1624.37  1709.84  2024.86  2027.72
                             2596.43  4331.11  4340.36  4489.31  4490.63

 Zero-point correction=                           0.060655 (Hartree/Particle)
 Thermal correction to Energy=                    0.065714
 Thermal correction to Enthalpy=                  0.066658
 Thermal correction to Gibbs Free Energy=         0.033032
 Sum of electronic and zero-point Energies=           -191.860830
 Sum of electronic and thermal Energies=              -191.855772
 Sum of electronic and thermal Enthalpies=            -191.854828
 Sum of electronic and thermal Free Energies=         -191.888454

                     E (Thermal)             CV                S
                      KCal/Mol        Cal/Mol-Kelvin    Cal/Mol-Kelvin
 Total                   41.236             17.140             70.772
 Electronic               0.000              0.000              0.000
 Translational            0.889              2.981             38.389
 Rotational               0.889              2.981             24.959
 Vibrational             39.458             11.179              7.423
 Vibration     1          0.620              1.896              2.599
 Vibration     2          0.696              1.664              1.389
 Vibration     3          0.732              1.561              1.135
 Vibration     4          0.814              1.349              0.779
 Vibration     5          0.892              1.168              0.572

 Normal termination of Gaussian 09 at Mon Jun 20 11:48:14 2016.
