 Gaussian 09, Revision E.01,
 Gaussian 09:  EM64L-G09RevE.01 30-Nov-2015

 ---------------------------------------------
 #p b3lyp/6-311++G(3df,2p) freq symmetry=Loose
 ---------------------------------------------

 ---------
 b3lyp opt
 ---------
 Symbolic Z-matrix:
 Charge =  0 Multiplicity = 1

                         Standard orientation:
 ---------------------------------------------------------------------
 Center     Atomic      Atomic             Coordinates (Angstroms)
 Number     Number       Type             X           Y           Z
 ---------------------------------------------------------------------
      1          6           0       -0.194156   -1.254392    0.000000
      2          1           0       -1.158739   -1.741905    0.000000
      3          6           0        0.993816   -1.796166    0.000000
      4          1           0        2.023401   -1.482625    0.000000
      5          6           0        0.000000    0.171656    0.000000
      6          6           0        0.501630    1.358029    0.000000
      7          6           0       -0.945011    1.494263    0.000000
      8          1           0       -1.501166    1.692094    0.916188
      9          1           0       -1.501166    1.692094   -0.916188
 ---------------------------------------------------------------------

 SCF Done:  E(RB3LYP) =  -192.691763165     A.U. after   16 cycles

 The electronic state is 1-A'.
 Alpha  occ. eigenvalues --  -10.24395 -10.22380 -10.22307 -10.21715 -10.18920
 Alpha  occ. eigenvalues --   -0.89764  -0.81507  -0.63213  -0.61075  -0.53410
 Alpha  occ. eigenvalues --   -0.47927  -0.47739  -0.39493  -0.38477  -0.35143
 Alpha  occ. eigenvalues --   -0.24536  -0.21283
 Alpha virt. eigenvalues --   -0.14473  -0.05130  -0.00668   0.00853   0.01449
 Alpha virt. eigenvalues --    0.02358   0.04944   0.05591   0.05844   0.07267
 Alpha virt. eigenvalues --    0.07364   0.08546   0.09862   0.09992   0.10571

 Mulliken charges:
               1
     1  C   -0.255773
     2  H    0.203099
     3  C   -0.462753
     4  H    0.237684
     5  C    0.485492
     6  C   -0.076424
     7  C   -0.448500
     8  H    0.158587
     9  H    0.158587
 Sum of Mulliken charges =  -0.00000

 Dipole moment (field-independent basis, Debye):
    X=             -1.9386    Y=             -0.4280    Z=              0.0000  Tot=              1.9853
 Quadrupole moment (field-independent basis, Debye-Ang):
   XX=            -26.6551   YY=            -33.6772   ZZ=            -31.3595
   XY=             -3.2463   XZ=             -0.0000   YZ=              0.0000

  Exact polarizability:  63.507 -21.560 133.790   0.000  -0.000  43.141
 Approx polarizability: 123.872-121.958 626.532  -0.000  -0.000  61.181

 ******    1 imaginary frequencies (negative Signs) ******

                      1                      2                      3
                     A"                     A"                     A'
 Frequencies --   -184.3075               239.6693               252.5693
 Red. masses --      2.3239                 1.2774                 3.3651
 Frc consts  --      0.0465                 0.0432                 0.1265
 IR Inten    --      2.1487                88.9053                73.0800

                      4                      5                      6
                     A'                     A"                     A'
 Frequencies --    314.4902               335.3314               437.2882
 Red. masses --      5.9327                 2.7306                 2.3845
 Frc consts  --      0.3457                 0.1809                 0.2686
 IR Inten    --    215.4079                 6.1265               801.3979

                      7                      8                      9
                     A"                     A'                     A"
 Frequencies --    755.5513               776.5835               912.5794
 Red. masses --      1.9769                 1.9802                 1.1029
 Frc consts  --      0.6649                 0.7036                 0.5411
 IR Inten    --      0.2995               121.0927                46.9572

                     10                     11                     12
                     A'                     A'                     A"
 Frequencies --    928.9122              1061.0178              1078.9660
 Red. masses --      5.9948                 1.7002                 1.2735
 Frc consts  --      3.0477                 1.1277                 0.8735
 IR Inten    --    107.1268                37.0934                 0.1129

                     13                     14                     15
                     A'                     A'                     A'
 Frequencies --   1127.0414              1281.1493              1514.9495
 Red. masses --      2.6585                 1.1949                 1.1342
 Frc consts  --      1.9896                 1.1555                 1.5337
 IR Inten    --     15.3541                 0.1764                 9.1242

                     16                     17                     18
                     A'                     A'                     A'
 Frequencies --   1574.6649              1774.7576              3029.3279
 Red. masses --      6.3260                 8.4868                 1.0472
 Frc consts  --      9.2418                15.7497                 5.6618
 IR Inten    --      7.7360                51.5301                50.1717

                     19                     20                     21
                     A"                     A'                     A'
 Frequencies --   3100.7159              3165.9938              3267.1781
 Red. masses --      1.1182                 1.0940                 1.1056
 Frc consts  --      6.3341                 6.4608                 6.9531
 IR Inten    --     19.2201                10.3406                17.4968

 - Thermochemistry -
 -------------------
 Temperature   298.150 Kelvin.  Pressure   1.00000 Atm.
 Atom     1 has atomic number  6 and mass  12.00000

 Molecular mass:    64.03130 amu.
 Principal axes and moments of inertia in atomic units:
                           1         2         3
     Eigenvalues --    92.17108 469.53904 549.62608
           X           -0.33520   0.94215   0.00000
           Y            0.94215   0.33520   0.00000
           Z            0.00000   0.00000   1.00000
 This molecule is an asymmetric top.
 Rotational symmetry number  1.
 Rotational temperatures (Kelvin)      0.93971     0.18447     0.15759
 Rotational constants (GHZ):          19.58034     3.84364     3.28358
    1 imaginary frequencies ignored.
 Zero-point vibrational energy     161069.6 (Joules/Mol)
                                   38.49656 (Kcal/Mol)
 Warning -- explicit consideration of   5 degrees of freedom as
           vibrations may cause significant error
 Vibrational temperatures:    344.83   363.39   452.48   482.47   629.16
          (Kelvin)           1087.07  1117.33  1313.00  1336.50  1526.57
                             1552.39  1621.56  1843.29  2179.67  2265.59
                             2553.48  4358.52  4461.23  4555.15  4700.73

 Zero-point correction=                           0.061348 (Hartree/Particle)
 Thermal correction to Energy=                    0.066598
 Thermal correction to Enthalpy=                  0.067542
 Thermal correction to Gibbs Free Energy=         0.033819
 Sum of electronic and zero-point Energies=           -192.630415
 Sum of electronic and thermal Energies=              -192.625165
 Sum of electronic and thermal Enthalpies=            -192.624221
 Sum of electronic and thermal Free Energies=         -192.657944

                     E (Thermal)             CV                S
                      KCal/Mol        Cal/Mol-Kelvin    Cal/Mol-Kelvin
 Total                   41.791             17.687             70.975
 Electronic               0.000              0.000              0.000
 Translational            0.889              2.981             38.389
 Rotational               0.889              2.981             24.679
 Vibrational             40.013             11.725              7.907
 Vibration     1          0.657              1.780              1.805
 Vibration     2          0.664              1.758              1.713
 Vibration     3          0.702              1.646              1.339
 Vibration     4          0.716              1.605              1.234
 Vibration     5          0.798              1.389              0.835

 Normal termination of Gaussian 09 at Mon Jun 20 11:22:42 2016.
