 Gaussian 09, Revision E.01,
 Gaussian 09:  EM64L-G09RevE.01 30-Nov-2015

 ---------------------------------------------
 #p b3lyp/6-311++G(3df,2p) freq symmetry=Loose
 ---------------------------------------------

 ---------
 b3lyp opt
 ---------
 Symbolic Z-matrix:
 Charge =  1 Multiplicity = 2

                         Standard orientation:
 ---------------------------------------------------------------------
 Center     Atomic      Atomic             Coordinates (Angstroms)
 Number     Number       Type             X           Y           Z
 ---------------------------------------------------------------------
      1          6           0        0.662163   -0.781126   -0.001058
      2          6           0       -0.497886    0.008948   -0.006762
      3          6           0        0.662211    0.783650   -0.000744
      4          6           0       -1.952497    0.000133   -0.000108
      5          1           0       -2.335756    0.996811   -0.208507
      6          1           0       -2.325241   -0.709688   -0.741680
      7          1           0       -2.317815   -0.326090    0.979858
      8          6           0        1.808637   -0.004457    0.002988
      9          1           0        2.883042   -0.003922    0.004435
 ---------------------------------------------------------------------

 SCF Done:  E(UB3LYP) =  -192.490408241     A.U. after   14 cycles

 The electronic state is 2-A.
 Alpha  occ. eigenvalues --  -10.52569 -10.52536 -10.50870 -10.49832 -10.39383
 Alpha  occ. eigenvalues --   -1.26783  -1.02335  -0.93336  -0.81280  -0.77975
 Alpha  occ. eigenvalues --   -0.71051  -0.69713  -0.68545  -0.62782  -0.60687
 Alpha  occ. eigenvalues --   -0.54886  -0.47451
 Alpha virt. eigenvalues --   -0.32179  -0.27663  -0.20265  -0.15000  -0.14013
 Alpha virt. eigenvalues --   -0.11350  -0.10974  -0.10635  -0.08711  -0.08326
 Alpha virt. eigenvalues --   -0.07356  -0.06857  -0.06009  -0.04710  -0.03546

  Beta  occ. eigenvalues --  -10.52719 -10.52680 -10.49985 -10.48866 -10.39411
  Beta  occ. eigenvalues --   -1.25894  -1.00620  -0.92212  -0.81104  -0.76927
  Beta  occ. eigenvalues --   -0.69114  -0.68088  -0.67919  -0.61355  -0.60483
  Beta  occ. eigenvalues --   -0.55119
  Beta virt. eigenvalues --   -0.35602  -0.32660  -0.27150  -0.16139  -0.14829
  Beta virt. eigenvalues --   -0.13527  -0.11348  -0.10802  -0.10233  -0.08676
  Beta virt. eigenvalues --   -0.08012  -0.06855  -0.06619  -0.05860  -0.04624

 Mulliken charges and spin densities:
               1          2
     1  C    0.568131  -0.114124
     2  C    0.000678   0.565946
     3  C    0.594572  -0.118825
     4  C   -0.660131  -0.023389
     5  H    0.197091   0.001876
     6  H    0.200664   0.025301
     7  H    0.205763   0.043413
     8  C   -0.439947   0.639682
     9  H    0.333180  -0.019881
 Sum of Mulliken charges =   1.00000   1.00000

 Dipole moment (field-independent basis, Debye):
    X=              0.8900    Y=             -0.0353    Z=              0.0319  Tot=              0.8913
 Quadrupole moment (field-independent basis, Debye-Ang):
   XX=             -7.6757   YY=            -26.8592   ZZ=            -26.2706
   XY=              0.0740   XZ=             -0.0548   YZ=             -0.0012

  Exact polarizability:  67.383   0.435  42.760  -0.290  -0.001  30.839
 Approx polarizability:  99.412   1.050  92.182  -0.501   0.002  46.742

 ******    1 imaginary frequencies (negative Signs) ******

                      1                      2                      3
                      A                      A                      A
 Frequencies --    -11.8994               214.5211               324.6386
 Red. masses --      1.2104                 3.5238                 3.0105
 Frc consts  --      0.0001                 0.0955                 0.1869
 IR Inten    --      0.3874                 2.9475                 2.8974

                      4                      5                      6
                      A                      A                      A
 Frequencies --    450.7169               532.6842               623.8038
 Red. masses --      1.2705                 4.8164                 5.9838
 Frc consts  --      0.1521                 0.8052                 1.3719
 IR Inten    --     35.5410                 0.0002                19.0254

                      7                      8                      9
                      A                      A                      A
 Frequencies --    703.4654               773.7643               953.3392
 Red. masses --      5.0725                 6.4188                 6.5872
 Frc consts  --      1.4790                 2.2642                 3.5273
 IR Inten    --      1.1628                27.6701                 3.4695

                     10                     11                     12
                      A                      A                      A
 Frequencies --    993.0628              1035.8725              1068.8615
 Red. masses --      1.4220                 1.2408                 1.5447
 Frc consts  --      0.8262                 0.7845                 1.0397
 IR Inten    --      4.4418                 9.2781                12.8158

                     13                     14                     15
                      A                      A                      A
 Frequencies --   1392.6739              1411.1080              1436.8168
 Red. masses --      1.3281                 3.9046                 1.0415
 Frc consts  --      1.5177                 4.5809                 1.2669
 IR Inten    --     30.0298                 1.7197                16.7785

                     16                     17                     18
                      A                      A                      A
 Frequencies --   1447.1096              1588.9909              3009.3753
 Red. masses --      1.0635                10.6116                 1.0422
 Frc consts  --      1.3122                15.7861                 5.5609
 IR Inten    --     15.1943                63.0371                42.1575

                     19                     20                     21
                      A                      A                      A
 Frequencies --   3071.6340              3134.5028              3309.0616
 Red. masses --      1.0915                 1.1008                 1.1126
 Frc consts  --      6.0676                 6.3720                 7.1776
 IR Inten    --      9.7122                 7.0359               150.5448

 - Thermochemistry -
 -------------------
 Temperature   298.150 Kelvin.  Pressure   1.00000 Atm.
 Atom     1 has atomic number  6 and mass  12.00000

 Molecular mass:    64.03130 amu.
 Principal axes and moments of inertia in atomic units:
                           1         2         3
     Eigenvalues --    63.83278 444.76493 497.40955
           X            1.00000   0.00064  -0.00040
           Y           -0.00064   1.00000  -0.00007
           Z            0.00040   0.00007   1.00000
 This molecule is an asymmetric top.
 Rotational symmetry number  1.
 Rotational temperatures (Kelvin)      1.35689     0.19474     0.17413
 Rotational constants (GHZ):          28.27295     4.05774     3.62828
    1 imaginary frequencies ignored.
 Zero-point vibrational energy     164343.0 (Joules/Mol)
                                   39.27892 (Kcal/Mol)
 Warning -- explicit consideration of   4 degrees of freedom as
           vibrations may cause significant error
 Vibrational temperatures:    308.65   467.08   648.48   766.41   897.51
          (Kelvin)           1012.13  1113.27  1371.64  1428.79  1490.39
                             1537.85  2003.74  2030.27  2067.26  2082.07
                             2286.20  4329.81  4419.39  4509.84  4761.00

 Zero-point correction=                           0.062595 (Hartree/Particle)
 Thermal correction to Energy=                    0.067338
 Thermal correction to Enthalpy=                  0.068282
 Thermal correction to Gibbs Free Energy=         0.035037
 Sum of electronic and zero-point Energies=           -192.427813
 Sum of electronic and thermal Energies=              -192.423070
 Sum of electronic and thermal Enthalpies=            -192.422126
 Sum of electronic and thermal Free Energies=         -192.455371

                     E (Thermal)             CV                S
                      KCal/Mol        Cal/Mol-Kelvin    Cal/Mol-Kelvin
 Total                   42.255             16.355             69.971
 Electronic               0.000              0.000              1.377
 Translational            0.889              2.981             38.389
 Rotational               0.889              2.981             24.161
 Vibrational             40.478             10.394              6.043
 Vibration     1          0.644              1.819              2.005
 Vibration     2          0.709              1.626              1.287
 Vibration     3          0.809              1.359              0.794
 Vibration     4          0.888              1.178              0.581

 Normal termination of Gaussian 09 at Mon Jun 20 11:38:41 2016.
