 Gaussian 09, Revision E.01,
 Gaussian 09:  EM64L-G09RevE.01 30-Nov-2015

 ---------------------------------------------
 #p b3lyp/6-311++G(3df,2p) freq symmetry=Loose
 ---------------------------------------------

 ---------
 b3lyp opt
 ---------
 Symbolic Z-matrix:
 Charge =  2 Multiplicity = 3

                         Standard orientation:
 ---------------------------------------------------------------------
 Center     Atomic      Atomic             Coordinates (Angstroms)
 Number     Number       Type             X           Y           Z
 ---------------------------------------------------------------------
      1          6           0       -2.415145   -0.302494    0.000000
      2          6           0       -1.254470    0.164728    0.000000
      3          6           0        1.688899   -1.298399    0.000000
      4          6           0        1.309884    0.004975    0.000000
      5          1           0        2.015278    0.205863    0.886245
      6          1           0        2.015278    0.205863   -0.886245
      7          6           0        0.000000    0.847674    0.000000
      8          1           0       -0.002780    1.544683    0.862223
      9          1           0       -0.002780    1.544683   -0.862223
 ---------------------------------------------------------------------

 SCF Done:  E(UB3LYP) =  -191.749425818     A.U. after   25 cycles

 The electronic state is 3-A".
 Alpha  occ. eigenvalues --  -10.77439 -10.76904 -10.72740 -10.68928 -10.67575
 Alpha  occ. eigenvalues --   -1.32388  -1.28843  -1.20530  -1.01673  -0.94544
 Alpha  occ. eigenvalues --   -0.93300  -0.90917  -0.87570  -0.86302  -0.79230
 Alpha  occ. eigenvalues --   -0.78171  -0.75661
 Alpha virt. eigenvalues --   -0.56137  -0.53391  -0.46724  -0.45506  -0.35562
 Alpha virt. eigenvalues --   -0.33085  -0.31077  -0.27435  -0.26144  -0.26124
 Alpha virt. eigenvalues --   -0.24941  -0.24041  -0.22258  -0.21056  -0.19055

  Beta  occ. eigenvalues --  -10.77438 -10.73649 -10.72063 -10.68851 -10.67602
  Beta  occ. eigenvalues --   -1.31865  -1.25792  -1.17733  -1.01029  -0.93935
  Beta  occ. eigenvalues --   -0.92892  -0.90255  -0.85645  -0.76492  -0.74837
  Beta virt. eigenvalues --   -0.64921  -0.62296  -0.56042  -0.53232  -0.42241
  Beta virt. eigenvalues --   -0.38690  -0.35391  -0.32396  -0.30640  -0.27213
  Beta virt. eigenvalues --   -0.25895  -0.25804  -0.24864  -0.23590  -0.21656

 Mulliken charges and spin densities:
               1          2
     1  C    0.391063   1.492822
     2  C    0.734731   0.368257
     3  C    0.010399  -0.003730
     4  C    0.167129  -0.001033
     5  H    0.301927   0.000090
     6  H    0.301927   0.000090
     7  C   -0.470323   0.068926
     8  H    0.281573   0.037290
     9  H    0.281573   0.037290
 Sum of Mulliken charges =   2.00000   2.00000

 Dipole moment (field-independent basis, Debye):
    X=              0.1822    Y=              1.2431    Z=             -0.0000  Tot=              1.2564
 Quadrupole moment (field-independent basis, Debye-Ang):
   XX=              6.3905   YY=            -19.2031   ZZ=            -20.7047
   XY=              1.3579   XZ=             -0.0000   YZ=             -0.0000

  Exact polarizability:  60.923   1.399  43.612   0.000  -0.000  32.101
 Approx polarizability:  90.586  11.075  70.711  -0.000  -0.000  50.267

 ******    1 imaginary frequencies (negative Signs) ******

                      1                      2                      3
                     A"                     A'                     A"
 Frequencies --   -128.1022               143.5274               225.9586
 Red. masses --      1.3613                10.7593                 2.0281
 Frc consts  --      0.0132                 0.1306                 0.0610
 IR Inten    --      5.6475                 5.0893                 2.1674

                      4                      5                      6
                     A'                     A"                     A'
 Frequencies --    234.7134               333.3370               461.7243
 Red. masses --      5.8714                 2.6666                 5.7489
 Frc consts  --      0.1906                 0.1746                 0.7221
 IR Inten    --      4.4723                15.2144                 8.4409

                      7                      8                      9
                     A"                     A'                     A'
 Frequencies --    710.0373               763.4926               799.0723
 Red. masses --      1.9034                 7.1622                 1.6747
 Frc consts  --      0.5654                 2.4598                 0.6300
 IR Inten    --     14.5112                13.8388                 8.8968

                     10                     11                     12
                     A"                     A'                     A"
 Frequencies --    934.9204               999.7828              1169.8599
 Red. masses --      1.1518                 2.0215                 1.0792
 Frc consts  --      0.5932                 1.1905                 0.8702
 IR Inten    --      0.7094                 8.4590                 1.0208

                     13                     14                     15
                     A'                     A'                     A'
 Frequencies --   1231.4749              1286.8534              1299.8913
 Red. masses --      1.0700                 1.0703                 1.5189
 Frc consts  --      0.9561                 1.0442                 1.5121
 IR Inten    --     37.9863               105.1174                18.8550

                     16                     17                     18
                     A'                     A'                     A"
 Frequencies --   1550.1892              2049.2934              2613.5586
 Red. masses --      5.3921                11.8748                 1.0830
 Frc consts  --      7.6344                29.3823                 4.3585
 IR Inten    --    263.7790                 0.8678               188.1996

                     19                     20                     21
                     A'                     A"                     A'
 Frequencies --   2618.8553              2881.6865              2901.7416
 Red. masses --      1.0572                 1.0857                 1.0608
 Frc consts  --      4.2722                 5.3117                 5.2626
 IR Inten    --    204.6082               129.8447               216.5928

 - Thermochemistry -
 -------------------
 Temperature   298.150 Kelvin.  Pressure   1.00000 Atm.
 Atom     1 has atomic number  6 and mass  12.00000

 Molecular mass:    64.03130 amu.
 Principal axes and moments of inertia in atomic units:
                           1         2         3
     Eigenvalues --   124.78170 563.65211 666.42430
           X            0.98722   0.15939   0.00000
           Y           -0.15939   0.98722   0.00000
           Z           -0.00000  -0.00000   1.00000
 This molecule is an asymmetric top.
 Rotational symmetry number  1.
 Rotational temperatures (Kelvin)      0.69412     0.15367     0.12997
 Rotational constants (GHZ):          14.46319     3.20187     2.70810
    1 imaginary frequencies ignored.
 Zero-point vibrational energy     150789.1 (Joules/Mol)
                                   36.03946 (Kcal/Mol)
 Warning -- explicit consideration of   5 degrees of freedom as
           vibrations may cause significant error
 Vibrational temperatures:    206.50   325.10   337.70   479.60   664.32
          (Kelvin)           1021.58  1098.49  1149.69  1345.14  1438.46
                             1683.17  1771.82  1851.49  1870.25  2230.37
                             2948.47  3760.32  3767.94  4146.10  4174.95

 Zero-point correction=                           0.057433 (Hartree/Particle)
 Thermal correction to Energy=                    0.063006
 Thermal correction to Enthalpy=                  0.063950
 Thermal correction to Gibbs Free Energy=         0.028055
 Sum of electronic and zero-point Energies=           -191.691993
 Sum of electronic and thermal Energies=              -191.686420
 Sum of electronic and thermal Enthalpies=            -191.685476
 Sum of electronic and thermal Free Energies=         -191.721371

                     E (Thermal)             CV                S
                      KCal/Mol        Cal/Mol-Kelvin    Cal/Mol-Kelvin
 Total                   39.537             18.200             75.547
 Electronic               0.000              0.000              2.183
 Translational            0.889              2.981             38.389
 Rotational               0.889              2.981             25.353
 Vibrational             37.759             12.238              9.622
 Vibration     1          0.616              1.910              2.756
 Vibration     2          0.650              1.801              1.911
 Vibration     3          0.655              1.788              1.843
 Vibration     4          0.715              1.609              1.244
 Vibration     5          0.819              1.335              0.761

 Optimization completed.
    -- Stationary point found.
 Normal termination of Gaussian 09 at Mon Jun 20 11:51:25 2016.
