 Gaussian 09, Revision E.01,
 Gaussian 09:  EM64L-G09RevE.01 30-Nov-2015

 ---------------------------------------------
 #p b3lyp/6-311++G(3df,2p) freq symmetry=Loose
 ---------------------------------------------

 ---------
 b3lyp opt
 ---------
 Symbolic Z-matrix:
 Charge =  1 Multiplicity = 1

                         Standard orientation:
 ---------------------------------------------------------------------
 Center     Atomic      Atomic             Coordinates (Angstroms)
 Number     Number       Type             X           Y           Z
 ---------------------------------------------------------------------
      1          1           0        0.000000    0.000000   -1.648855
      2          6           0        0.000000    0.000000   -0.555195
      3          6           0        0.000000    0.000000    0.830004
 ---------------------------------------------------------------------

 SCF Done:  E(RB3LYP) =  -76.1522419224     A.U. after    9 cycles

 Unable to determine electronic state:  partially filled degenerate orbitals.
 Alpha  occ. eigenvalues --  -10.65847 -10.63894  -1.13232  -0.91580  -0.64944
 Alpha  occ. eigenvalues --   -0.64627
 Alpha virt. eigenvalues --   -0.58334  -0.35211  -0.35021  -0.22157  -0.17436
 Alpha virt. eigenvalues --   -0.12003  -0.11782  -0.08223  -0.06491  -0.05111
 Alpha virt. eigenvalues --   -0.04786  -0.01873   0.02106   0.02227   0.02638

 Mulliken charges:
               1
     1  H    0.407810
     2  C    0.487319
     3  C    0.104871
 Sum of Mulliken charges =   1.00000

 Dipole moment (field-independent basis, Debye):
    X=              0.0000    Y=              0.0000    Z=             -2.8366  Tot=              2.8366
 Quadrupole moment (field-independent basis, Debye-Ang):
   XX=             -7.7919   YY=            -11.1706   ZZ=             -5.7711
   XY=              0.0000   XZ=              0.0000   YZ=              0.0000

  Exact polarizability:  17.518  -0.000  13.529  -0.000   0.000  22.657
 Approx polarizability:  22.345  -0.000  17.782  -0.000  -0.000  37.865

 ******    1 imaginary frequencies (negative Signs) ******

                      1                      2                      3
                     PI                     PI                     SG
 Frequencies --   -974.0077               470.2578              1390.4706
 Red. masses --      1.2967                 1.2967                 7.0904
 Frc consts  --      0.7248                 0.1689                 8.0769
 IR Inten    --    332.1269                99.7002                31.2277

                      4
                     SG
 Frequencies --   3139.6711
 Red. masses --      1.1137
 Frc consts  --      6.4683
 IR Inten    --    257.6478

 - Thermochemistry -
 -------------------
 Temperature   298.150 Kelvin.  Pressure   1.00000 Atm.
 Atom     1 has atomic number  1 and mass   1.00783

 Molecular mass:    25.00783 amu.
 Principal axes and moments of inertia in atomic units:
                           1         2         3
     Eigenvalues --     0.00000  52.13310  52.13310
           X            0.00000  -0.00000   1.00000
           Y            0.00000   1.00000   0.00000
           Z            1.00000   0.00000   0.00000
 This molecule is a prolate symmetric top.
 Rotational symmetry number  1.
 Rotational temperature (Kelvin)      1.66140
 Rotational constant (GHZ):          34.617953
    1 imaginary frequencies ignored.
 Zero-point vibrational energy      29909.0 (Joules/Mol)
                                    7.14843 (Kcal/Mol)
 Warning -- explicit consideration of   1 degrees of freedom as
           vibrations may cause significant error
 Vibrational temperatures:    676.60  2000.57  4517.28
          (Kelvin)

 Zero-point correction=                           0.011392 (Hartree/Particle)
 Thermal correction to Energy=                    0.014007
 Thermal correction to Enthalpy=                  0.014951
 Thermal correction to Gibbs Free Energy=        -0.008161
 Sum of electronic and zero-point Energies=            -76.140850
 Sum of electronic and thermal Energies=               -76.138235
 Sum of electronic and thermal Enthalpies=             -76.137291
 Sum of electronic and thermal Free Energies=          -76.160403

                     E (Thermal)             CV                S
                      KCal/Mol        Cal/Mol-Kelvin    Cal/Mol-Kelvin
 Total                    8.790              6.393             48.643
 Electronic               0.000              0.000              0.000
 Translational            0.889              2.981             35.587
 Rotational               0.592              1.987             12.301
 Vibrational              7.308              1.425              0.756
 Vibration     1          0.827              1.316              0.737

 Optimization completed.
    -- Stationary point found.
 Normal termination of Gaussian 09 at Mon Jun 20 11:59:58 2016.
