 Gaussian 09, Revision E.01,
 Gaussian 09:  EM64L-G09RevE.01 30-Nov-2015

 ---------------------------------------------
 #p b3lyp/6-311++G(3df,2p) freq symmetry=Loose
 ---------------------------------------------

 ---------
 b3lyp opt
 ---------
 Symbolic Z-matrix:
 Charge =  0 Multiplicity = 4

                         Standard orientation:
 ---------------------------------------------------------------------
 Center     Atomic      Atomic             Coordinates (Angstroms)
 Number     Number       Type             X           Y           Z
 ---------------------------------------------------------------------
      1          1           0        0.000000    0.000000   -1.692080
      2          6           0        0.000000    0.000000   -0.615121
      3          6           0        0.000000    0.000000    0.897135
 ---------------------------------------------------------------------

 SCF Done:  E(UB3LYP) =  -76.4751425673     A.U. after   11 cycles

 Unable to determine electronic state:  an orbital has unidentified symmetry.
 Alpha  occ. eigenvalues --  -10.27611 -10.25839  -0.77745  -0.60019  -0.35510
 Alpha  occ. eigenvalues --   -0.34155  -0.33579  -0.17107
 Alpha virt. eigenvalues --   -0.08522  -0.00941   0.01983   0.05815   0.05816
 Alpha virt. eigenvalues --    0.08300   0.09992   0.10309   0.10909   0.14456
 Alpha virt. eigenvalues --    0.17403   0.26818   0.26856   0.31965   0.35376

  Beta  occ. eigenvalues --  -10.25052 -10.23983  -0.69185  -0.55796  -0.30110
  Beta virt. eigenvalues --   -0.18880  -0.16498  -0.01878  -0.00485   0.00500
  Beta virt. eigenvalues --    0.03560   0.07010   0.07498   0.08576   0.11094
  Beta virt. eigenvalues --    0.11919   0.12677   0.15177   0.19121   0.29954

 Mulliken charges and spin densities:
               1          2
     1  H    0.301912  -0.037944
     2  C   -0.019160   1.794304
     3  C   -0.282751   1.243640
 Sum of Mulliken charges =   0.00000   3.00000

 Dipole moment (field-independent basis, Debye):
    X=              0.0000    Y=              0.0000    Z=             -2.9016  Tot=              2.9016
 Quadrupole moment (field-independent basis, Debye-Ang):
   XX=            -13.8128   YY=            -11.9372   ZZ=            -13.5854
   XY=              0.0000   XZ=              0.0000   YZ=              0.0000

  Exact polarizability:  23.141   0.000  21.561  -0.000  -0.000  35.886
 Approx polarizability:  25.738  -0.000  27.668  -0.000  -0.000  46.010

 ******    2 imaginary frequencies (negative Signs) ******

                      1                      2                      3
                     PI                     PI                     SG
 Frequencies --  -1048.1499              -564.0477              1063.2008
 Red. masses --      1.2681                 1.2681                 7.6341
 Frc consts  --      0.8208                 0.2377                 5.0844
 IR Inten    --     20.8638                 4.0184                71.6052

                      4
                     SG
 Frequencies --   3270.9712
 Red. masses --      1.1014
 Frc consts  --      6.9429
 IR Inten    --     21.9677

 - Thermochemistry -
 -------------------
 Temperature   298.150 Kelvin.  Pressure   1.00000 Atm.
 Atom     1 has atomic number  1 and mass   1.00783

 Molecular mass:    25.00783 amu.
 Principal axes and moments of inertia in atomic units:
                           1         2         3
     Eigenvalues --     0.00000  60.60645  60.60645
           X            0.00000  -0.00000   1.00000
           Y            0.00000   1.00000   0.00000
           Z            1.00000   0.00000   0.00000
 This molecule is a prolate symmetric top.
 Rotational symmetry number  1.
 Rotational temperature (Kelvin)      1.42912
 Rotational constant (GHZ):          29.778040
    2 imaginary frequencies ignored.
 Zero-point vibrational energy      25924.1 (Joules/Mol)
                                    6.19601 (Kcal/Mol)
 Vibrational temperatures:   1529.71  4706.19
          (Kelvin)

 Zero-point correction=                           0.009874 (Hartree/Particle)
 Thermal correction to Energy=                    0.012263
 Thermal correction to Enthalpy=                  0.013207
 Thermal correction to Gibbs Free Energy=        -0.011031
 Sum of electronic and zero-point Energies=            -76.465269
 Sum of electronic and thermal Energies=               -76.462879
 Sum of electronic and thermal Enthalpies=             -76.461935
 Sum of electronic and thermal Free Energies=          -76.486174

                     E (Thermal)             CV                S
                      KCal/Mol        Cal/Mol-Kelvin    Cal/Mol-Kelvin
 Total                    7.695              5.281             51.014
 Electronic               0.000              0.000              2.755
 Translational            0.889              2.981             35.587
 Rotational               0.592              1.987             12.600
 Vibrational              6.214              0.313              0.072

 Optimization completed.
    -- Stationary point found.
 Normal termination of Gaussian 09 at Mon Jun 20 11:51:59 2016.
