 Gaussian 09, Revision E.01,
 Gaussian 09:  EM64L-G09RevE.01 30-Nov-2015

 ---------------------------------------------
 #p b3lyp/6-311++G(3df,2p) freq symmetry=Loose
 ---------------------------------------------

 ---------
 b3lyp opt
 ---------
 Symbolic Z-matrix:
 Charge =  2 Multiplicity = 2

                         Standard orientation:
 ---------------------------------------------------------------------
 Center     Atomic      Atomic             Coordinates (Angstroms)
 Number     Number       Type             X           Y           Z
 ---------------------------------------------------------------------
      1          1           0        0.000000   -0.000000    1.196138
      2          6           0        0.000000    0.689502   -0.099678
      3          6           0       -0.000000   -0.689502   -0.099678
 ---------------------------------------------------------------------

 SCF Done:  E(UB3LYP) =  -75.3338467696     A.U. after   13 cycles

 The electronic state is 2-B1.
 Alpha  occ. eigenvalues --  -11.11555 -11.11509  -1.56060  -1.13058  -1.11420
 Alpha  occ. eigenvalues --   -1.06211
 Alpha virt. eigenvalues --   -0.95216  -0.75649  -0.74336  -0.61358  -0.36030
 Alpha virt. eigenvalues --   -0.35289  -0.32492  -0.31603  -0.28539  -0.27584
 Alpha virt. eigenvalues --   -0.26863  -0.22950  -0.22578  -0.21181  -0.13933

  Beta  occ. eigenvalues --  -11.10664 -11.10626  -1.52281  -1.10507  -1.10333
  Beta virt. eigenvalues --   -0.94049  -0.90623  -0.73091  -0.67295  -0.61008
  Beta virt. eigenvalues --   -0.34675  -0.34306  -0.31576  -0.31427  -0.28348
  Beta virt. eigenvalues --   -0.26530  -0.26315  -0.22906  -0.22028  -0.21124

 Mulliken charges and spin densities:
               1          2
     1  H    0.400389  -0.014541
     2  C    0.799805   0.507271
     3  C    0.799805   0.507271
 Sum of Mulliken charges =   2.00000   1.00000

 Dipole moment (field-independent basis, Debye):
    X=             -0.0000    Y=             -0.0000    Z=              1.1968  Tot=              1.1968
 Quadrupole moment (field-independent basis, Debye-Ang):
   XX=             -7.7311   YY=             -1.4089   ZZ=             -4.6759
   XY=              0.0000   XZ=              0.0000   YZ=             -0.0000

  Exact polarizability: 114.428   0.000  23.623   0.000  -0.000  15.033
 Approx polarizability:  15.562   0.000 101.061   0.000  -0.000  22.208

 ******    1 imaginary frequencies (negative Signs) ******

                      1                      2                      3
                     B2                     A1                     A1
 Frequencies --   -855.8061              1365.2876              1577.1282
 Red. masses --      1.1808                 8.7177                 1.0820
 Frc consts  --      0.5095                 9.5741                 1.5856
 IR Inten    --     16.5250                 7.0831               253.7787

 - Thermochemistry -
 -------------------
 Temperature   298.150 Kelvin.  Pressure   1.00000 Atm.
 Atom     1 has atomic number  1 and mass   1.00783

 Molecular mass:    25.00783 amu.
 Principal axes and moments of inertia in atomic units:
                           1         2         3
     Eigenvalues --     5.79969  40.74554  46.54523
           X            0.00000   0.00000   1.00000
           Y            1.00000   0.00000  -0.00000
           Z            0.00000   1.00000   0.00000
 This molecule is an asymmetric top.
 Rotational symmetry number  2.
 Rotational temperatures (Kelvin)     14.93421     2.12573     1.86085
 Rotational constants (GHZ):         311.17884    44.29298    38.77393
    1 imaginary frequencies ignored.
 Zero-point vibrational energy      17599.6 (Joules/Mol)
                                    4.20639 (Kcal/Mol)
 Vibrational temperatures:   1964.34  2269.13
          (Kelvin)

 Zero-point correction=                           0.006703 (Hartree/Particle)
 Thermal correction to Energy=                    0.009548
 Thermal correction to Enthalpy=                  0.010492
 Thermal correction to Gibbs Free Energy=        -0.014531
 Sum of electronic and zero-point Energies=            -75.327143
 Sum of electronic and thermal Energies=               -75.324299
 Sum of electronic and thermal Enthalpies=             -75.323355
 Sum of electronic and thermal Free Energies=          -75.348377

                     E (Thermal)             CV                S
                      KCal/Mol        Cal/Mol-Kelvin    Cal/Mol-Kelvin
 Total                    5.991              6.138             52.665
 Electronic               0.000              0.000              1.377
 Translational            0.889              2.981             35.587
 Rotational               0.889              2.981             15.672
 Vibrational              4.214              0.176              0.029

 Optimization completed.
    -- Stationary point found.
 Normal termination of Gaussian 09 at Mon Jun 20 12:00:02 2016.
