 Gaussian 09, Revision E.01,
 Gaussian 09:  EM64L-G09RevE.01 30-Nov-2015

 ---------------------------------------------
 #p b3lyp/6-311++G(3df,2p) freq symmetry=Loose
 ---------------------------------------------

 ---------
 b3lyp opt
 ---------
 Symbolic Z-matrix:
 Charge =  0 Multiplicity = 2

                         Standard orientation:
 ---------------------------------------------------------------------
 Center     Atomic      Atomic             Coordinates (Angstroms)
 Number     Number       Type             X           Y           Z
 ---------------------------------------------------------------------
      1          6           0        0.000000    0.000000    1.423061
      2          6           0        0.000000    0.000000    0.092332
      3          6           0        0.000000    0.000000   -1.146893
      4          1           0        0.000000    0.000000   -2.210995
 ---------------------------------------------------------------------

 SCF Done:  E(UB3LYP) =  -114.719001831     A.U. after   15 cycles

 Unable to determine electronic state:  partially filled degenerate orbitals.
 Alpha  occ. eigenvalues --  -10.26090 -10.25097 -10.21169  -0.83177  -0.72106
 Alpha  occ. eigenvalues --   -0.58294  -0.38470  -0.36838  -0.32349  -0.23871
 Alpha virt. eigenvalues --   -0.15780  -0.01205   0.02859   0.03073   0.03296
 Alpha virt. eigenvalues --    0.06517   0.07716   0.08796   0.08912   0.09492
 Alpha virt. eigenvalues --    0.09767   0.11653   0.15739   0.15746   0.17934

  Beta  occ. eigenvalues --  -10.25300 -10.24109 -10.21438  -0.82120  -0.69629
  Beta  occ. eigenvalues --   -0.57546  -0.36563  -0.35071  -0.30612
  Beta virt. eigenvalues --   -0.14605  -0.11811  -0.01092   0.02965   0.03252
  Beta virt. eigenvalues --    0.03681   0.06705   0.09131   0.09134   0.09844
  Beta virt. eigenvalues --    0.10156   0.10555   0.11817   0.15711   0.16150

 Mulliken charges and spin densities:
               1          2
     1  C   -0.859310   0.633016
     2  C    0.402301  -0.150435
     3  C    0.121239   0.533464
     4  H    0.335770  -0.016045
 Sum of Mulliken charges =  -0.00000   1.00000

 Dipole moment (field-independent basis, Debye):
    X=              0.0000    Y=              0.0000    Z=             -3.7124  Tot=              3.7124
 Quadrupole moment (field-independent basis, Debye-Ang):
   XX=            -19.0371   YY=            -17.1541   ZZ=            -17.5935
   XY=              0.0000   XZ=              0.0000   YZ=              0.0000

  Exact polarizability:  25.921   0.000  24.389   0.000   0.000  56.868
 Approx polarizability:  33.166  -0.000  34.732  -0.000  -0.000 113.135

 ******    1 imaginary frequencies (negative Signs) ******

                      1                      2                      3
                     ?A                     ?A                     ?A
 Frequencies --   -192.0729               245.1866               379.7184
 Red. masses --      1.3741                 5.0096                 4.5844
 Frc consts  --      0.0299                 0.1774                 0.3895
 IR Inten    --     67.7087                 0.7682                 0.4210

                      4                      5                      6
                     ?A                     SG                     SG
 Frequencies --    830.7742              1177.1987              1905.4260
 Red. masses --      1.3400                 8.8226                 7.3335
 Frc consts  --      0.5449                 7.2036                15.6873
 IR Inten    --     13.8045                41.7125               152.9170

                      7
                     SG
 Frequencies --   3431.8244
 Red. masses --      1.1307
 Frc consts  --      7.8457
 IR Inten    --     61.0475

 - Thermochemistry -
 -------------------
 Temperature   298.150 Kelvin.  Pressure   1.00000 Atm.
 Atom     1 has atomic number  6 and mass  12.00000

 Molecular mass:    37.00783 amu.
 Principal axes and moments of inertia in atomic units:
                           1         2         3
     Eigenvalues --     0.00000 160.64297 160.64297
           X            0.00000  -0.00000   1.00000
           Y            0.00000   1.00000   0.00000
           Z            1.00000   0.00000   0.00000
 This molecule is a prolate symmetric top.
 Rotational symmetry number  1.
 Rotational temperature (Kelvin)      0.53917
 Rotational constant (GHZ):          11.234486
    1 imaginary frequencies ignored.
 Zero-point vibrational energy      47672.0 (Joules/Mol)
                                   11.39387 (Kcal/Mol)
 Warning -- explicit consideration of   2 degrees of freedom as
           vibrations may cause significant error
 Vibrational temperatures:    352.77   546.33  1195.30  1693.72  2741.48
          (Kelvin)           4937.62

 Zero-point correction=                           0.018157 (Hartree/Particle)
 Thermal correction to Energy=                    0.021430
 Thermal correction to Enthalpy=                  0.022374
 Thermal correction to Gibbs Free Energy=        -0.004094
 Sum of electronic and zero-point Energies=           -114.700845
 Sum of electronic and thermal Energies=              -114.697572
 Sum of electronic and thermal Enthalpies=            -114.696628
 Sum of electronic and thermal Free Energies=         -114.723095

                     E (Thermal)             CV                S
                      KCal/Mol        Cal/Mol-Kelvin    Cal/Mol-Kelvin
 Total                   13.447              9.091             55.706
 Electronic               0.000              0.000              1.377
 Translational            0.889              2.981             36.755
 Rotational               0.592              1.987             14.537
 Vibrational             11.966              4.123              3.036
 Vibration     1          0.660              1.771              1.765
 Vibration     2          0.750              1.513              1.040

 Optimization completed.
    -- Stationary point found.
 Normal termination of Gaussian 09 at Mon Jun 20 12:00:35 2016.
