 Gaussian 09, Revision E.01,
 Gaussian 09:  EM64L-G09RevE.01 30-Nov-2015

 ---------------------------------------------
 #p b3lyp/6-311++G(3df,2p) freq symmetry=Loose
 ---------------------------------------------

 ---------
 b3lyp opt
 ---------
 Symbolic Z-matrix:
 Charge =  2 Multiplicity = 2

                         Standard orientation:
 ---------------------------------------------------------------------
 Center     Atomic      Atomic             Coordinates (Angstroms)
 Number     Number       Type             X           Y           Z
 ---------------------------------------------------------------------
      1          1           0        0.000000   -0.000000    1.508100
      2          6           0        0.000000   -0.000000    0.355210
      3          6           0        0.000000    1.198609   -0.303280
      4          6           0       -0.000000   -1.198609   -0.303280
 ---------------------------------------------------------------------

 SCF Done:  E(UB3LYP) =  -113.563653204     A.U. after   13 cycles

 The electronic state is 2-B2.
 Alpha  occ. eigenvalues --  -11.00595 -11.00591 -10.85102  -1.47573  -1.30138
 Alpha  occ. eigenvalues --   -1.11362  -0.98993  -0.98084  -0.95884
 Alpha virt. eigenvalues --   -0.76023  -0.75576  -0.72678  -0.56397  -0.39039
 Alpha virt. eigenvalues --   -0.34546  -0.29949  -0.29598  -0.28706  -0.25359
 Alpha virt. eigenvalues --   -0.24199  -0.23953  -0.22523  -0.21674  -0.20409

  Beta  occ. eigenvalues --  -10.99560 -10.99557 -10.84841  -1.46431  -1.28152
  Beta  occ. eigenvalues --   -1.10058  -0.95336  -0.92439
  Beta virt. eigenvalues --   -0.83160  -0.74240  -0.73272  -0.72101  -0.55069
  Beta virt. eigenvalues --   -0.38633  -0.34161  -0.29881  -0.29577  -0.27984
  Beta virt. eigenvalues --   -0.24899  -0.24233  -0.23239  -0.21565  -0.20806

 Mulliken charges and spin densities:
               1          2
     1  H    0.311354  -0.008568
     2  C    0.578331  -0.008393
     3  C    0.555158   0.508480
     4  C    0.555158   0.508480
 Sum of Mulliken charges =   2.00000   1.00000

 Dipole moment (field-independent basis, Debye):
    X=             -0.0000    Y=             -0.0000    Z=              0.5548  Tot=              0.5548
 Quadrupole moment (field-independent basis, Debye-Ang):
   XX=            -13.1411   YY=             -1.8795   ZZ=             -6.6153
   XY=              0.0000   XZ=              0.0000   YZ=              0.0000

  Exact polarizability:  14.775   0.000 158.925   0.000   0.000  20.513
 Approx polarizability:  20.756   0.000 213.444   0.000   0.000  34.041

 ******    1 imaginary frequencies (negative Signs) ******

                      1                      2                      3
                     B2                     A1                     B1
 Frequencies --  -2324.7741               345.6112               505.9046
 Red. masses --     10.7480                 9.4267                 1.6708
 Frc consts  --     34.2247                 0.6634                 0.2519
 IR Inten    --  27073.3022                 1.2606                55.2018

                      4                      5                      6
                     B2                     A1                     A1
 Frequencies --    800.4099              1157.5025              2518.7851
 Red. masses --      1.1069                 9.9710                 1.0778
 Frc consts  --      0.4178                 7.8710                 4.0289
 IR Inten    --      2.6973                19.6123               729.9329

 - Thermochemistry -
 -------------------
 Temperature   298.150 Kelvin.  Pressure   1.00000 Atm.
 Atom     1 has atomic number  1 and mass   1.00783

 Molecular mass:    37.00783 amu.
 Principal axes and moments of inertia in atomic units:
                           1         2         3
     Eigenvalues --    21.25942 123.13005 144.38947
           X            0.00000   0.00000   1.00000
           Y            1.00000   0.00000  -0.00000
           Z            0.00000   1.00000   0.00000
 This molecule is an asymmetric top.
 Rotational symmetry number  2.
 Rotational temperatures (Kelvin)      4.07414     0.70343     0.59986
 Rotational constants (GHZ):          84.89136    14.65720    12.49912
    1 imaginary frequencies ignored.
 Zero-point vibrational energy      31869.8 (Joules/Mol)
                                    7.61706 (Kcal/Mol)
 Warning -- explicit consideration of   2 degrees of freedom as
           vibrations may cause significant error
 Vibrational temperatures:    497.26   727.88  1151.61  1665.39  3623.97
          (Kelvin)

 Zero-point correction=                           0.012139 (Hartree/Particle)
 Thermal correction to Energy=                    0.015655
 Thermal correction to Enthalpy=                  0.016599
 Thermal correction to Gibbs Free Energy=        -0.011625
 Sum of electronic and zero-point Energies=           -113.551515
 Sum of electronic and thermal Energies=              -113.547998
 Sum of electronic and thermal Enthalpies=            -113.547054
 Sum of electronic and thermal Free Energies=         -113.575279

                     E (Thermal)             CV                S
                      KCal/Mol        Cal/Mol-Kelvin    Cal/Mol-Kelvin
 Total                    9.824              9.669             59.404
 Electronic               0.000              0.000              1.377
 Translational            0.889              2.981             36.755
 Rotational               0.889              2.981             19.186
 Vibrational              8.046              3.707              2.086
 Vibration     1          0.724              1.584              1.186
 Vibration     2          0.861              1.237              0.644

 Optimization completed.
    -- Stationary point found.
 Normal termination of Gaussian 09 at Mon Jun 20 12:00:28 2016.
