 Gaussian 09, Revision E.01,
 Gaussian 09:  EM64L-G09RevE.01 30-Nov-2015

 ---------------------------------------------
 #p b3lyp/6-311++G(3df,2p) freq symmetry=Loose
 ---------------------------------------------

 ---------
 b3lyp opt
 ---------
 Symbolic Z-matrix:
 Charge =  2 Multiplicity = 2

                         Standard orientation:
 ---------------------------------------------------------------------
 Center     Atomic      Atomic             Coordinates (Angstroms)
 Number     Number       Type             X           Y           Z
 ---------------------------------------------------------------------
      1          1           0       -1.841488   -1.121212    0.000000
      2          6           0       -0.899969   -0.547598    0.000000
      3          6           0       -0.402156    0.811762    0.000000
      4          6           0        0.536347    0.326399    1.043417
      5          6           0        0.536347    0.326399   -1.043417
      6          6           0        0.536347   -0.730092   -0.000000
 ---------------------------------------------------------------------

 SCF Done:  E(UB3LYP) =  -189.753409256     A.U. after   18 cycles

 The electronic state is 2-A'.
 Alpha  occ. eigenvalues --  -10.88782 -10.88782 -10.86638 -10.86632 -10.84423
 Alpha  occ. eigenvalues --   -1.62818  -1.24801  -1.23302  -1.20518  -1.04300
 Alpha  occ. eigenvalues --   -0.96605  -0.96153  -0.92719  -0.87011  -0.85886
 Alpha virt. eigenvalues --   -0.67723  -0.66825  -0.66129  -0.57450  -0.37754
 Alpha virt. eigenvalues --   -0.36088  -0.35942  -0.35456  -0.34073  -0.31858
 Alpha virt. eigenvalues --   -0.30286  -0.25472  -0.24546  -0.24436  -0.23796

  Beta  occ. eigenvalues --  -10.88065 -10.88065 -10.85721 -10.85717 -10.84722
  Beta  occ. eigenvalues --   -1.62798  -1.23806  -1.23591  -1.18635  -1.04200
  Beta  occ. eigenvalues --   -0.95875  -0.95475  -0.87767  -0.84152
  Beta virt. eigenvalues --   -0.75054  -0.65947  -0.65383  -0.61016  -0.57315
  Beta virt. eigenvalues --   -0.36114  -0.35655  -0.35206  -0.34783  -0.32640
  Beta virt. eigenvalues --   -0.31157  -0.29883  -0.25297  -0.24395  -0.23982

 Mulliken charges and spin densities:
               1          2
     1  H    0.422334   0.004128
     2  C    0.245508  -0.151498
     3  C    0.617715   0.331029
     4  C    0.048148   0.242703
     5  C    0.048148   0.242703
     6  C    0.618148   0.330936
 Sum of Mulliken charges =   2.00000   1.00000

 Dipole moment (field-independent basis, Debye):
    X=             -1.4317    Y=             -0.8719    Z=             -0.0000  Tot=              1.6763
 Quadrupole moment (field-independent basis, Debye-Ang):
   XX=            -13.6156   YY=            -16.6691   ZZ=            -17.8112
   XY=              2.9533   XZ=             -0.0000   YZ=             -0.0000

  Exact polarizability:  37.657   1.937  35.652  -0.000  -0.000  44.657
 Approx polarizability:  85.278  -0.578  85.868  -0.000  -0.000 110.072

 ******    1 imaginary frequencies (negative Signs) ******

                      1                      2                      3
                     A"                     A'                     A'
 Frequencies --   -929.7916               363.8296               506.2927
 Red. masses --      7.6626                 8.4711                10.8013
 Frc consts  --      3.9030                 0.6607                 1.6313
 IR Inten    --    188.6842                19.5735                 4.8994

                      4                      5                      6
                     A"                     A'                     A"
 Frequencies --    509.1956               632.0907               671.5700
 Red. masses --     12.0000                11.0790                 2.8641
 Frc consts  --      1.8332                 2.6080                 0.7611
 IR Inten    --      0.0000                 0.1626                 0.7301

                      7                      8                      9
                     A"                     A'                     A'
 Frequencies --    798.3013               933.4376              1028.4868
 Red. masses --      1.7173                 2.1028                 2.1888
 Frc consts  --      0.6448                 1.0795                 1.3641
 IR Inten    --     26.3109                41.4399                 0.6219

                     10                     11                     12
                     A'                     A'                     A'
 Frequencies --   1122.3602              1327.5013              3034.2396
 Red. masses --      9.3089                 8.1153                 1.1147
 Frc consts  --      6.9090                 8.4261                 6.0468
 IR Inten    --     28.4501                 6.3481               410.5398

 - Thermochemistry -
 -------------------
 Temperature   298.150 Kelvin.  Pressure   1.00000 Atm.
 Atom     1 has atomic number  1 and mass   1.00783

 Molecular mass:    61.00783 amu.
 Principal axes and moments of inertia in atomic units:
                           1         2         3
     Eigenvalues --   163.11862 168.14300 191.64292
           X            0.85436   0.00000  -0.51968
           Y            0.51968   0.00000   0.85436
           Z           -0.00000   1.00000   0.00000
 This molecule is an asymmetric top.
 Rotational symmetry number  1.
 Rotational temperatures (Kelvin)      0.53099     0.51512     0.45195
 Rotational constants (GHZ):          11.06398    10.73337     9.41721
    1 imaginary frequencies ignored.
 Zero-point vibrational energy      65359.8 (Joules/Mol)
                                   15.62137 (Kcal/Mol)
 Warning -- explicit consideration of   3 degrees of freedom as
           vibrations may cause significant error
 Vibrational temperatures:    523.47   728.44   732.62   909.44   966.24
          (Kelvin)           1148.58  1343.01  1479.76  1614.82  1909.98
                             4365.59

 Zero-point correction=                           0.024894 (Hartree/Particle)
 Thermal correction to Energy=                    0.028970
 Thermal correction to Enthalpy=                  0.029914
 Thermal correction to Gibbs Free Energy=        -0.001644
 Sum of electronic and zero-point Energies=           -189.728515
 Sum of electronic and thermal Energies=              -189.724439
 Sum of electronic and thermal Enthalpies=            -189.723495
 Sum of electronic and thermal Free Energies=         -189.755053

                     E (Thermal)             CV                S
                      KCal/Mol        Cal/Mol-Kelvin    Cal/Mol-Kelvin
 Total                   18.179             13.676             66.420
 Electronic               0.000              0.000              1.377
 Translational            0.889              2.981             38.245
 Rotational               0.889              2.981             23.179
 Vibrational             16.401              7.715              3.619
 Vibration     1          0.737              1.547              1.106
 Vibration     2          0.862              1.236              0.643
 Vibration     3          0.864              1.230              0.636

 Optimization completed.
    -- Stationary point found.
 Normal termination of Gaussian 09 at Mon Jun 20 12:06:43 2016.
