 Gaussian 09, Revision E.01,
 Gaussian 09:  EM64L-G09RevE.01 30-Nov-2015

 ---------------------------------------------
 #p b3lyp/6-311++G(3df,2p) freq symmetry=Loose
 ---------------------------------------------

 ---------
 b3lyp opt
 ---------
 Symbolic Z-matrix:
 Charge =  1 Multiplicity = 1

                         Standard orientation:
 ---------------------------------------------------------------------
 Center     Atomic      Atomic             Coordinates (Angstroms)
 Number     Number       Type             X           Y           Z
 ---------------------------------------------------------------------
      1          6           0        1.169035    1.038137    0.000000
      2          6           0       -0.212612    0.986843    0.000000
      3          6           0       -0.212612   -0.364155    0.742658
      4          6           0       -0.358356   -1.579880    0.000000
      5          6           0       -0.212612   -0.364155   -0.742658
      6          1           0       -1.037047    1.699255    0.000000
 ---------------------------------------------------------------------

 SCF Done:  E(RB3LYP) =  -190.388647833     A.U. after   14 cycles

 The electronic state is 1-A'.
 Alpha  occ. eigenvalues --  -10.63042 -10.56412 -10.56331 -10.56301 -10.53395
 Alpha  occ. eigenvalues --   -1.30371  -1.11074  -0.90360  -0.84455  -0.82398
 Alpha  occ. eigenvalues --   -0.69168  -0.65371  -0.63243  -0.60787  -0.52446
 Alpha virt. eigenvalues --   -0.43442  -0.41737  -0.34675  -0.27066  -0.26729
 Alpha virt. eigenvalues --   -0.17291  -0.14287  -0.13714  -0.11458  -0.10062
 Alpha virt. eigenvalues --   -0.08020  -0.07632  -0.06665  -0.06294  -0.05841

 Mulliken charges:
               1
     1  C   -0.082995
     2  C    0.624736
     3  C    0.196789
     4  C   -0.288829
     5  C    0.196789
     6  H    0.353509
 Sum of Mulliken charges =   1.00000

 Dipole moment (field-independent basis, Debye):
    X=             -0.6192    Y=              3.9476    Z=              0.0000  Tot=              3.9959
 Quadrupole moment (field-independent basis, Debye-Ang):
   XX=            -23.5915   YY=            -20.0604   ZZ=            -26.0891
   XY=             -0.8257   XZ=              0.0000   YZ=              0.0000

  Exact polarizability:  35.688   8.493  57.408   0.000  -0.000  38.350
 Approx polarizability:  65.775  28.716 128.465  -0.000   0.000  93.398

 ******    2 imaginary frequencies (negative Signs) ******

                      1                      2                      3
                     A"                     A"                     A'
 Frequencies --   -412.8356              -321.5888               194.8090
 Red. masses --     11.4166                11.2421                10.0284
 Frc consts  --      1.1464                 0.6850                 0.2242
 IR Inten    --     24.1309                67.3542                 9.7861

                      4                      5                      6
                     A'                     A'                     A"
 Frequencies --    347.5630               716.6204               960.2375
 Red. masses --      8.8802                 8.9661                 1.6901
 Frc consts  --      0.6320                 2.7129                 0.9182
 IR Inten    --     43.7073                 8.9284                 0.0814

                      7                      8                      9
                     A"                     A'                     A'
 Frequencies --    977.3233               989.8665              1073.6830
 Red. masses --      2.8470                 7.2611                 1.2576
 Frc consts  --      1.6022                 4.1919                 0.8542
 IR Inten    --     35.2558                29.3799                 6.1891

                     10                     11                     12
                     A'                     A'                     A'
 Frequencies --   1302.7145              1408.7054              3126.5517
 Red. masses --     10.5892                 6.8083                 1.0986
 Frc consts  --     10.5880                 7.9603                 6.3273
 IR Inten    --     20.3724               170.7137               122.0547

 - Thermochemistry -
 -------------------
 Temperature   298.150 Kelvin.  Pressure   1.00000 Atm.
 Atom     1 has atomic number  6 and mass  12.00000

 Molecular mass:    61.00783 amu.
 Principal axes and moments of inertia in atomic units:
                           1         2         3
     Eigenvalues --    93.98078 290.15613 290.71559
           X            0.37030   0.00000   0.92891
           Y            0.92891   0.00000  -0.37030
           Z           -0.00000   1.00000  -0.00000
 This molecule is an asymmetric top.
 Rotational symmetry number  1.
 Rotational temperatures (Kelvin)      0.92161     0.29851     0.29793
 Rotational constants (GHZ):          19.20330     6.21990     6.20793
    2 imaginary frequencies ignored.
 Zero-point vibrational energy      66381.2 (Joules/Mol)
                                   15.86549 (Kcal/Mol)
 Warning -- explicit consideration of   2 degrees of freedom as
           vibrations may cause significant error
 Vibrational temperatures:    280.29   500.06  1031.06  1381.57  1406.15
          (Kelvin)           1424.20  1544.79  1874.31  2026.81  4498.40

 Zero-point correction=                           0.025283 (Hartree/Particle)
 Thermal correction to Energy=                    0.029322
 Thermal correction to Enthalpy=                  0.030266
 Thermal correction to Gibbs Free Energy=        -0.001045
 Sum of electronic and zero-point Energies=           -190.363365
 Sum of electronic and thermal Energies=              -190.359326
 Sum of electronic and thermal Enthalpies=            -190.358381
 Sum of electronic and thermal Free Energies=         -190.389693

                     E (Thermal)             CV                S
                      KCal/Mol        Cal/Mol-Kelvin    Cal/Mol-Kelvin
 Total                   18.400             11.954             65.901
 Electronic               0.000              0.000              0.000
 Translational            0.889              2.981             38.245
 Rotational               0.889              2.981             23.587
 Vibrational             16.623              5.992              4.069
 Vibration     1          0.635              1.847              2.182
 Vibration     2          0.725              1.580              1.177

 Optimization completed.
    -- Stationary point found.
 Normal termination of Gaussian 09 at Mon Jun 20 12:02:27 2016.
