 Gaussian 09, Revision E.01,
 Gaussian 09:  EM64L-G09RevE.01 30-Nov-2015

 ---------------------------------------------
 #p b3lyp/6-311++G(3df,2p) freq symmetry=Loose
 ---------------------------------------------

 ---------
 b3lyp opt
 ---------
 Symbolic Z-matrix:
 Charge =  1 Multiplicity = 3

                         Standard orientation:
 ---------------------------------------------------------------------
 Center     Atomic      Atomic             Coordinates (Angstroms)
 Number     Number       Type             X           Y           Z
 ---------------------------------------------------------------------
      1          1           0       -0.000143    1.983029    0.000000
      2          6           0        0.000018    0.902269    0.000000
      3          6           0        1.077340   -0.143543    0.000000
      4          6           0        0.000018   -0.472623    0.896754
      5          6           0        0.000018   -0.472623   -0.896754
      6          6           0       -1.077370   -0.143985    0.000000
 ---------------------------------------------------------------------

 SCF Done:  E(UB3LYP) =  -190.385023250     A.U. after   16 cycles

 The electronic state is 3-A'.
 Alpha  occ. eigenvalues --  -10.57386 -10.57363 -10.57297 -10.57274 -10.54897
 Alpha  occ. eigenvalues --   -1.38918  -1.02044  -0.94856  -0.93172  -0.76968
 Alpha  occ. eigenvalues --   -0.72218  -0.69298  -0.67203  -0.60793  -0.57768
 Alpha  occ. eigenvalues --   -0.57676
 Alpha virt. eigenvalues --   -0.36908  -0.29941  -0.22792  -0.17249  -0.15481
 Alpha virt. eigenvalues --   -0.13695  -0.13441  -0.12187  -0.09074  -0.07857
 Alpha virt. eigenvalues --   -0.07314  -0.06726  -0.06431  -0.05820  -0.05035

  Beta  occ. eigenvalues --  -10.56625 -10.56621 -10.55510 -10.55507 -10.55027
  Beta  occ. eigenvalues --   -1.37919  -0.99345  -0.93120  -0.92910  -0.75909
  Beta  occ. eigenvalues --   -0.70837  -0.65744  -0.60910  -0.56440
  Beta virt. eigenvalues --   -0.47361  -0.40233  -0.33257  -0.27972  -0.22016
  Beta virt. eigenvalues --   -0.16271  -0.14216  -0.12921  -0.12547  -0.10652
  Beta virt. eigenvalues --   -0.08806  -0.07542  -0.07113  -0.06351  -0.06321

 Mulliken charges and spin densities:
               1          2
     1  H    0.381587  -0.002304
     2  C    0.372435  -0.057107
     3  C    0.212755   0.746975
     4  C   -0.089803   0.282774
     5  C   -0.089803   0.282774
     6  C    0.212828   0.746888
 Sum of Mulliken charges =   1.00000   2.00000

 Dipole moment (field-independent basis, Debye):
    X=             -0.0003    Y=              1.7548    Z=             -0.0000  Tot=              1.7548
 Quadrupole moment (field-independent basis, Debye-Ang):
   XX=            -23.1556   YY=            -19.8328   ZZ=            -23.8096
   XY=              0.0005   XZ=             -0.0000   YZ=              0.0000

  Exact polarizability:  40.992   0.003  36.069   0.000   0.000  40.050
 Approx polarizability:  76.983   0.009  68.052   0.000   0.000  89.591

 ******    1 imaginary frequencies (negative Signs) ******

                      1                      2                      3
                     A"                     A'                     A'
 Frequencies --   -844.3358               383.2316               439.3077
 Red. masses --      7.8405                 9.7819                11.7687
 Frc consts  --      3.2932                 0.8464                 1.3382
 IR Inten    --     57.4216                 1.7584                 3.7933

                      4                      5                      6
                     A"                     A'                     A"
 Frequencies --    748.3075               767.7993               868.7722
 Red. masses --      2.1083                11.9764                11.9995
 Frc consts  --      0.6956                 4.1598                 5.3361
 IR Inten    --     73.7224                 1.6880                 0.0000

                      7                      8                      9
                     A"                     A'                     A'
 Frequencies --    926.3932               957.7899              1066.6135
 Red. masses --      2.2411                 1.1618                 7.0130
 Frc consts  --      1.1332                 0.6279                 4.7007
 IR Inten    --      4.9206                14.6157                 0.0003

                     10                     11                     12
                     A'                     A'                     A'
 Frequencies --   1357.3242              1370.8847              3232.1061
 Red. masses --      9.7644                10.7110                 1.1036
 Frc consts  --     10.5990                11.8599                 6.7925
 IR Inten    --     34.3895                 1.1144               157.9319

 - Thermochemistry -
 -------------------
 Temperature   298.150 Kelvin.  Pressure   1.00000 Atm.
 Atom     1 has atomic number  1 and mass   1.00783

 Molecular mass:    61.00783 amu.
 Principal axes and moments of inertia in atomic units:
                           1         2         3
     Eigenvalues --   138.64942 168.39956 169.20570
           X            1.00000  -0.00066   0.00000
           Y            0.00066   1.00000   0.00000
           Z           -0.00000  -0.00000   1.00000
 This molecule is an asymmetric top.
 Rotational symmetry number  1.
 Rotational temperatures (Kelvin)      0.62470     0.51434     0.51188
 Rotational constants (GHZ):          13.01658    10.71702    10.66596
    1 imaginary frequencies ignored.
 Zero-point vibrational energy      72484.9 (Joules/Mol)
                                   17.32431 (Kcal/Mol)
 Warning -- explicit consideration of   2 degrees of freedom as
           vibrations may cause significant error
 Vibrational temperatures:    551.38   632.06  1076.65  1104.69  1249.97
          (Kelvin)           1332.87  1378.04  1534.62  1952.88  1972.39
                             4650.27

 Zero-point correction=                           0.027608 (Hartree/Particle)
 Thermal correction to Energy=                    0.031421
 Thermal correction to Enthalpy=                  0.032365
 Thermal correction to Gibbs Free Energy=         0.000923
 Sum of electronic and zero-point Energies=           -190.357415
 Sum of electronic and thermal Energies=              -190.353602
 Sum of electronic and thermal Enthalpies=            -190.352658
 Sum of electronic and thermal Free Energies=         -190.384100

                     E (Thermal)             CV                S
                      KCal/Mol        Cal/Mol-Kelvin    Cal/Mol-Kelvin
 Total                   19.717             12.281             66.175
 Electronic               0.000              0.000              2.183
 Translational            0.889              2.981             38.245
 Rotational               0.889              2.981             22.895
 Vibrational             17.940              6.319              2.852
 Vibration     1          0.752              1.506              1.026
 Vibration     2          0.799              1.384              0.829

 Optimization completed.
    -- Stationary point found.
 Normal termination of Gaussian 09 at Mon Jun 20 12:06:36 2016.
