 Gaussian 09, Revision E.01,
 Gaussian 09:  EM64L-G09RevE.01 30-Nov-2015

 ---------------------------------------------
 #p b3lyp/6-311++G(3df,2p) freq symmetry=Loose
 ---------------------------------------------

 ---------
 b3lyp opt
 ---------
 Symbolic Z-matrix:
 Charge =  0 Multiplicity = 2

                         Standard orientation:
 ---------------------------------------------------------------------
 Center     Atomic      Atomic             Coordinates (Angstroms)
 Number     Number       Type             X           Y           Z
 ---------------------------------------------------------------------
      1          6           0        0.008278   -0.878821    0.240073
      2          6           0        0.008651    0.878869    0.240046
      3          7           0       -0.938619    0.000117   -0.218272
      4          6           0        1.078126   -0.000185   -0.225469
 ---------------------------------------------------------------------

 SCF Done:  E(UB3LYP) =  -168.785166413     A.U. after   18 cycles

 The electronic state is 2-A.
 Alpha  occ. eigenvalues --  -14.44158 -10.30910 -10.30905 -10.29654  -1.11025
 Alpha  occ. eigenvalues --   -0.76741  -0.66657  -0.51949  -0.47505  -0.45055
 Alpha  occ. eigenvalues --   -0.34828  -0.32004  -0.30248
 Alpha virt. eigenvalues --   -0.16012  -0.06840  -0.06703   0.02801   0.04097
 Alpha virt. eigenvalues --    0.04223   0.04256   0.08013   0.08628   0.09312
 Alpha virt. eigenvalues --    0.09769   0.10321   0.12860   0.15445   0.16248

  Beta  occ. eigenvalues --  -14.44102 -10.30061 -10.30053 -10.29493  -1.10256
  Beta  occ. eigenvalues --   -0.76112  -0.64686  -0.50010  -0.46252  -0.43386
  Beta  occ. eigenvalues --   -0.32219  -0.31500
  Beta virt. eigenvalues --   -0.17606  -0.15773  -0.05749  -0.05328   0.03330
  Beta virt. eigenvalues --    0.04167   0.04394   0.04444   0.08103   0.08661
  Beta virt. eigenvalues --    0.09776   0.09928   0.10451   0.13105   0.15794

 Mulliken charges and spin densities:
               1          2
     1  C    0.138309   0.474614
     2  C    0.138206   0.474610
     3  N   -0.359777  -0.025946
     4  C    0.083263   0.076722
 Sum of Mulliken charges =  -0.00000   1.00000

 Dipole moment (field-independent basis, Debye):
    X=             -0.1355    Y=             -0.0002    Z=              0.7342  Tot=              0.7466
 Quadrupole moment (field-independent basis, Debye-Ang):
   XX=            -24.8609   YY=            -24.1295   ZZ=            -22.3937
   XY=              0.0004   XZ=              0.7639   YZ=             -0.0003

  Exact polarizability:  41.460   0.002  50.604  -1.110   0.001  25.791
 Approx polarizability:  92.568   0.005 105.549   0.048  -0.001  40.011

 ******    1 imaginary frequencies (negative Signs) ******

                      1                      2                      3
                      A                      A                      A
 Frequencies --   -393.3237               624.8352               780.5000
 Red. masses --     12.3429                12.5716                12.3882
 Frc consts  --      1.1250                 2.8918                 4.4463
 IR Inten    --      1.5464                 3.0364               135.4250

                      4                      5                      6
                      A                      A                      A
 Frequencies --    781.4677              1142.4823              1368.7095
 Red. masses --     12.2213                12.1859                12.8054
 Frc consts  --      4.3973                 9.3714                14.1341
 IR Inten    --     12.9682                 0.1695                 5.8867

 - Thermochemistry -
 -------------------
 Temperature   298.150 Kelvin.  Pressure   1.00000 Atm.
 Atom     1 has atomic number  6 and mass  12.00000

 Molecular mass:    50.00307 amu.
 Principal axes and moments of inertia in atomic units:
                           1         2         3
     Eigenvalues --    75.69628 103.37181 160.06813
           X            1.00000   0.00000  -0.00003
           Y           -0.00000   1.00000   0.00000
           Z            0.00003  -0.00000   1.00000
 This molecule is an asymmetric top.
 Rotational symmetry number  1.
 Rotational temperatures (Kelvin)      1.14423     0.83789     0.54111
 Rotational constants (GHZ):          23.84187    17.45874    11.27483
    1 imaginary frequencies ignored.
 Zero-point vibrational energy      28100.2 (Joules/Mol)
                                    6.71612 (Kcal/Mol)
 Vibrational temperatures:    899.00  1122.96  1124.36  1643.78  1969.27
          (Kelvin)

 Zero-point correction=                           0.010703 (Hartree/Particle)
 Thermal correction to Energy=                    0.013880
 Thermal correction to Enthalpy=                  0.014824
 Thermal correction to Gibbs Free Energy=        -0.014497
 Sum of electronic and zero-point Energies=           -168.774464
 Sum of electronic and thermal Energies=              -168.771287
 Sum of electronic and thermal Enthalpies=            -168.770342
 Sum of electronic and thermal Free Energies=         -168.799664

                     E (Thermal)             CV                S
                      KCal/Mol        Cal/Mol-Kelvin    Cal/Mol-Kelvin
 Total                    8.710              8.670             61.712
 Electronic               0.000              0.000              1.377
 Translational            0.889              2.981             37.652
 Rotational               0.889              2.981             21.754
 Vibrational              6.932              2.708              0.928

 Optimization completed.
    -- Stationary point found.
 Normal termination of Gaussian 09 at Fri Aug  5 07:02:48 2016.
