 Gaussian 09, Revision E.01,
 Gaussian 09:  EM64L-G09RevE.01 30-Nov-2015

 ---------------------------------------------
 #p b3lyp/6-311++G(3df,2p) freq symmetry=Loose
 ---------------------------------------------

 ---------
 b3lyp opt
 ---------
 Symbolic Z-matrix:
 Charge =  1 Multiplicity = 3

                         Standard orientation:
 ---------------------------------------------------------------------
 Center     Atomic      Atomic             Coordinates (Angstroms)
 Number     Number       Type             X           Y           Z
 ---------------------------------------------------------------------
      1          7           0        0.000000   -0.000000    0.625859
      2          6           0        0.000000   -0.000000    1.856487
      3          6           0       -0.000000    0.000000   -1.974506
      4          6           0       -0.000000    0.000000   -0.612151
 ---------------------------------------------------------------------

 SCF Done:  E(UB3LYP) =  -168.464799626     A.U. after   13 cycles

 The electronic state is 3-SG.
 Alpha  occ. eigenvalues --  -14.71922 -10.62677 -10.60222 -10.59520  -1.33747
 Alpha  occ. eigenvalues --   -1.15023  -1.05850  -0.77776  -0.77776  -0.63984
 Alpha  occ. eigenvalues --   -0.62160  -0.61183  -0.61183
 Alpha virt. eigenvalues --   -0.38488  -0.38488  -0.22647  -0.22647  -0.19821
 Alpha virt. eigenvalues --   -0.13946  -0.11669  -0.11669  -0.07989  -0.06924
 Alpha virt. eigenvalues --   -0.05672  -0.05672  -0.04461  -0.01115  -0.01115

  Beta  occ. eigenvalues --  -14.71777 -10.61449 -10.59600 -10.58326  -1.32390
  Beta  occ. eigenvalues --   -1.11280  -1.01786  -0.74683  -0.74683  -0.62431
  Beta  occ. eigenvalues --   -0.59764
  Beta virt. eigenvalues --   -0.49434  -0.49434  -0.33656  -0.33656  -0.18926
  Beta virt. eigenvalues --   -0.18468  -0.18468  -0.12257  -0.11087  -0.11087
  Beta virt. eigenvalues --   -0.07251  -0.06319  -0.05014  -0.05014  -0.04182

 Mulliken charges and spin densities:
               1          2
     1  N   -0.453957   0.094954
     2  C    0.394062   0.338152
     3  C   -0.093486   0.704300
     4  C    1.153380   0.862594
 Sum of Mulliken charges =   1.00000   2.00000

 Dipole moment (field-independent basis, Debye):
    X=             -0.0000    Y=             -0.0000    Z=             -0.2571  Tot=              0.2571
 Quadrupole moment (field-independent basis, Debye-Ang):
   XX=            -18.6325   YY=            -18.6325   ZZ=            -15.4457
   XY=              0.0000   XZ=              0.0000   YZ=              0.0000

  Exact polarizability:  24.821   0.000  24.821  -0.000  -0.000  68.171
 Approx polarizability:  33.337  -0.000  33.337   0.000  -0.000 131.558

 ******    2 imaginary frequencies (negative Signs) ******

                      1                      2                      3
                     PI                     PI                     PI
 Frequencies --   -336.1869              -336.1869               183.7457
 Red. masses --     12.1855                12.1855                13.0402
 Frc consts  --      0.8114                 0.8114                 0.2594
 IR Inten    --     54.5518                54.5518                 0.4353

                      4                      5                      6
                     PI                     SG                     SG
 Frequencies --    183.7457               925.7669              1602.1643
 Red. masses --     13.0402                12.1899                12.2397
 Frc consts  --      0.2594                 6.1553                18.5112
 IR Inten    --      0.4353                35.8799               491.4718

                      7
                     SG
 Frequencies --   2066.3610
 Red. masses --     12.8732
 Frc consts  --     32.3853
 IR Inten    --    260.7322

 - Thermochemistry -
 -------------------
 Temperature   298.150 Kelvin.  Pressure   1.00000 Atm.
 Atom     1 has atomic number  7 and mass  14.00307

 Molecular mass:    50.00307 amu.
 Principal axes and moments of inertia in atomic units:
                           1         2         3
     Eigenvalues --     0.00000 350.40851 350.40851
           X            0.00000   1.00000   0.00000
           Y           -0.00000  -0.00000   1.00000
           Z            1.00000  -0.00000   0.00000
 This molecule is a prolate symmetric top.
 Rotational symmetry number  1.
 Rotational temperature (Kelvin)      0.24718
 Rotational constant (GHZ):           5.150392
    2 imaginary frequencies ignored.
 Zero-point vibrational energy      29678.1 (Joules/Mol)
                                    7.09323 (Kcal/Mol)
 Warning -- explicit consideration of   2 degrees of freedom as
           vibrations may cause significant error
 Vibrational temperatures:    264.37   264.37  1331.97  2305.15  2973.03
          (Kelvin)

 Zero-point correction=                           0.011304 (Hartree/Particle)
 Thermal correction to Energy=                    0.014890
 Thermal correction to Enthalpy=                  0.015834
 Thermal correction to Gibbs Free Energy=        -0.012976
 Sum of electronic and zero-point Energies=           -168.453496
 Sum of electronic and thermal Energies=              -168.449909
 Sum of electronic and thermal Enthalpies=            -168.448965
 Sum of electronic and thermal Free Energies=         -168.477776

                     E (Thermal)             CV                S
                      KCal/Mol        Cal/Mol-Kelvin    Cal/Mol-Kelvin
 Total                    9.344              9.219             60.637
 Electronic               0.000              0.000              2.183
 Translational            0.889              2.981             37.652
 Rotational               0.592              1.987             16.087
 Vibrational              7.862              4.251              4.715
 Vibration     1          0.631              1.862              2.290
 Vibration     2          0.631              1.862              2.290

 Optimization completed.
    -- Stationary point found.
 Normal termination of Gaussian 09 at Fri Aug  5 07:26:51 2016.
