 Gaussian 09, Revision E.01,
 Gaussian 09:  EM64L-G09RevE.01 30-Nov-2015

 ---------------------------------------------
 #p b3lyp/6-311++G(3df,2p) freq symmetry=Loose
 ---------------------------------------------

 ---------
 b3lyp opt
 ---------
 Symbolic Z-matrix:
 Charge =  1 Multiplicity = 1

                         Standard orientation:
 ---------------------------------------------------------------------
 Center     Atomic      Atomic             Coordinates (Angstroms)
 Number     Number       Type             X           Y           Z
 ---------------------------------------------------------------------
      1          7           0        0.000000    0.000000    0.623565
      2          6           0        0.000000   -0.000000    1.860736
      3          6           0       -0.000000    0.000000   -1.977890
      4          6           0       -0.000000    0.000000   -0.610339
 ---------------------------------------------------------------------

 SCF Done:  E(RB3LYP) =  -168.432951708     A.U. after   11 cycles

 Unable to determine electronic state:  partially filled degenerate orbitals.
 Alpha  occ. eigenvalues --  -14.72524 -10.61441 -10.60366 -10.59338  -1.33236
 Alpha  occ. eigenvalues --   -1.12990  -1.03857  -0.76273  -0.76264  -0.63483
 Alpha  occ. eigenvalues --   -0.61107  -0.57945
 Alpha virt. eigenvalues --   -0.52453  -0.36541  -0.36126  -0.20765  -0.20708
 Alpha virt. eigenvalues --   -0.19368  -0.13126  -0.11603  -0.11219  -0.07615
 Alpha virt. eigenvalues --   -0.06783  -0.05525  -0.05341  -0.04371  -0.01219

 Mulliken charges:
               1
     1  N   -0.445682
     2  C    0.396831
     3  C   -0.082169
     4  C    1.131020
 Sum of Mulliken charges =   1.00000

 Dipole moment (field-independent basis, Debye):
    X=             -0.0000    Y=             -0.0000    Z=             -0.1510  Tot=              0.1510
 Quadrupole moment (field-independent basis, Debye-Ang):
   XX=            -20.3110   YY=            -17.1304   ZZ=            -15.2655
   XY=             -0.0000   XZ=              0.0000   YZ=             -0.0000

  Exact polarizability:  22.525  -0.000  22.933  -0.000  -0.000  66.558
 Approx polarizability:  31.992  -0.000  36.012   0.000  -0.000 145.351

 ******    1 imaginary frequencies (negative Signs) ******

                      1                      2                      3
                     ?A                     ?A                     ?A
 Frequencies --    -66.3257               149.9060               187.6393
 Red. masses --     12.0367                13.2161                12.4029
 Frc consts  --      0.0312                 0.1750                 0.2573
 IR Inten    --     42.5110                 0.0563                 0.8792

                      4                      5                      6
                     ?A                     SG                     SG
 Frequencies --    396.8757               924.9009              1570.1344
 Red. masses --     12.8012                12.1794                12.2576
 Frc consts  --      1.1880                 6.1386                17.8045
 IR Inten    --      0.3225                30.5367               525.8682

                      7
                     SG
 Frequencies --   2073.0951
 Red. masses --     12.8650
 Frc consts  --     32.5761
 IR Inten    --    116.1570

 - Thermochemistry -
 -------------------
 Temperature   298.150 Kelvin.  Pressure   1.00000 Atm.
 Atom     1 has atomic number  7 and mass  14.00307

 Molecular mass:    50.00307 amu.
 Principal axes and moments of inertia in atomic units:
                           1         2         3
     Eigenvalues --     0.00000 351.42014 351.42014
           X            0.00000   1.00000   0.00017
           Y           -0.00000  -0.00017   1.00000
           Z            1.00000  -0.00000   0.00000
 This molecule is a prolate symmetric top.
 Rotational symmetry number  1.
 Rotational temperature (Kelvin)      0.24647
 Rotational constant (GHZ):           5.135566
    1 imaginary frequencies ignored.
 Zero-point vibrational energy      31716.3 (Joules/Mol)
                                    7.58038 (Kcal/Mol)
 Warning -- explicit consideration of   3 degrees of freedom as
           vibrations may cause significant error
 Vibrational temperatures:    215.68   269.97   571.01  1330.72  2259.07
          (Kelvin)           2982.72

 Zero-point correction=                           0.012080 (Hartree/Particle)
 Thermal correction to Energy=                    0.016030
 Thermal correction to Enthalpy=                  0.016974
 Thermal correction to Gibbs Free Energy=        -0.011429
 Sum of electronic and zero-point Energies=           -168.420872
 Sum of electronic and thermal Energies=              -168.416922
 Sum of electronic and thermal Enthalpies=            -168.415977
 Sum of electronic and thermal Free Energies=         -168.444381

                     E (Thermal)             CV                S
                      KCal/Mol        Cal/Mol-Kelvin    Cal/Mol-Kelvin
 Total                   10.059             10.739             59.780
 Electronic               0.000              0.000              0.000
 Translational            0.889              2.981             37.652
 Rotational               0.592              1.987             16.093
 Vibrational              8.578              5.771              6.035
 Vibration     1          0.618              1.903              2.673
 Vibration     2          0.632              1.857              2.251
 Vibration     3          0.763              1.477              0.974

 Optimization completed.
    -- Stationary point found.
 Normal termination of Gaussian 09 at Fri Aug  5 07:18:15 2016.
