 Gaussian 09, Revision E.01,
 Gaussian 09:  EM64L-G09RevE.01 30-Nov-2015

 ---------------------------------------------
 #p b3lyp/6-311++G(3df,2p) freq symmetry=Loose
 ---------------------------------------------

 ---------
 b3lyp opt
 ---------
 Symbolic Z-matrix:
 Charge =  2 Multiplicity = 4

                         Standard orientation:
 ---------------------------------------------------------------------
 Center     Atomic      Atomic             Coordinates (Angstroms)
 Number     Number       Type             X           Y           Z
 ---------------------------------------------------------------------
      1          7           0       -0.000000   -0.000000   -0.586555
      2          6           0       -0.000000   -0.000000   -1.880752
      3          6           0        0.000000    0.000000    1.941700
      4          6           0        0.000000    0.000000    0.623366
 ---------------------------------------------------------------------

 SCF Done:  E(UB3LYP) =  -167.784281383     A.U. after   16 cycles

 The electronic state is 4-SG.
 Alpha  occ. eigenvalues --  -14.99372 -10.95341 -10.93062 -10.90978  -1.60031
 Alpha  occ. eigenvalues --   -1.43259  -1.34844  -1.04123  -1.04123  -1.01750
 Alpha  occ. eigenvalues --   -0.90162  -0.90162  -0.88775
 Alpha virt. eigenvalues --   -0.66521  -0.66521  -0.49544  -0.49544  -0.41053
 Alpha virt. eigenvalues --   -0.35410  -0.28639  -0.28639  -0.27202  -0.22958
 Alpha virt. eigenvalues --   -0.21324  -0.21324  -0.20966  -0.20633  -0.20633

  Beta  occ. eigenvalues --  -14.98721 -10.92409 -10.90915 -10.90579  -1.58385
  Beta  occ. eigenvalues --   -1.38149  -1.30271  -1.00429  -1.00429  -0.87849
  Beta virt. eigenvalues --   -0.76138  -0.76138  -0.74281  -0.59865  -0.59865
  Beta virt. eigenvalues --   -0.43625  -0.43625  -0.39141  -0.33820  -0.28151
  Beta virt. eigenvalues --   -0.28151  -0.24994  -0.21378  -0.20332  -0.20332

 Mulliken charges and spin densities:
               1          2
     1  N   -0.375219   0.299557
     2  C    0.659847   0.202947
     3  C    0.584454   2.209236
     4  C    1.130918   0.288260
 Sum of Mulliken charges =   2.00000   3.00000

 Dipole moment (field-independent basis, Debye):
    X=              0.0000    Y=              0.0000    Z=              3.1491  Tot=              3.1491
 Quadrupole moment (field-independent basis, Debye-Ang):
   XX=            -16.2696   YY=            -16.2696   ZZ=              8.0097
   XY=              0.0000   XZ=              0.0000   YZ=              0.0000

  Exact polarizability:  17.388   0.000  17.388  -0.000   0.000  58.269
 Approx polarizability:  24.185   0.000  24.185   0.000   0.000 124.141

 ******    2 imaginary frequencies (negative Signs) ******

                      1                      2                      3
                     PI                     PI                     PI
 Frequencies --    -93.1958               -93.1958               442.4703
 Red. masses --     13.0328                13.0328                12.2031
 Frc consts  --      0.0667                 0.0667                 1.4076
 IR Inten    --      0.8482                 0.8482                 0.0001

                      4                      5                      6
                     PI                     SG                     SG
 Frequencies --    442.4703               972.7440              1488.5877
 Red. masses --     12.2031                12.0499                12.5689
 Frc consts  --      1.4076                 6.7179                16.4095
 IR Inten    --      0.0001                36.2545               694.5245

                      7
                     SG
 Frequencies --   2138.4261
 Red. masses --     12.6794
 Frc consts  --     34.1615
 IR Inten    --    495.1727

 - Thermochemistry -
 -------------------
 Temperature   298.150 Kelvin.  Pressure   1.00000 Atm.
 Atom     1 has atomic number  7 and mass  14.00307

 Molecular mass:    50.00307 amu.
 Principal axes and moments of inertia in atomic units:
                           1         2         3
     Eigenvalues --     0.00000 346.99996 346.99996
           X            0.00000   1.00000  -0.00000
           Y            0.00000   0.00000   1.00000
           Z            1.00000  -0.00000  -0.00000
 This molecule is a prolate symmetric top.
 Rotational symmetry number  1.
 Rotational temperature (Kelvin)      0.24961
 Rotational constant (GHZ):           5.200984
    2 imaginary frequencies ignored.
 Zero-point vibrational energy      32805.8 (Joules/Mol)
                                    7.84077 (Kcal/Mol)
 Warning -- explicit consideration of   2 degrees of freedom as
           vibrations may cause significant error
 Vibrational temperatures:    636.62   636.62  1399.56  2141.74  3076.71
          (Kelvin)

 Zero-point correction=                           0.012495 (Hartree/Particle)
 Thermal correction to Energy=                    0.015442
 Thermal correction to Enthalpy=                  0.016387
 Thermal correction to Gibbs Free Energy=        -0.011280
 Sum of electronic and zero-point Energies=           -167.771786
 Sum of electronic and thermal Energies=              -167.768839
 Sum of electronic and thermal Enthalpies=            -167.767895
 Sum of electronic and thermal Free Energies=         -167.795562

                     E (Thermal)             CV                S
                      KCal/Mol        Cal/Mol-Kelvin    Cal/Mol-Kelvin
 Total                    9.690              8.216             58.230
 Electronic               0.000              0.000              2.755
 Translational            0.889              2.981             37.652
 Rotational               0.592              1.987             16.067
 Vibrational              8.209              3.248              1.755
 Vibration     1          0.802              1.378              0.819
 Vibration     2          0.802              1.378              0.819

 Optimization completed.
    -- Stationary point found.
 Normal termination of Gaussian 09 at Fri Aug  5 07:13:21 2016.
