 Gaussian 09, Revision E.01,
 Gaussian 09:  EM64L-G09RevE.01 30-Nov-2015

 ---------------------------------------------
 #p b3lyp/6-311++G(3df,2p) freq symmetry=Loose
 ---------------------------------------------

 ---------
 b3lyp opt
 ---------
 Symbolic Z-matrix:
 Charge =  2 Multiplicity = 2

                         Standard orientation:
 ---------------------------------------------------------------------
 Center     Atomic      Atomic             Coordinates (Angstroms)
 Number     Number       Type             X           Y           Z
 ---------------------------------------------------------------------
      1          7           0        0.258012   -0.000028    0.000475
      2          6           0       -0.952580   -0.778606   -0.000146
      3          6           0       -0.952434    0.778668   -0.000146
      4          6           0        1.603999   -0.000029   -0.000262
 ---------------------------------------------------------------------

 SCF Done:  E(UB3LYP) =  -167.684683284     A.U. after   23 cycles

 The electronic state is 2-A.
 Alpha  occ. eigenvalues --  -15.04354 -10.96948 -10.96943 -10.96921  -1.67071
 Alpha  occ. eigenvalues --   -1.43784  -1.20023  -1.07565  -1.05239  -0.94526
 Alpha  occ. eigenvalues --   -0.92997  -0.91961
 Alpha virt. eigenvalues --   -0.77800  -0.70689  -0.65855  -0.60112  -0.48875
 Alpha virt. eigenvalues --   -0.45387  -0.36254  -0.34646  -0.29359  -0.27276
 Alpha virt. eigenvalues --   -0.26876  -0.25615  -0.22148  -0.22137  -0.21924

  Beta  occ. eigenvalues --  -15.04400 -10.97021 -10.95886 -10.95874  -1.66289
  Beta  occ. eigenvalues --   -1.43259  -1.16900  -1.06573  -1.05156  -0.92795
  Beta  occ. eigenvalues --   -0.88883
  Beta virt. eigenvalues --   -0.77914  -0.77212  -0.70941  -0.63845  -0.60033
  Beta virt. eigenvalues --   -0.45130  -0.44153  -0.35777  -0.33460  -0.29297
  Beta virt. eigenvalues --   -0.27186  -0.25540  -0.25438  -0.22104  -0.21861

 Mulliken charges and spin densities:
               1          2
     1  N    0.072392  -0.094964
     2  C    0.634567   0.560317
     3  C    0.634580   0.560515
     4  C    0.658462  -0.025868
 Sum of Mulliken charges =   2.00000   1.00000

 Dipole moment (field-independent basis, Debye):
    X=              0.0631    Y=              0.0003    Z=             -0.0001  Tot=              0.0631
 Quadrupole moment (field-independent basis, Debye-Ang):
   XX=             -6.0898   YY=            -13.2486   ZZ=            -15.7884
   XY=             -0.0003   XZ=              0.0009   YZ=             -0.0000

  Exact polarizability:  45.456   0.002  42.733  -0.003   0.000  19.864
 Approx polarizability: 111.904   0.003  70.928   0.011  -0.000  32.913

 ******    1 imaginary frequencies (negative Signs) ******

                      1                      2                      3
                      A                      A                      A
 Frequencies --   -700.2279               258.4314               307.6326
 Red. masses --     12.4989                13.3407                12.7811
 Frc consts  --      3.6108                 0.5250                 0.7127
 IR Inten    --    182.7075                 0.0864                 0.1719

                      4                      5                      6
                      A                      A                      A
 Frequencies --    659.3862               965.1647              1246.9167
 Red. masses --     12.0877                12.0307                13.2330
 Frc consts  --      3.0965                 6.6031                12.1223
 IR Inten    --      5.1530                 0.5594              1089.9798

 - Thermochemistry -
 -------------------
 Temperature   298.150 Kelvin.  Pressure   1.00000 Atm.
 Atom     1 has atomic number  7 and mass  14.00307

 Molecular mass:    50.00307 amu.
 Principal axes and moments of inertia in atomic units:
                           1         2         3
     Eigenvalues --    51.96120 191.33912 243.30029
           X            1.00000   0.00000  -0.00000
           Y           -0.00000   1.00000   0.00000
           Z            0.00000  -0.00000   1.00000
 This molecule is an asymmetric top.
 Rotational symmetry number  1.
 Rotational temperatures (Kelvin)      1.66689     0.45267     0.35600
 Rotational constants (GHZ):          34.73248     9.43216     7.41775
    1 imaginary frequencies ignored.
 Zero-point vibrational energy      20561.0 (Joules/Mol)
                                    4.91420 (Kcal/Mol)
 Warning -- explicit consideration of   2 degrees of freedom as
           vibrations may cause significant error
 Vibrational temperatures:    371.82   442.61   948.71  1388.66  1794.03
          (Kelvin)

 Zero-point correction=                           0.007831 (Hartree/Particle)
 Thermal correction to Energy=                    0.011735
 Thermal correction to Enthalpy=                  0.012680
 Thermal correction to Gibbs Free Energy=        -0.018197
 Sum of electronic and zero-point Energies=           -167.676852
 Sum of electronic and thermal Energies=              -167.672948
 Sum of electronic and thermal Enthalpies=            -167.672004
 Sum of electronic and thermal Free Energies=         -167.702880

                     E (Thermal)             CV                S
                      KCal/Mol        Cal/Mol-Kelvin    Cal/Mol-Kelvin
 Total                    7.364             10.871             64.984
 Electronic               0.000              0.000              1.377
 Translational            0.889              2.981             37.652
 Rotational               0.889              2.981             22.408
 Vibrational              5.587              4.910              3.547
 Vibration     1          0.667              1.749              1.672
 Vibration     2          0.697              1.659              1.375

 Optimization completed.
    -- Stationary point found.
 Normal termination of Gaussian 09 at Fri Aug  5 07:10:52 2016.
