 Gaussian 09, Revision E.01,
 Gaussian 09:  EM64L-G09RevE.01 30-Nov-2015

 ---------------------------------------------
 #p b3lyp/6-311++G(3df,2p) freq symmetry=Loose
 ---------------------------------------------

 ---------
 b3lyp opt
 ---------
 Symbolic Z-matrix:
 Charge =  1 Multiplicity = 3

                         Standard orientation:
 ---------------------------------------------------------------------
 Center     Atomic      Atomic             Coordinates (Angstroms)
 Number     Number       Type             X           Y           Z
 ---------------------------------------------------------------------
      1          7           0       -0.341208   -0.000028    0.000059
      2          6           0        0.989383   -0.697178   -0.000017
      3          6           0        0.988984    0.697302   -0.000017
      4          6           0       -1.580292   -0.000091   -0.000036
 ---------------------------------------------------------------------

 SCF Done:  E(UB3LYP) =  -168.376376851     A.U. after   20 cycles

 The electronic state is 3-A.
 Alpha  occ. eigenvalues --  -14.73062 -10.64502 -10.64444 -10.59001  -1.36787
 Alpha  occ. eigenvalues --   -1.17797  -0.87075  -0.83953  -0.78027  -0.66679
 Alpha  occ. eigenvalues --   -0.65575  -0.62604  -0.60374
 Alpha virt. eigenvalues --   -0.39271  -0.37304  -0.30744  -0.22664  -0.18164
 Alpha virt. eigenvalues --   -0.15489  -0.11535  -0.10835  -0.10035  -0.08040
 Alpha virt. eigenvalues --   -0.06113  -0.05673  -0.05356  -0.05078  -0.02118

  Beta  occ. eigenvalues --  -14.72889 -10.62954 -10.62917 -10.58597  -1.34860
  Beta  occ. eigenvalues --   -1.14991  -0.83211  -0.81614  -0.74264  -0.61822
  Beta  occ. eigenvalues --   -0.60204
  Beta virt. eigenvalues --   -0.50978  -0.49129  -0.38403  -0.30962  -0.27280
  Beta virt. eigenvalues --   -0.20647  -0.16295  -0.14831  -0.10904  -0.10160
  Beta virt. eigenvalues --   -0.09685  -0.07671  -0.05709  -0.05368  -0.05017

 Mulliken charges and spin densities:
               1          2
     1  N   -0.154134  -0.000701
     2  C    0.419072   0.892692
     3  C    0.419549   0.894466
     4  C    0.315514   0.213544
 Sum of Mulliken charges =   1.00000   2.00000

 Dipole moment (field-independent basis, Debye):
    X=              1.2767    Y=              0.0024    Z=              0.0000  Tot=              1.2768
 Quadrupole moment (field-independent basis, Debye-Ang):
   XX=            -15.8020   YY=            -17.7440   ZZ=            -18.8758
   XY=              0.0028   XZ=             -0.0002   YZ=             -0.0000

  Exact polarizability:  50.953  -0.013  62.489  -0.001  -0.000  22.691
 Approx polarizability: 111.811  -0.031  91.330  -0.001  -0.000  33.575

 ******    1 imaginary frequencies (negative Signs) ******

                      1                      2                      3
                      A                      A                      A
 Frequencies --   -861.0417               272.4682               280.7605
 Red. masses --     12.4391                13.3149                12.8232
 Frc consts  --      5.4336                 0.5824                 0.5956
 IR Inten    --    661.9528                 0.2744                 0.0074

                      4                      5                      6
                      A                      A                      A
 Frequencies --    736.9096              1287.3865              1653.6567
 Red. masses --     12.3998                12.0000                12.9135
 Frc consts  --      3.9673                11.7179                20.8058
 IR Inten    --     63.1592                 0.9956               553.3497

 - Thermochemistry -
 -------------------
 Temperature   298.150 Kelvin.  Pressure   1.00000 Atm.
 Atom     1 has atomic number  7 and mass  14.00307

 Molecular mass:    50.00307 amu.
 Principal axes and moments of inertia in atomic units:
                           1         2         3
     Eigenvalues --    41.66521 196.70055 238.36576
           X            1.00000  -0.00000   0.00000
           Y            0.00000   1.00000   0.00000
           Z           -0.00000  -0.00000   1.00000
 This molecule is an asymmetric top.
 Rotational symmetry number  1.
 Rotational temperatures (Kelvin)      2.07880     0.44033     0.36337
 Rotational constants (GHZ):          43.31530     9.17507     7.57131
    1 imaginary frequencies ignored.
 Zero-point vibrational energy      25308.1 (Joules/Mol)
                                    6.04878 (Kcal/Mol)
 Warning -- explicit consideration of   2 degrees of freedom as
           vibrations may cause significant error
 Vibrational temperatures:    392.02   403.95  1060.25  1852.26  2379.24
          (Kelvin)

 Zero-point correction=                           0.009639 (Hartree/Particle)
 Thermal correction to Energy=                    0.013485
 Thermal correction to Enthalpy=                  0.014430
 Thermal correction to Gibbs Free Energy=        -0.016663
 Sum of electronic and zero-point Energies=           -168.366738
 Sum of electronic and thermal Energies=              -168.362891
 Sum of electronic and thermal Enthalpies=            -168.361947
 Sum of electronic and thermal Free Energies=         -168.393040

                     E (Thermal)             CV                S
                      KCal/Mol        Cal/Mol-Kelvin    Cal/Mol-Kelvin
 Total                    8.462             10.353             65.440
 Electronic               0.000              0.000              2.183
 Translational            0.889              2.981             37.652
 Rotational               0.889              2.981             22.195
 Vibrational              6.685              4.391              3.410
 Vibration     1          0.675              1.724              1.581
 Vibration     2          0.680              1.709              1.529

 Optimization completed.
    -- Stationary point found.
 Normal termination of Gaussian 09 at Fri Aug  5 07:27:45 2016.
