 Gaussian 09, Revision E.01,
 Gaussian 09:  EM64L-G09RevE.01 30-Nov-2015

 ---------------------------------------------
 #p b3lyp/6-311++G(3df,2p) freq symmetry=Loose
 ---------------------------------------------

 ---------
 b3lyp opt
 ---------
 Symbolic Z-matrix:
 Charge =  0 Multiplicity = 4

                         Standard orientation:
 ---------------------------------------------------------------------
 Center     Atomic      Atomic             Coordinates (Angstroms)
 Number     Number       Type             X           Y           Z
 ---------------------------------------------------------------------
      1          7           0        0.000000    0.620853    0.000000
      2          6           0       -0.323914    1.828870    0.000000
      3          6           0        0.439991   -1.936664   -0.000000
      4          6           0       -0.116077   -0.616534    0.000000
 ---------------------------------------------------------------------

 SCF Done:  E(UB3LYP) =  -168.759919956     A.U. after   16 cycles

 The electronic state is 4-A".
 Alpha  occ. eigenvalues --  -14.44241 -10.33290 -10.29450 -10.28286  -1.05680
 Alpha  occ. eigenvalues --   -0.85595  -0.74708  -0.50908  -0.50207  -0.39121
 Alpha  occ. eigenvalues --   -0.37586  -0.34201  -0.32935  -0.20707
 Alpha virt. eigenvalues --   -0.12931  -0.05565   0.00683   0.01731   0.04068
 Alpha virt. eigenvalues --    0.04279   0.04726   0.06666   0.08570   0.09441
 Alpha virt. eigenvalues --    0.10098   0.11480   0.12236   0.15055   0.16431

  Beta  occ. eigenvalues --  -14.44227 -10.31838 -10.28182 -10.26348  -1.04096
  Beta  occ. eigenvalues --   -0.81345  -0.69430  -0.47431  -0.46936  -0.35863
  Beta  occ. eigenvalues --   -0.32879
  Beta virt. eigenvalues --   -0.21428  -0.19731  -0.07739  -0.06664  -0.01918
  Beta virt. eigenvalues --    0.03208   0.03455   0.04573   0.05666   0.06028
  Beta virt. eigenvalues --    0.06871   0.10086   0.10722   0.11002   0.11961

 Mulliken charges and spin densities:
               1          2
     1  N   -0.436688  -0.040312
     2  C    0.035822   0.793347
     3  C   -0.351426   1.287331
     4  C    0.752291   0.959634
 Sum of Mulliken charges =  -0.00000   3.00000

 Dipole moment (field-independent basis, Debye):
    X=             -0.5244    Y=              0.1253    Z=              0.0000  Tot=              0.5392
 Quadrupole moment (field-independent basis, Debye-Ang):
   XX=            -24.0474   YY=            -32.8741   ZZ=            -21.4176
   XY=              3.0375   XZ=              0.0000   YZ=             -0.0000

  Exact polarizability:  33.273 -10.286  93.318   0.000  -0.000  30.220
 Approx polarizability:  45.315 -19.972 179.966  -0.000   0.000  42.726

 ******    1 imaginary frequencies (negative Signs) ******

                      1                      2                      3
                     A'                     A"                     A'
 Frequencies --   -280.0310               220.9160               327.5157
 Red. masses --     12.0092                12.8870                13.1809
 Frc consts  --      0.5549                 0.3706                 0.8330
 IR Inten    --     22.9640                11.7985                 1.5237

                      4                      5                      6
                     A'                     A'                     A'
 Frequencies --    760.3364              1241.2027              1726.7249
 Red. masses --     12.4702                12.2642                12.6124
 Frc consts  --      4.2475                11.1321                22.1562
 IR Inten    --      9.1783                 7.7547                 4.6424

 - Thermochemistry -
 -------------------
 Temperature   298.150 Kelvin.  Pressure   1.00000 Atm.
 Atom     1 has atomic number  7 and mass  14.00307

 Molecular mass:    50.00307 amu.
 Principal axes and moments of inertia in atomic units:
                           1         2         3
     Eigenvalues --     3.08388 349.90861 352.99249
           X           -0.17221   0.98506   0.00000
           Y            0.98506   0.17221   0.00000
           Z            0.00000   0.00000   1.00000
 This molecule is an asymmetric top.
 Rotational symmetry number  1.
 Rotational temperatures (Kelvin)     28.08596     0.24753     0.24537
 Rotational constants (GHZ):         585.21724     5.15775     5.11269
    1 imaginary frequencies ignored.
 Zero-point vibrational energy      25580.3 (Joules/Mol)
                                    6.11384 (Kcal/Mol)
 Warning -- explicit consideration of   2 degrees of freedom as
           vibrations may cause significant error
 Vibrational temperatures:    317.85   471.22  1093.95  1785.81  2484.37
          (Kelvin)

 Zero-point correction=                           0.009743 (Hartree/Particle)
 Thermal correction to Energy=                    0.013598
 Thermal correction to Enthalpy=                  0.014542
 Thermal correction to Gibbs Free Energy=        -0.016096
 Sum of electronic and zero-point Energies=           -168.750177
 Sum of electronic and thermal Energies=              -168.746322
 Sum of electronic and thermal Enthalpies=            -168.745378
 Sum of electronic and thermal Free Energies=         -168.776016

                     E (Thermal)             CV                S
                      KCal/Mol        Cal/Mol-Kelvin    Cal/Mol-Kelvin
 Total                    8.533             10.322             64.483
 Electronic               0.000              0.000              2.755
 Translational            0.889              2.981             37.652
 Rotational               0.889              2.981             20.571
 Vibrational              6.755              4.361              3.505
 Vibration     1          0.648              1.809              1.952
 Vibration     2          0.711              1.621              1.272

 Normal termination of Gaussian 09 at Fri Aug  5 07:12:31 2016.
