 Gaussian 09, Revision E.01,
 Gaussian 09:  EM64L-G09RevE.01 30-Nov-2015

 ---------------------------------------------
 #p b3lyp/6-311++G(3df,2p) freq symmetry=Loose
 ---------------------------------------------

 ---------
 b3lyp opt
 ---------
 Symbolic Z-matrix:
 Charge =  0 Multiplicity = 4

                         Standard orientation:
 ---------------------------------------------------------------------
 Center     Atomic      Atomic             Coordinates (Angstroms)
 Number     Number       Type             X           Y           Z
 ---------------------------------------------------------------------
      1          7           0        0.000000   -0.000000    0.604042
      2          6           0        0.000000   -0.000000    1.899218
      3          6           0        0.000000    0.000000   -2.005877
      4          6           0        0.000000    0.000000   -0.598056
 ---------------------------------------------------------------------

 SCF Done:  E(UB3LYP) =  -168.759314300     A.U. after   13 cycles

 Unable to determine electronic state:  an orbital has unidentified symmetry.
 Alpha  occ. eigenvalues --  -14.44675 -10.33424 -10.29505 -10.28476  -1.05992
 Alpha  occ. eigenvalues --   -0.85461  -0.76860  -0.51432  -0.50839  -0.39218
 Alpha  occ. eigenvalues --   -0.36655  -0.34672  -0.32860  -0.20603
 Alpha virt. eigenvalues --   -0.13580  -0.00935   0.00512   0.01611   0.03680
 Alpha virt. eigenvalues --    0.04382   0.04574   0.06638   0.08717   0.09332
 Alpha virt. eigenvalues --    0.09534   0.12741   0.12791   0.13000   0.16685

  Beta  occ. eigenvalues --  -14.44451 -10.32383 -10.27976 -10.26687  -1.04169
  Beta  occ. eigenvalues --   -0.81219  -0.71713  -0.47909  -0.46994  -0.35576
  Beta  occ. eigenvalues --   -0.32988
  Beta virt. eigenvalues --   -0.21640  -0.20071  -0.08341  -0.06219  -0.00519
  Beta virt. eigenvalues --    0.03762   0.04266   0.04275   0.05944   0.06466
  Beta virt. eigenvalues --    0.06726   0.09751   0.11221   0.12148   0.13065

 Mulliken charges and spin densities:
               1          2
     1  N   -0.611104   0.100824
     2  C    0.017160   0.979022
     3  C   -0.452782   1.214198
     4  C    1.046726   0.705956
 Sum of Mulliken charges =  -0.00000   3.00000

 Dipole moment (field-independent basis, Debye):
    X=              0.0000    Y=             -0.0000    Z=              0.1035  Tot=              0.1035
 Quadrupole moment (field-independent basis, Debye-Ang):
   XX=            -23.0975   YY=            -21.3363   ZZ=            -35.1471
   XY=             -0.0000   XZ=             -0.0000   YZ=              0.0000

  Exact polarizability:  31.633  -0.000  30.346  -0.000  -0.000  90.568
 Approx polarizability:  39.305  -0.000  42.916  -0.000  -0.000 164.008

 ******    1 imaginary frequencies (negative Signs) ******

                      1                      2                      3
                     ?A                     ?A                     ?A
 Frequencies --    -78.7553               116.4149               187.3593
 Red. masses --     12.3839                12.1789                12.8308
 Frc consts  --      0.0453                 0.0972                 0.2654
 IR Inten    --     16.4073                36.7026                15.8259

                      4                      5                      6
                     ?A                     SG                     SG
 Frequencies --    278.8982               835.6888              1033.4661
 Red. masses --     13.0585                12.3046                12.2844
 Frc consts  --      0.5985                 5.0630                 7.7303
 IR Inten    --      3.7188                 4.6155                18.5884

                      7
                     SG
 Frequencies --   2080.5215
 Red. masses --     12.6996
 Frc consts  --     32.3879
 IR Inten    --     60.1080

 - Thermochemistry -
 -------------------
 Temperature   298.150 Kelvin.  Pressure   1.00000 Atm.
 Atom     1 has atomic number  7 and mass  14.00307

 Molecular mass:    50.00307 amu.
 Principal axes and moments of inertia in atomic units:
                           1         2         3
     Eigenvalues --     0.00000 360.56394 360.56394
           X            0.00000  -0.00000   1.00000
           Y           -0.00000   1.00000   0.00000
           Z            1.00000   0.00000   0.00000
 This molecule is a prolate symmetric top.
 Rotational symmetry number  1.
 Rotational temperature (Kelvin)      0.24022
 Rotational constant (GHZ):           5.005329
    1 imaginary frequencies ignored.
 Zero-point vibrational energy      27109.5 (Joules/Mol)
                                    6.47932 (Kcal/Mol)
 Warning -- explicit consideration of   3 degrees of freedom as
           vibrations may cause significant error
 Vibrational temperatures:    167.49   269.57   401.27  1202.37  1486.93
          (Kelvin)           2993.40

 Zero-point correction=                           0.010325 (Hartree/Particle)
 Thermal correction to Energy=                    0.014519
 Thermal correction to Enthalpy=                  0.015463
 Thermal correction to Gibbs Free Energy=        -0.014834
 Sum of electronic and zero-point Energies=           -168.748989
 Sum of electronic and thermal Energies=              -168.744795
 Sum of electronic and thermal Enthalpies=            -168.743851
 Sum of electronic and thermal Free Energies=         -168.774149

                     E (Thermal)             CV                S
                      KCal/Mol        Cal/Mol-Kelvin    Cal/Mol-Kelvin
 Total                    9.111             11.418             63.767
 Electronic               0.000              0.000              2.755
 Translational            0.889              2.981             37.652
 Rotational               0.592              1.987             16.144
 Vibrational              7.630              6.450              7.216
 Vibration     1          0.608              1.936              3.159
 Vibration     2          0.632              1.857              2.254
 Vibration     3          0.679              1.713              1.540

 Optimization completed.
    -- Stationary point found.
 Normal termination of Gaussian 09 at Fri Aug  5 07:12:13 2016.
