 Gaussian 09, Revision E.01,
 Gaussian 09:  EM64L-G09RevE.01 30-Nov-2015

 ---------------------------------------------
 #p b3lyp/6-311++G(3df,2p) freq symmetry=Loose
 ---------------------------------------------

 ---------
 b3lyp opt
 ---------
 Symbolic Z-matrix:
 Charge =  0 Multiplicity = 4

                         Standard orientation:
 ---------------------------------------------------------------------
 Center     Atomic      Atomic             Coordinates (Angstroms)
 Number     Number       Type             X           Y           Z
 ---------------------------------------------------------------------
      1          6           0       -0.000000   -0.000000    0.609724
      2          7           0       -0.000000   -0.000000    1.841356
      3          6           0       -0.000000    0.000000   -2.095256
      4          6           0        0.000000    0.000000   -0.662718
 ---------------------------------------------------------------------

 SCF Done:  E(UB3LYP) =  -168.788584635     A.U. after   15 cycles

 Unable to determine electronic state:  an orbital has unidentified symmetry.
 Alpha  occ. eigenvalues --  -14.42213 -10.30136 -10.28742 -10.27597  -0.98651
 Alpha  occ. eigenvalues --   -0.85562  -0.72343  -0.46937  -0.46258  -0.46048
 Alpha  occ. eigenvalues --   -0.36943  -0.36452  -0.35342  -0.21465
 Alpha virt. eigenvalues --   -0.13995  -0.00586   0.03148   0.04012   0.04074
 Alpha virt. eigenvalues --    0.05555   0.06522   0.06603   0.09303   0.09797
 Alpha virt. eigenvalues --    0.09969   0.13959   0.14046   0.14891   0.17055

  Beta  occ. eigenvalues --  -14.39877 -10.28753 -10.27925 -10.27071  -0.94337
  Beta  occ. eigenvalues --   -0.80574  -0.68237  -0.42822  -0.41822  -0.40669
  Beta  occ. eigenvalues --   -0.32909
  Beta virt. eigenvalues --   -0.23073  -0.21455  -0.08824  -0.06629  -0.00283
  Beta virt. eigenvalues --    0.03789   0.04761   0.05100   0.06723   0.07893
  Beta virt. eigenvalues --    0.08387   0.10347   0.11993   0.13258   0.14379

 Mulliken charges and spin densities:
               1          2
     1  C   -0.547478  -0.240617
     2  N   -0.766823   1.139093
     3  C   -0.378282   1.133938
     4  C    1.692582   0.967586
 Sum of Mulliken charges =  -0.00000   3.00000

 Dipole moment (field-independent basis, Debye):
    X=              0.0000    Y=             -0.0000    Z=              0.4958  Tot=              0.4958
 Quadrupole moment (field-independent basis, Debye-Ang):
   XX=            -22.7535   YY=            -21.1098   ZZ=            -32.8114
   XY=              0.0000   XZ=             -0.0000   YZ=              0.0000

  Exact polarizability:  28.592  -0.000  28.523  -0.002   0.001  81.494
 Approx polarizability:  36.131  -0.000  38.998  -0.000  -0.000 160.377

 ******    1 imaginary frequencies (negative Signs) ******

                      1                      2                      3
                     ?A                     ?A                     ?A
 Frequencies --   -173.5059                65.2557               265.9221
 Red. masses --     12.1341                12.0306                12.4824
 Frc consts  --      0.2152                 0.0302                 0.5201
 IR Inten    --     38.2599                15.1674                 4.4746

                      4                      5                      6
                     ?A                     SG                     SG
 Frequencies --    373.0567               773.5512              1264.4895
 Red. masses --     12.3730                12.2525                13.0050
 Frc consts  --      1.0145                 4.3197                12.2515
 IR Inten    --      0.3432                76.2031                70.2711

                      7
                     SG
 Frequencies --   1928.5531
 Red. masses --     12.0615
 Frc consts  --     26.4311
 IR Inten    --      4.7146

 - Thermochemistry -
 -------------------
 Temperature   298.150 Kelvin.  Pressure   1.00000 Atm.
 Atom     1 has atomic number  6 and mass  12.00000

 Molecular mass:    50.00307 amu.
 Principal axes and moments of inertia in atomic units:
                           1         2         3
     Eigenvalues --     0.00000 392.42925 392.42925
           X           -0.00000   0.00000   1.00000
           Y           -0.00000   1.00000  -0.00000
           Z            1.00000   0.00000   0.00000
 This molecule is a prolate symmetric top.
 Rotational symmetry number  1.
 Rotational temperature (Kelvin)      0.22071
 Rotational constant (GHZ):           4.598896
    1 imaginary frequencies ignored.
 Zero-point vibrational energy      27937.8 (Joules/Mol)
                                    6.67728 (Kcal/Mol)
 Warning -- explicit consideration of   3 degrees of freedom as
           vibrations may cause significant error
 Vibrational temperatures:     93.89   382.60   536.74  1112.97  1819.32
          (Kelvin)           2774.75

 Zero-point correction=                           0.010641 (Hartree/Particle)
 Thermal correction to Energy=                    0.014706
 Thermal correction to Enthalpy=                  0.015650
 Thermal correction to Gibbs Free Energy=        -0.014741
 Sum of electronic and zero-point Energies=           -168.777944
 Sum of electronic and thermal Energies=              -168.773879
 Sum of electronic and thermal Enthalpies=            -168.772935
 Sum of electronic and thermal Free Energies=         -168.803326

                     E (Thermal)             CV                S
                      KCal/Mol        Cal/Mol-Kelvin    Cal/Mol-Kelvin
 Total                    9.228             11.079             63.964
 Electronic               0.000              0.000              2.755
 Translational            0.889              2.981             37.652
 Rotational               0.592              1.987             16.312
 Vibrational              7.747              6.111              7.245
 Vibration     1          0.597              1.971              4.292
 Vibration     2          0.672              1.736              1.623
 Vibration     3          0.744              1.527              1.067

 Optimization completed.
    -- Stationary point found.
 Normal termination of Gaussian 09 at Fri Aug  5 07:15:39 2016.
