 Gaussian 09, Revision E.01,
 Gaussian 09:  EM64L-G09RevE.01 30-Nov-2015

 ---------------------------------------------
 #p b3lyp/6-311++G(3df,2p) freq symmetry=Loose
 ---------------------------------------------

 ---------
 b3lyp opt
 ---------
 Symbolic Z-matrix:
 Charge =  0 Multiplicity = 2

                         Standard orientation:
 ---------------------------------------------------------------------
 Center     Atomic      Atomic             Coordinates (Angstroms)
 Number     Number       Type             X           Y           Z
 ---------------------------------------------------------------------
      1          7           0       -0.000333   -0.776563   -0.192007
      2          6           0        1.092907    0.029225    0.222414
      3          6           0        0.000285    0.847040   -0.220850
      4          6           0       -1.092803    0.029725    0.222445
 ---------------------------------------------------------------------

 SCF Done:  E(UB3LYP) =  -168.776077687     A.U. after   18 cycles

 The electronic state is 2-A.
 Alpha  occ. eigenvalues --  -14.45843 -10.30700 -10.30546 -10.30537  -1.12325
 Alpha  occ. eigenvalues --   -0.74415  -0.70558  -0.53105  -0.47306  -0.44392
 Alpha  occ. eigenvalues --   -0.34958  -0.31675  -0.30746
 Alpha virt. eigenvalues --   -0.14253  -0.08486  -0.05172   0.02671   0.02854
 Alpha virt. eigenvalues --    0.04539   0.04849   0.07548   0.08195   0.09214
 Alpha virt. eigenvalues --    0.09417   0.10507   0.12829   0.14820   0.15205

  Beta  occ. eigenvalues --  -14.44985 -10.30503 -10.30500 -10.29571  -1.11041
  Beta  occ. eigenvalues --   -0.73983  -0.67976  -0.49158  -0.46293  -0.42509
  Beta  occ. eigenvalues --   -0.33901  -0.30626
  Beta virt. eigenvalues --   -0.18220  -0.14287  -0.07035  -0.03537   0.03040
  Beta virt. eigenvalues --    0.03280   0.04617   0.04881   0.07584   0.08343
  Beta virt. eigenvalues --    0.09190   0.09700   0.10889   0.12985   0.15378

 Mulliken charges and spin densities:
               1          2
     1  N   -0.267384   0.337486
     2  C   -0.029860   0.005573
     3  C    0.327004   0.651560
     4  C   -0.029760   0.005381
 Sum of Mulliken charges =  -0.00000   1.00000

 Dipole moment (field-independent basis, Debye):
    X=              0.0002    Y=              0.4660    Z=             -0.8384  Tot=              0.9591
 Quadrupole moment (field-independent basis, Debye-Ang):
   XX=            -27.2824   YY=            -22.9921   ZZ=            -22.1029
   XY=              0.0018   XZ=              0.0000   YZ=             -0.1238

  Exact polarizability:  45.325  -0.000  37.097   0.000  -0.811  26.257
 Approx polarizability:  85.702   0.005  78.686  -0.000  -1.314  41.317

 ******    1 imaginary frequencies (negative Signs) ******

                      1                      2                      3
                      A                      A                      A
 Frequencies --   -328.5313               523.1595               651.1999
 Red. masses --     12.7118                12.3229                12.1744
 Frc consts  --      0.8084                 1.9872                 3.0418
 IR Inten    --      1.2699                 9.1576                16.3104

                      4                      5                      6
                      A                      A                      A
 Frequencies --    853.0063              1263.7743              1288.4199
 Red. masses --     12.9071                12.2224                12.3580
 Frc consts  --      5.5333                11.5013                12.0869
 IR Inten    --     41.8351                81.0205                 4.6761

 - Thermochemistry -
 -------------------
 Temperature   298.150 Kelvin.  Pressure   1.00000 Atm.
 Atom     1 has atomic number  7 and mass  14.00307

 Molecular mass:    50.00307 amu.
 Principal axes and moments of inertia in atomic units:
                           1         2         3
     Eigenvalues --    69.15037 110.53485 163.33729
           X            1.00000  -0.00000  -0.00000
           Y            0.00000   1.00000  -0.00003
           Z            0.00000   0.00003   1.00000
 This molecule is an asymmetric top.
 Rotational symmetry number  1.
 Rotational temperatures (Kelvin)      1.25254     0.78359     0.53028
 Rotational constants (GHZ):          26.09879    16.32735    11.04917
    1 imaginary frequencies ignored.
 Zero-point vibrational energy      27391.9 (Joules/Mol)
                                    6.54681 (Kcal/Mol)
 Warning -- explicit consideration of   1 degrees of freedom as
           vibrations may cause significant error
 Vibrational temperatures:    752.71   936.93  1227.28  1818.29  1853.75
          (Kelvin)

 Zero-point correction=                           0.010433 (Hartree/Particle)
 Thermal correction to Energy=                    0.013696
 Thermal correction to Enthalpy=                  0.014640
 Thermal correction to Gibbs Free Energy=        -0.014809
 Sum of electronic and zero-point Energies=           -168.765645
 Sum of electronic and thermal Energies=              -168.762382
 Sum of electronic and thermal Enthalpies=            -168.761437
 Sum of electronic and thermal Free Energies=         -168.790887

                     E (Thermal)             CV                S
                      KCal/Mol        Cal/Mol-Kelvin    Cal/Mol-Kelvin
 Total                    8.594              8.974             61.981
 Electronic               0.000              0.000              1.377
 Translational            0.889              2.981             37.652
 Rotational               0.889              2.981             21.751
 Vibrational              6.817              3.012              1.201
 Vibration     1          0.878              1.199              0.603

 Optimization completed.
    -- Stationary point found.
 Normal termination of Gaussian 09 at Fri Aug  5 07:09:45 2016.
