 Gaussian 09, Revision E.01,
 Gaussian 09:  EM64L-G09RevE.01 30-Nov-2015

 ---------------------------------------------
 #p b3lyp/6-311++G(3df,2p) freq symmetry=Loose
 ---------------------------------------------

 ---------
 b3lyp opt
 ---------
 Symbolic Z-matrix:
 Charge =  0 Multiplicity = 2

                         Standard orientation:
 ---------------------------------------------------------------------
 Center     Atomic      Atomic             Coordinates (Angstroms)
 Number     Number       Type             X           Y           Z
 ---------------------------------------------------------------------
      1          7           0        0.205293   -0.299072    0.000000
      2          6           0       -0.000000    1.208278   -0.000000
      3          6           0       -1.127369    0.434600    0.000000
      4          6           0        0.887860   -1.293961    0.000000
 ---------------------------------------------------------------------

 SCF Done:  E(UB3LYP) =  -168.790356089     A.U. after   14 cycles

 The electronic state is 2-A".
 Alpha  occ. eigenvalues --  -14.46253 -10.30792 -10.29717 -10.29650  -1.08069
 Alpha  occ. eigenvalues --   -0.90234  -0.56342  -0.55711  -0.50816  -0.38835
 Alpha  occ. eigenvalues --   -0.36059  -0.33338  -0.32485
 Alpha virt. eigenvalues --   -0.12320  -0.07168  -0.05331   0.01392   0.02418
 Alpha virt. eigenvalues --    0.03808   0.04781   0.05578   0.06516   0.07678
 Alpha virt. eigenvalues --    0.08670   0.10633   0.11004   0.12315   0.12718

  Beta  occ. eigenvalues --  -14.46271 -10.30323 -10.29167 -10.29105  -1.07150
  Beta  occ. eigenvalues --   -0.88301  -0.55716  -0.54377  -0.48103  -0.37916
  Beta  occ. eigenvalues --   -0.34938  -0.31782
  Beta virt. eigenvalues --   -0.22743  -0.11804  -0.03082  -0.02983   0.01743
  Beta virt. eigenvalues --    0.02533   0.03898   0.05709   0.05730   0.06588
  Beta virt. eigenvalues --    0.07798   0.09130   0.11361   0.11439   0.12382

 Mulliken charges and spin densities:
               1          2
     1  N   -0.264560  -0.029743
     2  C    0.058921   0.381706
     3  C    0.058715   0.381654
     4  C    0.146924   0.266383
 Sum of Mulliken charges =  -0.00000   1.00000

 Dipole moment (field-independent basis, Debye):
    X=             -0.0544    Y=              0.0794    Z=             -0.0000  Tot=              0.0963
 Quadrupole moment (field-independent basis, Debye-Ang):
   XX=            -26.0665   YY=            -25.9610   ZZ=            -21.6859
   XY=             -0.1375   XZ=              0.0000   YZ=              0.0000

  Exact polarizability:  42.841 -10.260  50.751   0.000   0.000  37.326
 Approx polarizability:  73.735 -28.821  95.965   0.000  -0.000  43.662

 ******    1 imaginary frequencies (negative Signs) ******

                      1                      2                      3
                     A'                     A"                     A'
 Frequencies --   -312.5601               304.1882               342.5212
 Red. masses --     13.1174                13.3069                12.1683
 Frc consts  --      0.7550                 0.7255                 0.8411
 IR Inten    --      6.0450                 3.0673                 2.4337

                      4                      5                      6
                     A'                     A'                     A'
 Frequencies --    676.8314              1406.0767              1802.5332
 Red. masses --     12.4602                12.0000                12.8486
 Frc consts  --      3.3631                13.9782                24.5965
 IR Inten    --     24.5948                 3.6858               235.7543

 - Thermochemistry -
 -------------------
 Temperature   298.150 Kelvin.  Pressure   1.00000 Atm.
 Atom     1 has atomic number  7 and mass  14.00307

 Molecular mass:    50.00307 amu.
 Principal axes and moments of inertia in atomic units:
                           1         2         3
     Eigenvalues --    40.05743 197.17368 237.23110
           X           -0.56579   0.82455   0.00000
           Y            0.82455   0.56579   0.00000
           Z           -0.00000  -0.00000   1.00000
 This molecule is an asymmetric top.
 Rotational symmetry number  1.
 Rotational temperatures (Kelvin)      2.16224     0.43928     0.36510
 Rotational constants (GHZ):          45.05385     9.15305     7.60752
    1 imaginary frequencies ignored.
 Zero-point vibrational energy      27108.3 (Joules/Mol)
                                    6.47903 (Kcal/Mol)
 Warning -- explicit consideration of   2 degrees of freedom as
           vibrations may cause significant error
 Vibrational temperatures:    437.66   492.81   973.81  2023.03  2593.44
          (Kelvin)

 Zero-point correction=                           0.010325 (Hartree/Particle)
 Thermal correction to Energy=                    0.014073
 Thermal correction to Enthalpy=                  0.015017
 Thermal correction to Gibbs Free Energy=        -0.015454
 Sum of electronic and zero-point Energies=           -168.780031
 Sum of electronic and thermal Energies=              -168.776283
 Sum of electronic and thermal Enthalpies=            -168.775339
 Sum of electronic and thermal Free Energies=         -168.805811

                     E (Thermal)             CV                S
                      KCal/Mol        Cal/Mol-Kelvin    Cal/Mol-Kelvin
 Total                    8.831             10.221             64.133
 Electronic               0.000              0.000              1.377
 Translational            0.889              2.981             37.652
 Rotational               0.889              2.981             22.154
 Vibrational              7.054              4.259              2.950
 Vibration     1          0.695              1.666              1.394
 Vibration     2          0.722              1.590              1.200

 Optimization completed.
    -- Stationary point found.
 Normal termination of Gaussian 09 at Fri Aug  5 07:05:43 2016.
