 Gaussian 09, Revision E.01,
 Gaussian 09:  EM64L-G09RevE.01 30-Nov-2015

 ---------------------------------------------
 #p b3lyp/6-311++G(3df,2p) freq symmetry=Loose
 ---------------------------------------------

 ---------
 b3lyp opt
 ---------
 Symbolic Z-matrix:
 Charge =  1 Multiplicity = 1

                         Standard orientation:
 ---------------------------------------------------------------------
 Center     Atomic      Atomic             Coordinates (Angstroms)
 Number     Number       Type             X           Y           Z
 ---------------------------------------------------------------------
      1          7           0        0.000000    0.000000    0.294534
      2          6           0        0.000000   -0.744559   -0.950469
      3          6           0        0.000000    0.744559   -0.950469
      4          6           0        0.000000    0.000000    1.557267
 ---------------------------------------------------------------------

 SCF Done:  E(RB3LYP) =  -168.369918925     A.U. after   11 cycles

 The electronic state is 1-A1.
 Alpha  occ. eigenvalues --  -14.75808 -10.64856 -10.61252 -10.61221  -1.38492
 Alpha  occ. eigenvalues --   -1.17639  -0.87888  -0.79974  -0.78249  -0.66218
 Alpha  occ. eigenvalues --   -0.62502  -0.58733
 Alpha virt. eigenvalues --   -0.50829  -0.42032  -0.34199  -0.31588  -0.17586
 Alpha virt. eigenvalues --   -0.17503  -0.15770  -0.11492  -0.09772  -0.09652
 Alpha virt. eigenvalues --   -0.07810  -0.06337  -0.06047  -0.04977  -0.04864

 Mulliken charges:
               1
     1  N   -0.016742
     2  C    0.311388
     3  C    0.311388
     4  C    0.393965
 Sum of Mulliken charges =   1.00000

 Dipole moment (field-independent basis, Debye):
    X=              0.0000    Y=              0.0000    Z=              0.2568  Tot=              0.2568
 Quadrupole moment (field-independent basis, Debye-Ang):
   XX=            -17.7288   YY=            -21.2632   ZZ=            -15.1792
   XY=              0.0000   XZ=             -0.0000   YZ=             -0.0000

  Exact polarizability:  25.733   0.000  29.398   0.000   0.000  48.154
 Approx polarizability:  40.918  -0.000  46.679  -0.000  -0.000 114.501

 ******    1 imaginary frequencies (negative Signs) ******

                      1                      2                      3
                     B2                     B1                     B2
 Frequencies --   -181.4930               198.5910               511.2823
 Red. masses --     13.2869                13.3281                12.0418
 Frc consts  --      0.2579                 0.3097                 1.8547
 IR Inten    --      1.2473                 2.3503                 9.7591

                      4                      5                      6
                     A1                     A1                     A1
 Frequencies --    784.3098              1070.1618              1568.8231
 Red. masses --     12.2758                12.0621                12.9782
 Frc consts  --      4.4491                 8.1390                18.8197
 IR Inten    --     26.0178                33.5318               677.1695

 - Thermochemistry -
 -------------------
 Temperature   298.150 Kelvin.  Pressure   1.00000 Atm.
 Atom     1 has atomic number  7 and mass  14.00307

 Molecular mass:    50.00307 amu.
 Principal axes and moments of inertia in atomic units:
                           1         2         3
     Eigenvalues --    47.51245 185.68523 233.19769
           X           -0.00000  -0.00000   1.00000
           Y           -0.00000   1.00000   0.00000
           Z            1.00000   0.00000   0.00000
 This molecule is an asymmetric top.
 Rotational symmetry number  2.
 Rotational temperatures (Kelvin)      1.82297     0.46646     0.37142
 Rotational constants (GHZ):          37.98459     9.71936     7.73910
    1 imaginary frequencies ignored.
 Zero-point vibrational energy      24721.8 (Joules/Mol)
                                    5.90866 (Kcal/Mol)
 Warning -- explicit consideration of   2 degrees of freedom as
           vibrations may cause significant error
 Vibrational temperatures:    285.73   735.62  1128.45  1539.72  2257.18
          (Kelvin)

 Zero-point correction=                           0.009416 (Hartree/Particle)
 Thermal correction to Energy=                    0.013142
 Thermal correction to Enthalpy=                  0.014086
 Thermal correction to Gibbs Free Energy=        -0.015181
 Sum of electronic and zero-point Energies=           -168.360503
 Sum of electronic and thermal Energies=              -168.356777
 Sum of electronic and thermal Enthalpies=            -168.355833
 Sum of electronic and thermal Free Energies=         -168.385100

                     E (Thermal)             CV                S
                      KCal/Mol        Cal/Mol-Kelvin    Cal/Mol-Kelvin
 Total                    8.247             10.071             61.598
 Electronic               0.000              0.000              0.000
 Translational            0.889              2.981             37.652
 Rotational               0.889              2.981             20.869
 Vibrational              6.469              4.109              3.076
 Vibration     1          0.637              1.842              2.146
 Vibration     2          0.866              1.225              0.631

 Optimization completed.
    -- Stationary point found.
 Normal termination of Gaussian 09 at Fri Aug  5 07:20:54 2016.
