 Gaussian 09, Revision E.01,
 Gaussian 09:  EM64L-G09RevE.01 30-Nov-2015

 ---------------------------------------------
 #p b3lyp/6-311++G(3df,2p) freq symmetry=Loose
 ---------------------------------------------

 ---------
 b3lyp opt
 ---------
 Symbolic Z-matrix:
 Charge =  1 Multiplicity = 1

                         Standard orientation:
 ---------------------------------------------------------------------
 Center     Atomic      Atomic             Coordinates (Angstroms)
 Number     Number       Type             X           Y           Z
 ---------------------------------------------------------------------
      1          7           0        0.381467   -0.909263   -0.000000
      2          6           0       -0.110622    0.263533    0.000000
      3          6           0        0.000000    1.658870    0.000000
      4          6           0       -1.183730    1.162188    0.000000
      5          6           0        0.849308   -2.023784   -0.000000
 ---------------------------------------------------------------------

 SCF Done:  E(RB3LYP) =  -206.582066763     A.U. after   12 cycles

 The electronic state is 1-A'.
 Alpha  occ. eigenvalues --  -14.67265 -10.65512 -10.56320 -10.54366 -10.54235
 Alpha  occ. eigenvalues --   -1.31156  -1.25046  -1.06985  -0.81043  -0.77494
 Alpha  occ. eigenvalues --   -0.75851  -0.67052  -0.64564  -0.60193  -0.57610
 Alpha virt. eigenvalues --   -0.45921  -0.37978  -0.27739  -0.27306  -0.20698
 Alpha virt. eigenvalues --   -0.16199  -0.13484  -0.11664  -0.11559  -0.09077
 Alpha virt. eigenvalues --   -0.07538  -0.05946  -0.05885  -0.05755  -0.05371

 Mulliken charges:
               1
     1  N   -0.462198
     2  C    0.859609
     3  C    0.155464
     4  C    0.155068
     5  C    0.292057
 Sum of Mulliken charges =   1.00000

 Dipole moment (field-independent basis, Debye):
    X=             -0.5187    Y=              1.2359    Z=              0.0000  Tot=              1.3403
 Quadrupole moment (field-independent basis, Debye-Ang):
   XX=            -23.1332   YY=            -16.5025   ZZ=            -23.7855
   XY=             -3.3768   XZ=             -0.0000   YZ=              0.0000

  Exact polarizability:  43.008 -11.584  65.750   0.000   0.000  24.877
 Approx polarizability:  97.955 -20.270 137.750  -0.000   0.000  37.198

 ******    1 imaginary frequencies (negative Signs) ******

                      1                      2                      3
                     A'                     A'                     A"
 Frequencies --   -239.7189               147.7304               151.4612
 Red. masses --     12.0022                12.8100                12.8682
 Frc consts  --      0.4064                 0.1647                 0.1739
 IR Inten    --    236.9319                 8.8955                 0.1358

                      4                      5                      6
                     A"                     A'                     A'
 Frequencies --    522.3669               554.0779               818.0085
 Red. masses --     12.3472                12.4129                12.2926
 Frc consts  --      1.9850                 2.2452                 4.8463
 IR Inten    --      7.9062                 0.9888                10.3238

                      7                      8                      9
                     A'                     A'                     A'
 Frequencies --   1599.3109              1748.4421              2075.1682
 Red. masses --     12.0109                12.0218                13.1035
 Frc consts  --     18.1006                21.6532                33.2464
 IR Inten    --    113.2631                 0.1782              1835.2347

 - Thermochemistry -
 -------------------
 Temperature   298.150 Kelvin.  Pressure   1.00000 Atm.
 Atom     1 has atomic number  7 and mass  14.00307

 Molecular mass:    62.00307 amu.
 Principal axes and moments of inertia in atomic units:
                           1         2         3
     Eigenvalues --    35.30876 459.08520 494.39396
           X           -0.38694   0.92210   0.00000
           Y            0.92210   0.38694  -0.00000
           Z            0.00000   0.00000   1.00000
 This molecule is an asymmetric top.
 Rotational symmetry number  1.
 Rotational temperatures (Kelvin)      2.45304     0.18867     0.17519
 Rotational constants (GHZ):          51.11312     3.93117     3.65041
    1 imaginary frequencies ignored.
 Zero-point vibrational energy      45557.2 (Joules/Mol)
                                   10.88843 (Kcal/Mol)
 Warning -- explicit consideration of   4 degrees of freedom as
           vibrations may cause significant error
 Vibrational temperatures:    212.55   217.92   751.57   797.19  1176.93
          (Kelvin)           2301.05  2515.62  2985.70

 Zero-point correction=                           0.017352 (Hartree/Particle)
 Thermal correction to Energy=                    0.021946
 Thermal correction to Enthalpy=                  0.022891
 Thermal correction to Gibbs Free Energy=        -0.009700
 Sum of electronic and zero-point Energies=           -206.564715
 Sum of electronic and thermal Energies=              -206.560120
 Sum of electronic and thermal Enthalpies=            -206.559176
 Sum of electronic and thermal Free Energies=         -206.591767

                     E (Thermal)             CV                S
                      KCal/Mol        Cal/Mol-Kelvin    Cal/Mol-Kelvin
 Total                   13.772             12.813             68.592
 Electronic               0.000              0.000              0.000
 Translational            0.889              2.981             38.293
 Rotational               0.889              2.981             23.598
 Vibrational             11.994              6.851              6.701
 Vibration     1          0.617              1.905              2.701
 Vibration     2          0.619              1.901              2.654
 Vibration     3          0.877              1.200              0.604
 Vibration     4          0.909              1.131              0.536

 Optimization completed.
    -- Stationary point found.
 Normal termination of Gaussian 09 at Fri Aug  5 07:31:55 2016.
