 Gaussian 09, Revision E.01,
 Gaussian 09:  EM64L-G09RevE.01 30-Nov-2015

 ---------------------------------------------
 #p b3lyp/6-311++G(3df,2p) freq symmetry=Loose
 ---------------------------------------------

 ---------
 b3lyp opt
 ---------
 Symbolic Z-matrix:
 Charge =  0 Multiplicity = 4

                         Standard orientation:
 ---------------------------------------------------------------------
 Center     Atomic      Atomic             Coordinates (Angstroms)
 Number     Number       Type             X           Y           Z
 ---------------------------------------------------------------------
      1          7           0        0.000056    1.016337    0.000000
      2          6           0        0.000169   -0.249909   -0.000000
      3          6           0       -0.000078   -1.581187    0.660457
      4          6           0       -0.000078   -1.581187   -0.660457
      5          6           0       -0.000078    2.226590    0.000000
 ---------------------------------------------------------------------

 SCF Done:  E(UB3LYP) =  -206.850635930     A.U. after   16 cycles

 The electronic state is 4-A".
 Alpha  occ. eigenvalues --  -14.39732 -10.31436 -10.31259 -10.31167 -10.23937
 Alpha  occ. eigenvalues --   -1.02366  -0.96343  -0.78456  -0.56924  -0.53609
 Alpha  occ. eigenvalues --   -0.49011  -0.43394  -0.40252  -0.39292  -0.34117
 Alpha  occ. eigenvalues --   -0.29275  -0.20040
 Alpha virt. eigenvalues --   -0.07675  -0.03713   0.00699   0.02263   0.02513
 Alpha virt. eigenvalues --    0.02901   0.04182   0.06390   0.06781   0.07630
 Alpha virt. eigenvalues --    0.09077   0.09983   0.10213   0.10582   0.11882

  Beta  occ. eigenvalues --  -14.40106 -10.30001 -10.29612 -10.29534 -10.22947
  Beta  occ. eigenvalues --   -1.00895  -0.93618  -0.76053  -0.50838  -0.49116
  Beta  occ. eigenvalues --   -0.45985  -0.39437  -0.36797  -0.32001
  Beta virt. eigenvalues --   -0.23724  -0.16600  -0.08630  -0.04108  -0.01243
  Beta virt. eigenvalues --    0.01585   0.02960   0.03345   0.03639   0.05082
  Beta virt. eigenvalues --    0.06789   0.07452   0.08345   0.10749   0.10878

 Mulliken charges and spin densities:
               1          2
     1  N   -0.663894  -0.200829
     2  C    0.582953   0.662862
     3  C    0.058656   0.959281
     4  C    0.058656   0.959281
     5  C   -0.036371   0.619406
 Sum of Mulliken charges =  -0.00000   3.00000

 Dipole moment (field-independent basis, Debye):
    X=              0.0000    Y=             -3.1103    Z=             -0.0000  Tot=              3.1103
 Quadrupole moment (field-independent basis, Debye-Ang):
   XX=            -28.1588   YY=            -36.2219   ZZ=            -26.8018
   XY=              0.0006   XZ=              0.0000   YZ=             -0.0000

  Exact polarizability:  35.122  -0.001  95.200  -0.000  -0.000  44.926
 Approx polarizability:  48.766  -0.004 162.324   0.000  -0.000  85.461

 ******    1 imaginary frequencies (negative Signs) ******

                      1                      2                      3
                     A'                     A"                     A"
 Frequencies --   -323.7334               160.4160               257.0070
 Red. masses --     12.1156                12.4436                12.0058
 Frc consts  --      0.7481                 0.1887                 0.4672
 IR Inten    --      0.3530                 0.0487                14.7841

                      4                      5                      6
                     A'                     A"                     A'
 Frequencies --    310.9853               471.2325               703.8893
 Red. masses --     13.1268                12.7708                12.3348
 Frc consts  --      0.7480                 1.6709                 3.6007
 IR Inten    --      3.3802                 4.0986                 7.0411

                      7                      8                      9
                     A'                     A'                     A'
 Frequencies --   1445.8426              1626.1722              1793.7440
 Red. masses --     12.0025                12.0436                13.0403
 Frc consts  --     14.7830                18.7646                24.7205
 IR Inten    --      2.1261                33.5263                21.9371

 - Thermochemistry -
 -------------------
 Temperature   298.150 Kelvin.  Pressure   1.00000 Atm.
 Atom     1 has atomic number  7 and mass  14.00307

 Molecular mass:    62.00307 amu.
 Principal axes and moments of inertia in atomic units:
                           1         2         3
     Eigenvalues --    37.38502 481.05778 518.44279
           X            0.00001   0.00000   1.00000
           Y            1.00000  -0.00000  -0.00001
           Z            0.00000   1.00000  -0.00000
 This molecule is an asymmetric top.
 Rotational symmetry number  1.
 Rotational temperatures (Kelvin)      2.31681     0.18005     0.16707
 Rotational constants (GHZ):          48.27445     3.75161     3.48108
    1 imaginary frequencies ignored.
 Zero-point vibrational energy      40489.3 (Joules/Mol)
                                    9.67718 (Kcal/Mol)
 Warning -- explicit consideration of   4 degrees of freedom as
           vibrations may cause significant error
 Vibrational temperatures:    230.80   369.78   447.44   678.00  1012.74
          (Kelvin)           2080.24  2339.70  2580.79

 Zero-point correction=                           0.015422 (Hartree/Particle)
 Thermal correction to Energy=                    0.020131
 Thermal correction to Enthalpy=                  0.021075
 Thermal correction to Gibbs Free Energy=        -0.012869
 Sum of electronic and zero-point Energies=           -206.835214
 Sum of electronic and thermal Energies=              -206.830505
 Sum of electronic and thermal Enthalpies=            -206.829561
 Sum of electronic and thermal Free Energies=         -206.863505

                     E (Thermal)             CV                S
                      KCal/Mol        Cal/Mol-Kelvin    Cal/Mol-Kelvin
 Total                   12.632             13.556             71.441
 Electronic               0.000              0.000              2.755
 Translational            0.889              2.981             38.293
 Rotational               0.889              2.981             23.748
 Vibrational             10.855              7.594              6.645
 Vibration     1          0.622              1.891              2.545
 Vibration     2          0.667              1.751              1.682
 Vibration     3          0.700              1.653              1.357
 Vibration     4          0.828              1.314              0.734

 Optimization completed.
    -- Stationary point found.
 Normal termination of Gaussian 09 at Fri Aug  5 07:06:41 2016.
