 Gaussian 09, Revision E.01,
 Gaussian 09:  EM64L-G09RevE.01 30-Nov-2015

 ---------------------------------------------
 #p b3lyp/6-311++G(3df,2p) freq symmetry=Loose
 ---------------------------------------------

 ---------
 b3lyp opt
 ---------
 Symbolic Z-matrix:
 Charge =  1 Multiplicity = 3

                         Standard orientation:
 ---------------------------------------------------------------------
 Center     Atomic      Atomic             Coordinates (Angstroms)
 Number     Number       Type             X           Y           Z
 ---------------------------------------------------------------------
      1          7           0        0.003929    0.978076   -0.002919
      2          6           0       -1.070184   -0.080416    0.000348
      3          6           0       -0.002135   -0.489897   -0.870937
      4          6           0       -0.001725   -0.484354    0.873963
      5          6           0        1.069460   -0.086422    0.000031
 ---------------------------------------------------------------------

 SCF Done:  E(UB3LYP) =  -206.394731390     A.U. after   18 cycles

 The electronic state is 3-A.
 Alpha  occ. eigenvalues --  -14.72780 -10.61649 -10.61638 -10.60991 -10.60986
 Alpha  occ. eigenvalues --   -1.45496  -1.05144  -1.03506  -0.96713  -0.75057
 Alpha  occ. eigenvalues --   -0.74367  -0.73687  -0.66957  -0.62901  -0.62574
 Alpha  occ. eigenvalues --   -0.60438
 Alpha virt. eigenvalues --   -0.38965  -0.34853  -0.29443  -0.22323  -0.18006
 Alpha virt. eigenvalues --   -0.15892  -0.13156  -0.12541  -0.08906  -0.08351
 Alpha virt. eigenvalues --   -0.06805  -0.06658  -0.06256  -0.06213  -0.05776

  Beta  occ. eigenvalues --  -14.73077 -10.60176 -10.60165 -10.59868 -10.59856
  Beta  occ. eigenvalues --   -1.44760  -1.03490  -1.02572  -0.94845  -0.73002
  Beta  occ. eigenvalues --   -0.72496  -0.70269  -0.62029  -0.61248
  Beta virt. eigenvalues --   -0.49486  -0.42935  -0.35963  -0.33330  -0.27836
  Beta virt. eigenvalues --   -0.19819  -0.16188  -0.14511  -0.12675  -0.11299
  Beta virt. eigenvalues --   -0.08096  -0.08038  -0.06483  -0.06453  -0.05756

 Mulliken charges and spin densities:
               1          2
     1  N   -0.230446  -0.145735
     2  C    0.501083   0.708760
     3  C    0.114201   0.363566
     4  C    0.114130   0.364124
     5  C    0.501033   0.709285
 Sum of Mulliken charges =   1.00000   2.00000

 Dipole moment (field-independent basis, Debye):
    X=             -0.0024    Y=             -0.9566    Z=              0.0028  Tot=              0.9566
 Quadrupole moment (field-independent basis, Debye-Ang):
   XX=            -21.2502   YY=            -23.5643   ZZ=            -22.3171
   XY=             -0.0007   XZ=              0.0004   YZ=              0.0042

  Exact polarizability:  39.904  -0.010  32.625   0.000   0.013  36.046
 Approx polarizability:  75.544   0.085  81.807   0.007   0.024  83.828

 ******    1 imaginary frequencies (negative Signs) ******

                      1                      2                      3
                      A                      A                      A
 Frequencies --   -351.7713               308.5356               400.9708
 Red. masses --     12.7614                12.8363                12.0015
 Frc consts  --      0.9304                 0.7199                 1.1369
 IR Inten    --      0.0093                 0.2790                 3.8195

                      4                      5                      6
                      A                      A                      A
 Frequencies --    700.1484               899.2906               903.7436
 Red. masses --     12.0007                12.0002                13.4303
 Frc consts  --      3.4661                 5.7179                 6.4629
 IR Inten    --      0.1592                26.1002                 5.2901

                      7                      8                      9
                      A                      A                      A
 Frequencies --    917.9795              1333.0610              1339.1340
 Red. masses --     12.0000                12.0552                12.0491
 Frc consts  --      5.9580                12.6219                12.7307
 IR Inten    --      0.1202                30.8962                 1.2048

 - Thermochemistry -
 -------------------
 Temperature   298.150 Kelvin.  Pressure   1.00000 Atm.
 Atom     1 has atomic number  7 and mass  14.00307

 Molecular mass:    62.00307 amu.
 Principal axes and moments of inertia in atomic units:
                           1         2         3
     Eigenvalues --   134.00939 163.32979 166.86505
           X            1.00000  -0.00000   0.00000
           Y            0.00000   1.00000   0.00001
           Z           -0.00000  -0.00001   1.00000
 This molecule is an asymmetric top.
 Rotational symmetry number  1.
 Rotational temperatures (Kelvin)      0.64633     0.53030     0.51907
 Rotational constants (GHZ):          13.46727    11.04968    10.81557
    1 imaginary frequencies ignored.
 Zero-point vibrational energy      40690.2 (Joules/Mol)
                                    9.72518 (Kcal/Mol)
 Warning -- explicit consideration of   2 degrees of freedom as
           vibrations may cause significant error
 Vibrational temperatures:    443.91   576.91  1007.36  1293.88  1300.28
          (Kelvin)           1320.77  1917.97  1926.71

 Zero-point correction=                           0.015498 (Hartree/Particle)
 Thermal correction to Energy=                    0.019338
 Thermal correction to Enthalpy=                  0.020283
 Thermal correction to Gibbs Free Energy=        -0.011258
 Sum of electronic and zero-point Energies=           -206.379233
 Sum of electronic and thermal Energies=              -206.375393
 Sum of electronic and thermal Enthalpies=            -206.374449
 Sum of electronic and thermal Free Energies=         -206.405990

                     E (Thermal)             CV                S
                      KCal/Mol        Cal/Mol-Kelvin    Cal/Mol-Kelvin
 Total                   12.135             11.651             66.383
 Electronic               0.000              0.000              2.183
 Translational            0.889              2.981             38.293
 Rotational               0.889              2.981             22.817
 Vibrational             10.358              5.689              3.090
 Vibration     1          0.698              1.657              1.370
 Vibration     2          0.767              1.468              0.959

 Optimization completed.
    -- Stationary point found.
 Normal termination of Gaussian 09 at Fri Aug  5 07:49:09 2016.
