 Gaussian 09, Revision E.01,
 Gaussian 09:  EM64L-G09RevE.01 30-Nov-2015

 ---------------------------------------------
 #p b3lyp/6-311++G(3df,2p) freq symmetry=Loose
 ---------------------------------------------

 ---------
 b3lyp opt
 ---------
 Symbolic Z-matrix:
 Charge =  0 Multiplicity = 4

                         Standard orientation:
 ---------------------------------------------------------------------
 Center     Atomic      Atomic             Coordinates (Angstroms)
 Number     Number       Type             X           Y           Z
 ---------------------------------------------------------------------
      1          6           0       -0.000000    0.655818   -1.642545
      2          6           0       -0.000000   -0.655818   -1.642545
      3          6           0       -0.000000   -0.000000   -0.306371
      4          7           0        0.000000    0.000000    2.202428
      5          6           0        0.000000    0.000000    1.022054
 ---------------------------------------------------------------------

 SCF Done:  E(UB3LYP) =  -206.895342431     A.U. after   16 cycles

 The electronic state is 4-A2.
 Alpha  occ. eigenvalues --  -14.34978 -10.31738 -10.31636 -10.29467 -10.23740
 Alpha  occ. eigenvalues --   -0.98741  -0.93600  -0.75615  -0.56284  -0.52909
 Alpha  occ. eigenvalues --   -0.46784  -0.40953  -0.40075  -0.39816  -0.38364
 Alpha  occ. eigenvalues --   -0.30712  -0.22507
 Alpha virt. eigenvalues --   -0.07859  -0.03006   0.00819   0.01985   0.03294
 Alpha virt. eigenvalues --    0.03607   0.06335   0.06849   0.07113   0.07566
 Alpha virt. eigenvalues --    0.09240   0.10176   0.11522   0.12133   0.12830

  Beta  occ. eigenvalues --  -14.33669 -10.30061 -10.29976 -10.28027 -10.24151
  Beta  occ. eigenvalues --   -0.95363  -0.91432  -0.72554  -0.49133  -0.48825
  Beta  occ. eigenvalues --   -0.42738  -0.38308  -0.36240  -0.34965
  Beta virt. eigenvalues --   -0.23859  -0.17772  -0.10928  -0.04087  -0.00436
  Beta virt. eigenvalues --    0.01426   0.02681   0.03958   0.04046   0.06651
  Beta virt. eigenvalues --    0.07356   0.07671   0.08140   0.10759   0.11989

 Mulliken charges and spin densities:
               1          2
     1  C    0.051463   0.952202
     2  C    0.051463   0.952202
     3  C    0.769039   0.677746
     4  N   -0.909283   0.645030
     5  C    0.037318  -0.227179
 Sum of Mulliken charges =  -0.00000   3.00000

 Dipole moment (field-independent basis, Debye):
    X=             -0.0000    Y=             -0.0000    Z=             -3.3452  Tot=              3.3452
 Quadrupole moment (field-independent basis, Debye-Ang):
   XX=            -27.7967   YY=            -26.5093   ZZ=            -34.4529
   XY=             -0.0000   XZ=             -0.0000   YZ=             -0.0000

  Exact polarizability:  32.285  -0.000  42.072   0.000  -0.000  87.217
 Approx polarizability:  45.172   0.000  80.271   0.000   0.000 156.658

 ******    1 imaginary frequencies (negative Signs) ******

                      1                      2                      3
                     B1                     B2                     B1
 Frequencies --   -117.6489               197.2158               378.1939
 Red. masses --     12.1059                12.4787                12.4430
 Frc consts  --      0.0987                 0.2860                 1.0486
 IR Inten    --      0.6415                 1.1272                 8.5958

                      4                      5                      6
                     B2                     B2                     A1
 Frequencies --    417.3380               554.8572               683.1267
 Red. masses --     12.0100                12.1154                12.5099
 Frc consts  --      1.2325                 2.1976                 3.4396
 IR Inten    --      9.4017                20.7698                 0.7825

                      7                      8                      9
                     A1                     A1                     A1
 Frequencies --   1397.0584              1655.3104              2000.7845
 Red. masses --     12.2472                12.0467                12.5776
 Frc consts  --     14.0836                19.4480                29.6654
 IR Inten    --     22.8547                58.2620                19.4098

 - Thermochemistry -
 -------------------
 Temperature   298.150 Kelvin.  Pressure   1.00000 Atm.
 Atom     1 has atomic number  6 and mass  12.00000

 Molecular mass:    62.00307 amu.
 Principal axes and moments of inertia in atomic units:
                           1         2         3
     Eigenvalues --    36.86169 522.57879 559.44048
           X            0.00000  -0.00000   1.00000
           Y            0.00000   1.00000   0.00000
           Z            1.00000  -0.00000  -0.00000
 This molecule is an asymmetric top.
 Rotational symmetry number  2.
 Rotational temperatures (Kelvin)      2.34970     0.16574     0.15482
 Rotational constants (GHZ):          48.95980     3.45353     3.22598
    1 imaginary frequencies ignored.
 Zero-point vibrational energy      43567.3 (Joules/Mol)
                                   10.41284 (Kcal/Mol)
 Warning -- explicit consideration of   4 degrees of freedom as
           vibrations may cause significant error
 Vibrational temperatures:    283.75   544.14   600.46   798.31   982.87
          (Kelvin)           2010.05  2381.62  2878.68

 Zero-point correction=                           0.016594 (Hartree/Particle)
 Thermal correction to Energy=                    0.020933
 Thermal correction to Enthalpy=                  0.021877
 Thermal correction to Gibbs Free Energy=        -0.010696
 Sum of electronic and zero-point Energies=           -206.878749
 Sum of electronic and thermal Energies=              -206.874410
 Sum of electronic and thermal Enthalpies=            -206.873466
 Sum of electronic and thermal Free Energies=         -206.906039

                     E (Thermal)             CV                S
                      KCal/Mol        Cal/Mol-Kelvin    Cal/Mol-Kelvin
 Total                   13.135             12.907             68.556
 Electronic               0.000              0.000              2.755
 Translational            0.889              2.981             38.293
 Rotational               0.889              2.981             22.515
 Vibrational             11.358              6.946              4.993
 Vibration     1          0.637              1.844              2.159
 Vibration     2          0.748              1.517              1.046
 Vibration     3          0.780              1.433              0.901
 Vibration     4          0.910              1.129              0.534

 Optimization completed.
    -- Stationary point found.
 Normal termination of Gaussian 09 at Fri Aug  5 07:13:11 2016.
