 Gaussian 09, Revision E.01,
 Gaussian 09:  EM64L-G09RevE.01 30-Nov-2015

 ---------------------------------------------
 #p b3lyp/6-311++G(3df,2p) freq symmetry=Loose
 ---------------------------------------------

 ---------
 b3lyp opt
 ---------
 Symbolic Z-matrix:
 Charge =  0 Multiplicity = 4

                         Standard orientation:
 ---------------------------------------------------------------------
 Center     Atomic      Atomic             Coordinates (Angstroms)
 Number     Number       Type             X           Y           Z
 ---------------------------------------------------------------------
      1          6           0       -1.641567    0.655882   -0.001035
      2          6           0       -0.305977   -0.000227    0.003159
      3          6           0        1.022028   -0.000388    0.000037
      4          7           0        2.202220   -0.000019   -0.000963
      5          6           0       -1.643740   -0.655245   -0.001037
 ---------------------------------------------------------------------

 SCF Done:  E(UB3LYP) =  -206.895341967     A.U. after   17 cycles

 The electronic state is 4-A.
 Alpha  occ. eigenvalues --  -14.34976 -10.31729 -10.31626 -10.29466 -10.23734
 Alpha  occ. eigenvalues --   -0.98737  -0.93610  -0.75631  -0.56269  -0.52917
 Alpha  occ. eigenvalues --   -0.46785  -0.40952  -0.40081  -0.39818  -0.38371
 Alpha  occ. eigenvalues --   -0.30703  -0.22517
 Alpha virt. eigenvalues --   -0.07843  -0.03003   0.00819   0.01985   0.03296
 Alpha virt. eigenvalues --    0.03609   0.06334   0.06850   0.07109   0.07574
 Alpha virt. eigenvalues --    0.09241   0.10179   0.11525   0.12133   0.12823

  Beta  occ. eigenvalues --  -14.33666 -10.30053 -10.29967 -10.28024 -10.24145
  Beta  occ. eigenvalues --   -0.95359  -0.91440  -0.72569  -0.49120  -0.48837
  Beta  occ. eigenvalues --   -0.42740  -0.38308  -0.36245  -0.34971
  Beta virt. eigenvalues --   -0.23858  -0.17763  -0.10934  -0.04074  -0.00430
  Beta virt. eigenvalues --    0.01426   0.02681   0.03959   0.04047   0.06651
  Beta virt. eigenvalues --    0.07358   0.07670   0.08142   0.10762   0.11995

 Mulliken charges and spin densities:
               1          2
     1  C    0.051631   0.949754
     2  C    0.769257   0.678496
     3  C    0.036831  -0.227415
     4  N   -0.909735   0.645482
     5  C    0.052016   0.953683
 Sum of Mulliken charges =  -0.00000   3.00000

 Dipole moment (field-independent basis, Debye):
    X=             -3.3442    Y=             -0.0019    Z=             -0.0011  Tot=              3.3442
 Quadrupole moment (field-independent basis, Debye-Ang):
   XX=            -34.4475   YY=            -26.5108   ZZ=            -27.7947
   XY=              0.0045   XZ=              0.0079   YZ=              0.0000

  Exact polarizability:  87.202   0.016  42.073  -0.010  -0.000  32.281
 Approx polarizability: 156.629   0.112  80.242  -0.034   0.000  45.166

 ******    1 imaginary frequencies (negative Signs) ******

                      1                      2                      3
                      A                      A                      A
 Frequencies --   -117.4273               196.3354               377.2396
 Red. masses --     12.1059                12.4789                12.4431
 Frc consts  --      0.0984                 0.2834                 1.0433
 IR Inten    --      0.6435                 1.1530                 8.6073

                      4                      5                      6
                      A                      A                      A
 Frequencies --    417.1627               554.1541               683.0235
 Red. masses --     12.0106                12.1148                12.5092
 Frc consts  --      1.2315                 2.1919                 3.4384
 IR Inten    --      9.3086                20.8678                 0.7971

                      7                      8                      9
                      A                      A                      A
 Frequencies --   1397.9770              1657.1421              2002.2589
 Red. masses --     12.2487                12.0461                12.5772
 Frc consts  --     14.1040                19.4903                29.7081
 IR Inten    --     23.0648                57.8770                19.4318

 - Thermochemistry -
 -------------------
 Temperature   298.150 Kelvin.  Pressure   1.00000 Atm.
 Atom     1 has atomic number  6 and mass  12.00000

 Molecular mass:    62.00307 amu.
 Principal axes and moments of inertia in atomic units:
                           1         2         3
     Eigenvalues --    36.83373 522.55160 559.38420
           X            1.00000   0.00000   0.00000
           Y           -0.00000   1.00000  -0.00000
           Z           -0.00000   0.00000   1.00000
 This molecule is an asymmetric top.
 Rotational symmetry number  1.
 Rotational temperatures (Kelvin)      2.35148     0.16575     0.15484
 Rotational constants (GHZ):          48.99698     3.45371     3.22630
    1 imaginary frequencies ignored.
 Zero-point vibrational energy      43575.7 (Joules/Mol)
                                   10.41485 (Kcal/Mol)
 Warning -- explicit consideration of   4 degrees of freedom as
           vibrations may cause significant error
 Vibrational temperatures:    282.48   542.76   600.20   797.30   982.72
          (Kelvin)           2011.37  2384.25  2880.80

 Zero-point correction=                           0.016597 (Hartree/Particle)
 Thermal correction to Energy=                    0.020939
 Thermal correction to Enthalpy=                  0.021883
 Thermal correction to Gibbs Free Energy=        -0.011351
 Sum of electronic and zero-point Energies=           -206.878745
 Sum of electronic and thermal Energies=              -206.874403
 Sum of electronic and thermal Enthalpies=            -206.873459
 Sum of electronic and thermal Free Energies=         -206.906693

                     E (Thermal)             CV                S
                      KCal/Mol        Cal/Mol-Kelvin    Cal/Mol-Kelvin
 Total                   13.139             12.912             69.946
 Electronic               0.000              0.000              2.755
 Translational            0.889              2.981             38.293
 Rotational               0.889              2.981             23.891
 Vibrational             11.362              6.950              5.007
 Vibration     1          0.636              1.845              2.167
 Vibration     2          0.748              1.519              1.050
 Vibration     3          0.780              1.433              0.902
 Vibration     4          0.910              1.131              0.536

 Normal termination of Gaussian 09 at Fri Aug  5 07:22:52 2016.
