 Gaussian 09, Revision E.01,
 Gaussian 09:  EM64L-G09RevE.01 30-Nov-2015

 ---------------------------------------------
 #p b3lyp/6-311++G(3df,2p) freq symmetry=Loose
 ---------------------------------------------

 ---------
 b3lyp opt
 ---------
 Symbolic Z-matrix:
 Charge =  1 Multiplicity = 1

                         Standard orientation:
 ---------------------------------------------------------------------
 Center     Atomic      Atomic             Coordinates (Angstroms)
 Number     Number       Type             X           Y           Z
 ---------------------------------------------------------------------
      1          7           0        0.000279    0.025938    0.858932
      2          6           0        1.052364   -0.608580   -0.021092
      3          6           0       -0.000297   -0.026466   -0.898491
      4          6           0       -1.052509   -0.608346   -0.020577
      5          6           0        0.000117    1.213131   -0.061927
 ---------------------------------------------------------------------

 SCF Done:  E(RB3LYP) =  -206.399987882     A.U. after   13 cycles

 The electronic state is 1-A.
 Alpha  occ. eigenvalues --  -14.76188 -10.61594 -10.61574 -10.61573 -10.60793
 Alpha  occ. eigenvalues --   -1.42948  -1.02316  -1.00039  -1.00025  -0.73047
 Alpha  occ. eigenvalues --   -0.73027  -0.71617  -0.63608  -0.60347  -0.60345
 Alpha virt. eigenvalues --   -0.42793  -0.42786  -0.41873  -0.34025  -0.20356
 Alpha virt. eigenvalues --   -0.17442  -0.17090  -0.12877  -0.12292  -0.12165
 Alpha virt. eigenvalues --   -0.08554  -0.07547  -0.07496  -0.06977  -0.06965

 Mulliken charges:
               1
     1  N   -0.223726
     2  C    0.173492
     3  C    0.696555
     4  C    0.173379
     5  C    0.180299
 Sum of Mulliken charges =   1.00000

 Dipole moment (field-independent basis, Debye):
    X=             -0.0002    Y=             -0.0269    Z=             -0.9993  Tot=              0.9996
 Quadrupole moment (field-independent basis, Debye-Ang):
   XX=            -23.6461   YY=            -23.6428   ZZ=            -22.6192
   XY=             -0.0000   XZ=              0.0010   YZ=              0.0866

  Exact polarizability:  44.583   0.000  44.574  -0.002  -0.157  35.120
 Approx polarizability: 121.648  -0.000 121.697  -0.002  -0.184  95.298

 ******    2 imaginary frequencies (negative Signs) ******

                      1                      2                      3
                      A                      A                      A
 Frequencies --   -207.5147              -188.5211               597.5028
 Red. masses --     12.7154                12.7260                12.1389
 Frc consts  --      0.3226                 0.2665                 2.5533
 IR Inten    --      0.8988                 0.9258                11.5011

                      4                      5                      6
                      A                      A                      A
 Frequencies --    600.0540               694.5289               822.0602
 Red. masses --     12.1381                12.0057                12.9165
 Frc consts  --      2.5750                 3.4121                 5.1428
 IR Inten    --     11.6680                 1.7556                36.3817

                      7                      8                      9
                      A                      A                      A
 Frequencies --    966.2350               971.7081              1190.8509
 Red. masses --     12.1395                12.1288                12.4888
 Frc consts  --      6.6775                 6.7474                10.4348
 IR Inten    --     46.0856                46.6259                 1.6391

 - Thermochemistry -
 -------------------
 Temperature   298.150 Kelvin.  Pressure   1.00000 Atm.
 Atom     1 has atomic number  7 and mass  14.00307

 Molecular mass:    62.00307 amu.
 Principal axes and moments of inertia in atomic units:
                           1         2         3
     Eigenvalues --   166.54863 166.61797 189.78945
           X            1.00000  -0.00000  -0.00000
           Y            0.00000   1.00000  -0.00001
           Z            0.00000   0.00001   1.00000
 This molecule is an asymmetric top.
 Rotational symmetry number  1.
 Rotational temperatures (Kelvin)      0.52005     0.51983     0.45637
 Rotational constants (GHZ):          10.83612    10.83161     9.50918
    2 imaginary frequencies ignored.
 Zero-point vibrational energy      34948.5 (Joules/Mol)
                                    8.35290 (Kcal/Mol)
 Warning -- explicit consideration of   2 degrees of freedom as
           vibrations may cause significant error
 Vibrational temperatures:    859.67   863.34   999.27  1182.76  1390.19
          (Kelvin)           1398.07  1713.37

 Zero-point correction=                           0.013311 (Hartree/Particle)
 Thermal correction to Energy=                    0.016753
 Thermal correction to Enthalpy=                  0.017697
 Thermal correction to Gibbs Free Energy=        -0.012301
 Sum of electronic and zero-point Energies=           -206.386677
 Sum of electronic and thermal Energies=              -206.383235
 Sum of electronic and thermal Enthalpies=            -206.382291
 Sum of electronic and thermal Free Energies=         -206.412289

                     E (Thermal)             CV                S
                      KCal/Mol        Cal/Mol-Kelvin    Cal/Mol-Kelvin
 Total                   10.512             10.521             63.135
 Electronic               0.000              0.000              0.000
 Translational            0.889              2.981             38.293
 Rotational               0.889              2.981             23.181
 Vibrational              8.735              4.559              1.661
 Vibration     1          0.955              1.037              0.454
 Vibration     2          0.958              1.032              0.450

 Normal termination of Gaussian 09 at Fri Aug  5 07:32:53 2016.
