 Gaussian 09, Revision E.01,
 Gaussian 09:  EM64L-G09RevE.01 30-Nov-2015

 ---------------------------------------------
 #p b3lyp/6-311++G(3df,2p) freq symmetry=Loose
 ---------------------------------------------

 ---------
 b3lyp opt
 ---------
 Symbolic Z-matrix:
 Charge =  1 Multiplicity = 3

                         Standard orientation:
 ---------------------------------------------------------------------
 Center     Atomic      Atomic             Coordinates (Angstroms)
 Number     Number       Type             X           Y           Z
 ---------------------------------------------------------------------
      1          7           0       -1.255249   -0.463809   -0.032270
      2          6           0        0.121852   -0.608404   -0.003953
      3          6           0       -0.898657    0.750080    0.063694
      4          6           0        0.795881    0.782700   -0.065276
      5          6           0        1.445381   -0.383265    0.043183
 ---------------------------------------------------------------------

 SCF Done:  E(UB3LYP) =  -206.491260528     A.U. after   17 cycles

 The electronic state is 3-A.
 Alpha  occ. eigenvalues --  -14.68226 -10.63971 -10.62504 -10.59657 -10.56038
 Alpha  occ. eigenvalues --   -1.38755  -1.23218  -0.94846  -0.88749  -0.81390
 Alpha  occ. eigenvalues --   -0.77540  -0.73489  -0.67183  -0.63041  -0.58455
 Alpha  occ. eigenvalues --   -0.56087
 Alpha virt. eigenvalues --   -0.42044  -0.29219  -0.28650  -0.24926  -0.20889
 Alpha virt. eigenvalues --   -0.15377  -0.12070  -0.11778  -0.10338  -0.09392
 Alpha virt. eigenvalues --   -0.09122  -0.06232  -0.06136  -0.05336  -0.04896

  Beta  occ. eigenvalues --  -14.67950 -10.63666 -10.61041 -10.58242 -10.54614
  Beta  occ. eigenvalues --   -1.38145  -1.22298  -0.91894  -0.86462  -0.78296
  Beta  occ. eigenvalues --   -0.76906  -0.68480  -0.61869  -0.61790
  Beta virt. eigenvalues --   -0.44018  -0.42729  -0.40014  -0.28048  -0.25345
  Beta virt. eigenvalues --   -0.21808  -0.19087  -0.13880  -0.11985  -0.11042
  Beta virt. eigenvalues --   -0.09669  -0.08939  -0.08128  -0.06108  -0.05492

 Mulliken charges and spin densities:
               1          2
     1  N   -0.415681   0.001685
     2  C    0.674070   0.059570
     3  C    0.424640   0.694710
     4  C    0.084637   0.580484
     5  C    0.232334   0.663550
 Sum of Mulliken charges =   1.00000   2.00000

 Dipole moment (field-independent basis, Debye):
    X=              0.6140    Y=              0.7126    Z=              0.0459  Tot=              0.9418
 Quadrupole moment (field-independent basis, Debye-Ang):
   XX=            -21.3989   YY=            -22.1483   ZZ=            -23.6460
   XY=             -1.5298   XZ=              0.0043   YZ=              0.0234

  Exact polarizability:  53.541  -3.834  35.110  -0.026  -0.144  23.100
 Approx polarizability: 111.925  -6.844  75.116   0.713  -0.513  36.293

 ******    1 imaginary frequencies (negative Signs) ******

                      1                      2                      3
                      A                      A                      A
 Frequencies --    -65.8833               381.6099               483.1431
 Red. masses --     12.1650                12.0711                12.3645
 Frc consts  --      0.0311                 1.0357                 1.7005
 IR Inten    --      1.7732                 0.7757                 7.6178

                      4                      5                      6
                      A                      A                      A
 Frequencies --    516.3668               799.0106               866.1770
 Red. masses --     12.1876                12.2078                12.8677
 Frc consts  --      1.9146                 4.5919                 5.6880
 IR Inten    --      3.0877                33.7458                 6.2995

                      7                      8                      9
                      A                      A                      A
 Frequencies --   1302.0444              1522.6703              1685.3195
 Red. masses --     12.1266                12.5492                12.2599
 Frc consts  --     12.1127                17.1427                20.5165
 IR Inten    --      9.5773                12.0027                23.4536

 - Thermochemistry -
 -------------------
 Temperature   298.150 Kelvin.  Pressure   1.00000 Atm.
 Atom     1 has atomic number  7 and mass  14.00307

 Molecular mass:    62.00307 amu.
 Principal axes and moments of inertia in atomic units:
                           1         2         3
     Eigenvalues --    83.76551 231.19332 313.98064
           X            1.00000  -0.00004  -0.00000
           Y            0.00004   1.00000  -0.00000
           Z            0.00000   0.00000   1.00000
 This molecule is an asymmetric top.
 Rotational symmetry number  1.
 Rotational temperatures (Kelvin)      1.03400     0.37464     0.27586
 Rotational constants (GHZ):          21.54516     7.80620     5.74794
    1 imaginary frequencies ignored.
 Zero-point vibrational energy      45197.0 (Joules/Mol)
                                   10.80233 (Kcal/Mol)
 Warning -- explicit consideration of   3 degrees of freedom as
           vibrations may cause significant error
 Vibrational temperatures:    549.05   695.13   742.94  1149.60  1246.23
          (Kelvin)           1873.35  2190.78  2424.80

 Zero-point correction=                           0.017215 (Hartree/Particle)
 Thermal correction to Energy=                    0.020982
 Thermal correction to Enthalpy=                  0.021926
 Thermal correction to Gibbs Free Energy=        -0.009701
 Sum of electronic and zero-point Energies=           -206.474046
 Sum of electronic and thermal Energies=              -206.470279
 Sum of electronic and thermal Enthalpies=            -206.469334
 Sum of electronic and thermal Free Energies=         -206.500961

                     E (Thermal)             CV                S
                      KCal/Mol        Cal/Mol-Kelvin    Cal/Mol-Kelvin
 Total                   13.166             11.427             66.564
 Electronic               0.000              0.000              2.183
 Translational            0.889              2.981             38.293
 Rotational               0.889              2.981             23.324
 Vibrational             11.389              5.466              2.764
 Vibration     1          0.751              1.509              1.033
 Vibration     2          0.839              1.287              0.702
 Vibration     3          0.871              1.214              0.618

 Normal termination of Gaussian 09 at Fri Aug  5 07:40:09 2016.
