 Gaussian 09, Revision E.01,
 Gaussian 09:  EM64L-G09RevE.01 30-Nov-2015

 ---------------------------------------------
 #p b3lyp/6-311++G(3df,2p) freq symmetry=Loose
 ---------------------------------------------

 ---------
 b3lyp opt
 ---------
 Symbolic Z-matrix:
 Charge =  1 Multiplicity = 1

                         Standard orientation:
 ---------------------------------------------------------------------
 Center     Atomic      Atomic             Coordinates (Angstroms)
 Number     Number       Type             X           Y           Z
 ---------------------------------------------------------------------
      1          6           0       -0.000000    0.642311   -1.592902
      2          6           0        0.000000   -0.642311   -1.592902
      3          6           0       -0.000000    0.000000   -0.358965
      4          7           0        0.000000   -0.000000    2.171896
      5          6           0        0.000000   -0.000000    1.010946
 ---------------------------------------------------------------------

 SCF Done:  E(RB3LYP) =  -206.592590720     A.U. after   11 cycles

 The electronic state is 1-A1.
 Alpha  occ. eigenvalues --  -14.64927 -10.64394 -10.56367 -10.56237 -10.51619
 Alpha  occ. eigenvalues --   -1.28838  -1.21476  -1.03107  -0.80650  -0.78000
 Alpha  occ. eigenvalues --   -0.73675  -0.65841  -0.64314  -0.63585  -0.59072
 Alpha virt. eigenvalues --   -0.48145  -0.40001  -0.28833  -0.26292  -0.17650
 Alpha virt. eigenvalues --   -0.16927  -0.14361  -0.11609  -0.11502  -0.09448
 Alpha virt. eigenvalues --   -0.07570  -0.06462  -0.06267  -0.06076  -0.04697

 Mulliken charges:
               1
     1  C    0.137837
     2  C    0.137837
     3  C    1.244123
     4  N   -0.702365
     5  C    0.182568
 Sum of Mulliken charges =   1.00000

 Dipole moment (field-independent basis, Debye):
    X=             -0.0000    Y=             -0.0000    Z=             -3.0196  Tot=              3.0196
 Quadrupole moment (field-independent basis, Debye-Ang):
   XX=            -23.5657   YY=            -24.1506   ZZ=            -15.5085
   XY=              0.0000   XZ=             -0.0000   YZ=             -0.0000

  Exact polarizability:  23.384   0.000  37.257  -0.000  -0.000  73.502
 Approx polarizability:  34.359  -0.000  92.614   0.000  -0.000 182.389

 ******    1 imaginary frequencies (negative Signs) ******

                      1                      2                      3
                     B2                     B1                     B2
 Frequencies --   -234.6847               209.4635               225.7565
 Red. masses --     12.0499                12.5059                12.5213
 Frc consts  --      0.3910                 0.3233                 0.3760
 IR Inten    --    246.0646                 6.1116                11.2299

                      4                      5                      6
                     B1                     B2                     A1
 Frequencies --    557.1816               573.5319               752.7399
 Red. masses --     12.0382                12.0271                12.6502
 Frc consts  --      2.2019                 2.3309                 4.2232
 IR Inten    --      0.6811                 6.9146                 0.6149

                      7                      8                      9
                     A1                     A1                     A1
 Frequencies --   1571.8243              1749.5217              2307.9336
 Red. masses --     12.1116                12.0268                12.6037
 Frc consts  --     17.6303                21.6889                39.5544
 IR Inten    --    212.8651                45.8063               588.9705

 - Thermochemistry -
 -------------------
 Temperature   298.150 Kelvin.  Pressure   1.00000 Atm.
 Atom     1 has atomic number  6 and mass  12.00000

 Molecular mass:    62.00307 amu.
 Principal axes and moments of inertia in atomic units:
                           1         2         3
     Eigenvalues --    35.35901 502.66630 538.02531
           X            0.00000   0.00000   1.00000
           Y           -0.00000   1.00000  -0.00000
           Z            1.00000   0.00000  -0.00000
 This molecule is an asymmetric top.
 Rotational symmetry number  2.
 Rotational temperatures (Kelvin)      2.44955     0.17231     0.16098
 Rotational constants (GHZ):          51.04049     3.59034     3.35438
    1 imaginary frequencies ignored.
 Zero-point vibrational energy      47539.3 (Joules/Mol)
                                   11.36217 (Kcal/Mol)
 Warning -- explicit consideration of   4 degrees of freedom as
           vibrations may cause significant error
 Vibrational temperatures:    301.37   324.81   801.66   825.18  1083.02
          (Kelvin)           2261.50  2517.17  3320.60

 Zero-point correction=                           0.018107 (Hartree/Particle)
 Thermal correction to Energy=                    0.022466
 Thermal correction to Enthalpy=                  0.023410
 Thermal correction to Gibbs Free Energy=        -0.007920
 Sum of electronic and zero-point Energies=           -206.574484
 Sum of electronic and thermal Energies=              -206.570125
 Sum of electronic and thermal Enthalpies=            -206.569181
 Sum of electronic and thermal Free Energies=         -206.600511

                     E (Thermal)             CV                S
                      KCal/Mol        Cal/Mol-Kelvin    Cal/Mol-Kelvin
 Total                   14.097             12.626             65.940
 Electronic               0.000              0.000              0.000
 Translational            0.889              2.981             38.293
 Rotational               0.889              2.981             22.396
 Vibrational             12.320              6.665              5.250
 Vibration     1          0.642              1.826              2.048
 Vibration     2          0.650              1.802              1.912
 Vibration     3          0.913              1.124              0.529
 Vibration     4          0.930              1.089              0.497

 Optimization completed.
    -- Stationary point found.
 Normal termination of Gaussian 09 at Fri Aug  5 07:31:05 2016.
