 Gaussian 09, Revision E.01,
 Gaussian 09:  EM64L-G09RevE.01 30-Nov-2015

 ---------------------------------------------
 #p b3lyp/6-311++G(3df,2p) freq symmetry=Loose
 ---------------------------------------------

 ---------
 b3lyp opt
 ---------
 Symbolic Z-matrix:
 Charge =  0 Multiplicity = 2

                         Standard orientation:
 ---------------------------------------------------------------------
 Center     Atomic      Atomic             Coordinates (Angstroms)
 Number     Number       Type             X           Y           Z
 ---------------------------------------------------------------------
      1          6           0       -1.449908   -0.000324   -0.001510
      2          6           0        1.033725   -0.894161   -0.165682
      3          7           0        1.938192    0.000179    0.303963
      4          6           0       -0.154320   -0.000155   -0.157910
      5          6           0        1.033401    0.894196   -0.165811
      6          6           0       -2.724122    0.000236    0.136290
 ---------------------------------------------------------------------

 SCF Done:  E(UB3LYP) =  -244.931340765     A.U. after   30 cycles

 The electronic state is 2-A.
 Alpha  occ. eigenvalues --  -14.41904 -10.36799 -10.36792 -10.30440 -10.23164
 Alpha  occ. eigenvalues --  -10.21458  -1.11973  -0.85867  -0.77077  -0.68630
 Alpha  occ. eigenvalues --   -0.65934  -0.52604  -0.52138  -0.43524  -0.38545
 Alpha  occ. eigenvalues --   -0.35881  -0.32461  -0.31057  -0.25810
 Alpha virt. eigenvalues --   -0.21486  -0.13731  -0.08355  -0.02217   0.00965
 Alpha virt. eigenvalues --    0.02381   0.02997   0.04124   0.06120   0.06602
 Alpha virt. eigenvalues --    0.06841   0.07123   0.08357   0.09279   0.10115

  Beta  occ. eigenvalues --  -14.41130 -10.36969 -10.36962 -10.29946 -10.22435
  Beta  occ. eigenvalues --  -10.21419  -1.11065  -0.84721  -0.75012  -0.68742
  Beta  occ. eigenvalues --   -0.64928  -0.52284  -0.50040  -0.43356  -0.37248
  Beta  occ. eigenvalues --   -0.33536  -0.31652  -0.29722
  Beta virt. eigenvalues --   -0.21904  -0.16233  -0.13887  -0.05481  -0.01489
  Beta virt. eigenvalues --    0.01021   0.02590   0.03115   0.04102   0.06373
  Beta virt. eigenvalues --    0.06686   0.07063   0.07392   0.08304   0.10391

 Mulliken charges and spin densities:
               1          2
     1  C    0.580150   0.139664
     2  C    0.066525  -0.113737
     3  N   -0.509223   0.353974
     4  C    0.168125   0.342633
     5  C    0.066355  -0.113957
     6  C   -0.371932   0.391424
 Sum of Mulliken charges =  -0.00000   1.00000

 Dipole moment (field-independent basis, Debye):
    X=              3.1903    Y=             -0.0008    Z=             -0.7802  Tot=              3.2844
 Quadrupole moment (field-independent basis, Debye-Ang):
   XX=            -49.5646   YY=            -32.8748   ZZ=            -33.2082
   XY=              0.0016   XZ=             -0.6904   YZ=             -0.0003

  Exact polarizability: 131.181   0.003  55.320  -6.191  -0.002  39.834
 Approx polarizability: 354.363  -0.018 136.537 -23.138  -0.005  63.184

 ******    1 imaginary frequencies (negative Signs) ******

                      1                      2                      3
                      A                      A                      A
 Frequencies --   -146.3985               130.5842               315.9227
 Red. masses --     12.6670                12.0825                12.1646
 Frc consts  --      0.1600                 0.1214                 0.7153
 IR Inten    --     10.2222                10.4453                19.4391

                      4                      5                      6
                      A                      A                      A
 Frequencies --    470.6755               509.9421               645.5105
 Red. masses --     12.1405                12.1789                12.4040
 Frc consts  --      1.5846                 1.8660                 3.0452
 IR Inten    --      0.5474                65.1386                19.4033

                      7                      8                      9
                      A                      A                      A
 Frequencies --    712.9811               723.7932              1324.9853
 Red. masses --     12.2382                12.0149                12.4941
 Frc consts  --      3.6654                 3.7085                12.9234
 IR Inten    --     12.6423                16.3430                54.1725

                     10                     11                     12
                      A                      A                      A
 Frequencies --   1425.3757              1584.6789              1962.9441
 Red. masses --     12.4551                12.4234                12.0206
 Frc consts  --     14.9092                18.3812                27.2893
 IR Inten    --     11.4642                 8.9491               562.4215

 - Thermochemistry -
 -------------------
 Temperature   298.150 Kelvin.  Pressure   1.00000 Atm.
 Atom     1 has atomic number  6 and mass  12.00000

 Molecular mass:    74.00307 amu.
 Principal axes and moments of inertia in atomic units:
                           1         2         3
     Eigenvalues --    77.36572 697.35662 757.04360
           X            1.00000  -0.00000  -0.00001
           Y            0.00000   1.00000  -0.00000
           Z            0.00001   0.00000   1.00000
 This molecule is an asymmetric top.
 Rotational symmetry number  1.
 Rotational temperatures (Kelvin)      1.11954     0.12420     0.11441
 Rotational constants (GHZ):          23.32740     2.58797     2.38393
    1 imaginary frequencies ignored.
 Zero-point vibrational energy      58661.2 (Joules/Mol)
                                   14.02037 (Kcal/Mol)
 Warning -- explicit consideration of   4 degrees of freedom as
           vibrations may cause significant error
 Vibrational temperatures:    187.88   454.54   677.20   733.69   928.74
          (Kelvin)           1025.82  1041.38  1906.36  2050.80  2280.00
                             2824.24

 Zero-point correction=                           0.022343 (Hartree/Particle)
 Thermal correction to Energy=                    0.027086
 Thermal correction to Enthalpy=                  0.028030
 Thermal correction to Gibbs Free Energy=        -0.006203
 Sum of electronic and zero-point Energies=           -244.908998
 Sum of electronic and thermal Energies=              -244.904255
 Sum of electronic and thermal Enthalpies=            -244.903311
 Sum of electronic and thermal Free Energies=         -244.937544

                     E (Thermal)             CV                S
                      KCal/Mol        Cal/Mol-Kelvin    Cal/Mol-Kelvin
 Total                   16.997             14.899             72.050
 Electronic               0.000              0.000              1.377
 Translational            0.889              2.981             38.821
 Rotational               0.889              2.981             25.216
 Vibrational             15.219              8.938              6.636
 Vibration     1          0.612              1.923              2.937
 Vibration     2          0.703              1.643              1.331
 Vibration     3          0.828              1.315              0.736
 Vibration     4          0.865              1.228              0.634

 Normal termination of Gaussian 09 at Fri Aug 12 03:46:45 2016.
