 Gaussian 09, Revision E.01,
 Gaussian 09:  EM64L-G09RevE.01 30-Nov-2015

 ---------------------------------------------
 #p b3lyp/6-311++G(3df,2p) freq symmetry=Loose
 ---------------------------------------------

 ---------
 b3lyp opt
 ---------
 Symbolic Z-matrix:
 Charge =  1 Multiplicity = 3

                         Standard orientation:
 ---------------------------------------------------------------------
 Center     Atomic      Atomic             Coordinates (Angstroms)
 Number     Number       Type             X           Y           Z
 ---------------------------------------------------------------------
      1          6           0       -1.432801   -0.000544   -0.009697
      2          6           0        1.028556   -0.920900   -0.212984
      3          7           0        1.815487    0.000226    0.421264
      4          6           0       -0.106314   -0.000181   -0.242835
      5          6           0        1.028337    0.920939   -0.213235
      6          6           0       -2.635846    0.000423    0.187277
 ---------------------------------------------------------------------

 SCF Done:  E(UB3LYP) =  -244.559361535     A.U. after   28 cycles

 The electronic state is 3-A.
 Alpha  occ. eigenvalues --  -14.66946 -10.56994 -10.55792 -10.54351 -10.54348
 Alpha  occ. eigenvalues --  -10.48206  -1.32825  -1.09626  -1.01843  -0.90603
 Alpha  occ. eigenvalues --   -0.88999  -0.74041  -0.72438  -0.68015  -0.63547
 Alpha  occ. eigenvalues --   -0.61450  -0.59189  -0.55778  -0.51236
 Alpha virt. eigenvalues --   -0.42412  -0.32258  -0.29706  -0.26214  -0.16595
 Alpha virt. eigenvalues --   -0.14924  -0.11449  -0.10876  -0.09862  -0.08458
 Alpha virt. eigenvalues --   -0.06644  -0.06332  -0.06241  -0.05502  -0.03591

  Beta  occ. eigenvalues --  -14.67174 -10.56831 -10.53485 -10.53479 -10.53141
  Beta  occ. eigenvalues --  -10.48187  -1.32473  -1.08920  -0.99790  -0.88816
  Beta  occ. eigenvalues --   -0.88371  -0.73223  -0.70968  -0.63432  -0.59037
  Beta  occ. eigenvalues --   -0.56785  -0.53282
  Beta virt. eigenvalues --   -0.44895  -0.41415  -0.38655  -0.31079  -0.27448
  Beta virt. eigenvalues --   -0.23151  -0.14829  -0.14225  -0.11185  -0.10467
  Beta virt. eigenvalues --   -0.09694  -0.07568  -0.06394  -0.05910  -0.05724

 Mulliken charges and spin densities:
               1          2
     1  C    0.517288  -0.230489
     2  C    0.038008   0.494688
     3  N   -0.298595  -0.158206
     4  C    0.318220  -0.010915
     5  C    0.038021   0.494543
     6  C    0.387058   1.410379
 Sum of Mulliken charges =   1.00000   2.00000

 Dipole moment (field-independent basis, Debye):
    X=             -3.1739    Y=             -0.0002    Z=             -0.2138  Tot=              3.1811
 Quadrupole moment (field-independent basis, Debye-Ang):
   XX=            -12.7224   YY=            -30.4800   ZZ=            -29.2758
   XY=             -0.0008   XZ=             -1.9011   YZ=              0.0005

  Exact polarizability:  93.678  -0.017  55.773  -1.223  -0.001  31.501
 Approx polarizability: 221.909  -0.040 120.660   2.145  -0.004  50.988

 ******    1 imaginary frequencies (negative Signs) ******

                      1                      2                      3
                      A                      A                      A
 Frequencies --   -866.3149               166.4653               167.3326
 Red. masses --     12.4635                12.0451                12.5009
 Frc consts  --      5.5111                 0.1967                 0.2062
 IR Inten    --      3.8098                 0.0572                 4.0268

                      4                      5                      6
                      A                      A                      A
 Frequencies --    350.2054               461.9432               666.8434
 Red. masses --     12.4185                12.0563                12.2471
 Frc consts  --      0.8974                 1.5158                 3.2087
 IR Inten    --     26.6071                 1.7368                12.6115

                      7                      8                      9
                      A                      A                      A
 Frequencies --    671.1370               802.2501               891.7818
 Red. masses --     12.1887                12.2851                12.1146
 Frc consts  --      3.2347                 4.6585                 5.6764
 IR Inten    --     40.8678                62.5377                55.0902

                     10                     11                     12
                      A                      A                      A
 Frequencies --   1309.6241              1476.2121              2153.7999
 Red. masses --     12.8406                12.1193                12.0004
 Frc consts  --     12.9757                15.5606                32.7987
 IR Inten    --     23.5677                71.4695               421.9073

 - Thermochemistry -
 -------------------
 Temperature   298.150 Kelvin.  Pressure   1.00000 Atm.
 Atom     1 has atomic number  6 and mass  12.00000

 Molecular mass:    74.00307 amu.
 Principal axes and moments of inertia in atomic units:
                           1         2         3
     Eigenvalues --    89.48679 658.45563 714.34128
           X            1.00000  -0.00000  -0.00001
           Y            0.00000   1.00000  -0.00000
           Z            0.00001   0.00000   1.00000
 This molecule is an asymmetric top.
 Rotational symmetry number  1.
 Rotational temperatures (Kelvin)      0.96789     0.13154     0.12125
 Rotational constants (GHZ):          20.16768     2.74087     2.52644
    1 imaginary frequencies ignored.
 Zero-point vibrational energy      54535.3 (Joules/Mol)
                                   13.03426 (Kcal/Mol)
 Warning -- explicit consideration of   4 degrees of freedom as
           vibrations may cause significant error
 Vibrational temperatures:    239.51   240.75   503.87   664.63   959.44
          (Kelvin)            965.62  1154.26  1283.07  1884.25  2123.94
                             3098.83

 Zero-point correction=                           0.020771 (Hartree/Particle)
 Thermal correction to Energy=                    0.025849
 Thermal correction to Enthalpy=                  0.026793
 Thermal correction to Gibbs Free Energy=        -0.008459
 Sum of electronic and zero-point Energies=           -244.538590
 Sum of electronic and thermal Energies=              -244.533512
 Sum of electronic and thermal Enthalpies=            -244.532568
 Sum of electronic and thermal Free Energies=         -244.567821

                     E (Thermal)             CV                S
                      KCal/Mol        Cal/Mol-Kelvin    Cal/Mol-Kelvin
 Total                   16.221             15.807             74.196
 Electronic               0.000              0.000              2.183
 Translational            0.889              2.981             38.821
 Rotational               0.889              2.981             25.246
 Vibrational             14.443              9.845              7.946
 Vibration     1          0.624              1.884              2.475
 Vibration     2          0.624              1.883              2.465
 Vibration     3          0.727              1.575              1.165
 Vibration     4          0.820              1.334              0.760

 Normal termination of Gaussian 09 at Fri Aug  5 09:16:05 2016.
