 Gaussian 09, Revision E.01,
 Gaussian 09:  EM64L-G09RevE.01 30-Nov-2015

 ---------------------------------------------
 #p b3lyp/6-311++G(3df,2p) freq symmetry=Loose
 ---------------------------------------------

 ---------
 b3lyp opt
 ---------
 Symbolic Z-matrix:
 Charge =  0 Multiplicity = 4

                         Standard orientation:
 ---------------------------------------------------------------------
 Center     Atomic      Atomic             Coordinates (Angstroms)
 Number     Number       Type             X           Y           Z
 ---------------------------------------------------------------------
      1          7           0       -0.420485   -0.001063    0.000064
      2          6           0       -2.963837    0.000831   -0.000055
      3          6           0        2.088920   -0.682185   -0.000024
      4          6           0        2.087920    0.683552   -0.000024
      5          6           0       -1.619795   -0.000251    0.000023
      6          6           0        0.897358   -0.000707    0.000007
 ---------------------------------------------------------------------

 SCF Done:  E(UB3LYP) =  -244.931715841     A.U. after   16 cycles

 The electronic state is 4-A.
 Alpha  occ. eigenvalues --  -14.45552 -10.34447 -10.32121 -10.26855 -10.26022
 Alpha  occ. eigenvalues --  -10.25954  -1.07052  -0.98463  -0.84388  -0.76732
 Alpha  occ. eigenvalues --   -0.57919  -0.52944  -0.49267  -0.47973  -0.42402
 Alpha  occ. eigenvalues --   -0.35433  -0.33234  -0.33003  -0.30512  -0.26255
 Alpha virt. eigenvalues --   -0.08417  -0.05337  -0.01118  -0.00730   0.02748
 Alpha virt. eigenvalues --    0.03035   0.03148   0.04262   0.04965   0.06580
 Alpha virt. eigenvalues --    0.06956   0.07100   0.08115   0.09819   0.10594

  Beta  occ. eigenvalues --  -14.44445 -10.34044 -10.31802 -10.25190 -10.25091
  Beta  occ. eigenvalues --  -10.25019  -1.04781  -0.97264  -0.81535  -0.72594
  Beta  occ. eigenvalues --   -0.54479  -0.50151  -0.45527  -0.43738  -0.39949
  Beta  occ. eigenvalues --   -0.32093  -0.29503
  Beta virt. eigenvalues --   -0.21148  -0.19670  -0.13794  -0.05154  -0.03191
  Beta virt. eigenvalues --   -0.00745   0.02504   0.03200   0.03537   0.04447
  Beta virt. eigenvalues --    0.05314   0.06991   0.07255   0.07328   0.07719

 Mulliken charges and spin densities:
               1          2
     1  N   -0.955139   0.506891
     2  C   -0.715591   1.153703
     3  C   -0.104370   0.501941
     4  C   -0.105648   0.499447
     5  C    1.194653   0.280529
     6  C    0.686094   0.057489
 Sum of Mulliken charges =  -0.00000   3.00000

 Dipole moment (field-independent basis, Debye):
    X=              0.6378    Y=             -0.0074    Z=              0.0002  Tot=              0.6379
 Quadrupole moment (field-independent basis, Debye-Ang):
   XX=            -48.9330   YY=            -36.3404   ZZ=            -32.3118
   XY=             -0.0040   XZ=             -0.0004   YZ=             -0.0000

  Exact polarizability: 126.982  -0.038  69.885   0.000   0.000  40.145
 Approx polarizability: 205.496  -0.093 104.340   0.001   0.000  57.426

 ******    1 imaginary frequencies (negative Signs) ******

                      1                      2                      3
                      A                      A                      A
 Frequencies --   -134.4512                40.5279               289.8875
 Red. masses --     13.1921                13.0987                12.0555
 Frc consts  --      0.1405                 0.0127                 0.5969
 IR Inten    --      2.5258                 4.8394                82.8092

                      4                      5                      6
                      A                      A                      A
 Frequencies --    315.8600               429.4342               454.7800
 Red. masses --     12.1948                12.2277                12.1794
 Frc consts  --      0.7168                 1.3286                 1.4842
 IR Inten    --     26.2572                41.6074                12.7614

                      7                      8                      9
                      A                      A                      A
 Frequencies --    637.6630               650.9416              1188.5421
 Red. masses --     12.0127                12.0690                12.3384
 Frc consts  --      2.8779                 3.0130                10.2692
 IR Inten    --    678.1146                 1.3124                 3.1917

                     10                     11                     12
                      A                      A                      A
 Frequencies --   1350.3513              1686.5441              2122.7801
 Red. masses --     12.1834                12.0093                12.8618
 Frc consts  --     13.0892                20.1263                34.1478
 IR Inten    --    220.9121               166.4758               463.4300

 - Thermochemistry -
 -------------------
 Temperature   298.150 Kelvin.  Pressure   1.00000 Atm.
 Atom     1 has atomic number  7 and mass  14.00307

 Molecular mass:    74.00307 amu.
 Principal axes and moments of inertia in atomic units:
                           1         2         3
     Eigenvalues --    39.96544 906.02069 945.98613
           X            1.00000  -0.00000   0.00000
           Y            0.00000   1.00000   0.00000
           Z           -0.00000  -0.00000   1.00000
 This molecule is an asymmetric top.
 Rotational symmetry number  1.
 Rotational temperatures (Kelvin)      2.16722     0.09560     0.09156
 Rotational constants (GHZ):          45.15754     1.99194     1.90779
    1 imaginary frequencies ignored.
 Zero-point vibrational energy      54832.7 (Joules/Mol)
                                   13.10533 (Kcal/Mol)
 Warning -- explicit consideration of   5 degrees of freedom as
           vibrations may cause significant error
 Vibrational temperatures:     58.31   417.08   454.45   617.86   654.33
          (Kelvin)            917.45   936.56  1710.04  1942.85  2426.56
                             3054.20

 Zero-point correction=                           0.020885 (Hartree/Particle)
 Thermal correction to Energy=                    0.026251
 Thermal correction to Enthalpy=                  0.027195
 Thermal correction to Gibbs Free Energy=        -0.009451
 Sum of electronic and zero-point Energies=           -244.910831
 Sum of electronic and thermal Energies=              -244.905465
 Sum of electronic and thermal Enthalpies=            -244.904521
 Sum of electronic and thermal Free Energies=         -244.941167

                     E (Thermal)             CV                S
                      KCal/Mol        Cal/Mol-Kelvin    Cal/Mol-Kelvin
 Total                   16.473             16.297             77.129
 Electronic               0.000              0.000              2.755
 Translational            0.889              2.981             38.821
 Rotational               0.889              2.981             25.041
 Vibrational             14.695             10.336             10.512
 Vibration     1          0.594              1.981              5.233
 Vibration     2          0.686              1.693              1.475
 Vibration     3          0.703              1.643              1.331
 Vibration     4          0.791              1.406              0.861
 Vibration     5          0.813              1.350              0.781

 Normal termination of Gaussian 09 at Fri Aug  5 07:49:04 2016.
