 Gaussian 09, Revision E.01,
 Gaussian 09:  EM64L-G09RevE.01 30-Nov-2015

 ---------------------------------------------
 #p b3lyp/6-311++G(3df,2p) freq symmetry=Loose
 ---------------------------------------------

 ---------
 b3lyp opt
 ---------
 Symbolic Z-matrix:
 Charge =  1 Multiplicity = 3

                         Standard orientation:
 ---------------------------------------------------------------------
 Center     Atomic      Atomic             Coordinates (Angstroms)
 Number     Number       Type             X           Y           Z
 ---------------------------------------------------------------------
      1          6           0        1.028429   -0.920872   -0.213226
      2          6           0       -2.636370   -0.000028    0.184975
      3          7           0        1.816048   -0.000042    0.420210
      4          6           0       -0.106420    0.000045   -0.241767
      5          6           0        1.028298    0.920947   -0.213169
      6          6           0       -1.432659   -0.000043   -0.007059
 ---------------------------------------------------------------------

 SCF Done:  E(UB3LYP) =  -244.559361985     A.U. after   28 cycles

 The electronic state is 3-A.
 Alpha  occ. eigenvalues --  -14.66945 -10.56995 -10.55788 -10.54351 -10.54349
 Alpha  occ. eigenvalues --  -10.48203  -1.32830  -1.09627  -1.01844  -0.90607
 Alpha  occ. eigenvalues --   -0.88998  -0.74044  -0.72440  -0.68013  -0.63549
 Alpha  occ. eigenvalues --   -0.61452  -0.59190  -0.55778  -0.51236
 Alpha virt. eigenvalues --   -0.42410  -0.32259  -0.29712  -0.26210  -0.16604
 Alpha virt. eigenvalues --   -0.14903  -0.11448  -0.10875  -0.09862  -0.08458
 Alpha virt. eigenvalues --   -0.06638  -0.06333  -0.06236  -0.05505  -0.03604

  Beta  occ. eigenvalues --  -14.67173 -10.56832 -10.53485 -10.53479 -10.53137
  Beta  occ. eigenvalues --  -10.48183  -1.32478  -1.08920  -0.99792  -0.88820
  Beta  occ. eigenvalues --   -0.88370  -0.73225  -0.70969  -0.63435  -0.59037
  Beta  occ. eigenvalues --   -0.56787  -0.53282
  Beta virt. eigenvalues --   -0.44894  -0.41412  -0.38655  -0.31081  -0.27454
  Beta virt. eigenvalues --   -0.23146  -0.14860  -0.14183  -0.11184  -0.10465
  Beta virt. eigenvalues --   -0.09694  -0.07566  -0.06393  -0.05909  -0.05713

 Mulliken charges and spin densities:
               1          2
     1  C    0.038258   0.494567
     2  C    0.384980   1.410394
     3  N   -0.298929  -0.158117
     4  C    0.318630  -0.010775
     5  C    0.038212   0.494735
     6  C    0.518849  -0.230805
 Sum of Mulliken charges =   1.00000   2.00000

 Dipole moment (field-independent basis, Debye):
    X=             -3.1741    Y=             -0.0002    Z=             -0.2155  Tot=              3.1814
 Quadrupole moment (field-independent basis, Debye-Ang):
   XX=            -12.7181   YY=            -30.4794   ZZ=            -29.2778
   XY=              0.0000   XZ=             -1.8882   YZ=             -0.0003

  Exact polarizability:  93.687  -0.000  55.776  -1.197   0.000  31.485
 Approx polarizability: 221.935  -0.009 120.663   2.259   0.006  50.926

 ******    1 imaginary frequencies (negative Signs) ******

                      1                      2                      3
                      A                      A                      A
 Frequencies --   -865.9477               165.6668               166.7767
 Red. masses --     12.4633                12.0465                12.4978
 Frc consts  --      5.5064                 0.1948                 0.2048
 IR Inten    --      3.8015                 0.0658                 3.9633

                      4                      5                      6
                      A                      A                      A
 Frequencies --    349.5403               461.8870               666.9188
 Red. masses --     12.4205                12.0562                12.2484
 Frc consts  --      0.8941                 1.5154                 3.2098
 IR Inten    --     26.6547                 1.7476                11.7667

                      7                      8                      9
                      A                      A                      A
 Frequencies --    671.1018               802.5468               891.7340
 Red. masses --     12.1873                12.2853                12.1146
 Frc consts  --      3.2340                 4.6620                 5.6759
 IR Inten    --     41.7107                62.6874                55.1502

                     10                     11                     12
                      A                      A                      A
 Frequencies --   1309.9094              1476.3652              2154.4997
 Red. masses --     12.8402                12.1197                12.0004
 Frc consts  --     12.9808                15.5642                32.8200
 IR Inten    --     23.6320                71.5942               422.0885

 - Thermochemistry -
 -------------------
 Temperature   298.150 Kelvin.  Pressure   1.00000 Atm.
 Atom     1 has atomic number  6 and mass  12.00000

 Molecular mass:    74.00307 amu.
 Principal axes and moments of inertia in atomic units:
                           1         2         3
     Eigenvalues --    89.38337 658.54307 714.52915
           X            1.00000   0.00000  -0.00001
           Y           -0.00000   1.00000   0.00000
           Z            0.00001  -0.00000   1.00000
 This molecule is an asymmetric top.
 Rotational symmetry number  1.
 Rotational temperatures (Kelvin)      0.96901     0.13152     0.12122
 Rotational constants (GHZ):          20.19102     2.74051     2.52578
    1 imaginary frequencies ignored.
 Zero-point vibrational energy      54531.4 (Joules/Mol)
                                   13.03333 (Kcal/Mol)
 Warning -- explicit consideration of   4 degrees of freedom as
           vibrations may cause significant error
 Vibrational temperatures:    238.36   239.95   502.91   664.55   959.55
          (Kelvin)            965.56  1154.68  1283.00  1884.67  2124.16
                             3099.84

 Zero-point correction=                           0.020770 (Hartree/Particle)
 Thermal correction to Energy=                    0.025851
 Thermal correction to Enthalpy=                  0.026795
 Thermal correction to Gibbs Free Energy=        -0.008466
 Sum of electronic and zero-point Energies=           -244.538592
 Sum of electronic and thermal Energies=              -244.533511
 Sum of electronic and thermal Enthalpies=            -244.532567
 Sum of electronic and thermal Free Energies=         -244.567828

                     E (Thermal)             CV                S
                      KCal/Mol        Cal/Mol-Kelvin    Cal/Mol-Kelvin
 Total                   16.222             15.809             74.213
 Electronic               0.000              0.000              2.183
 Translational            0.889              2.981             38.821
 Rotational               0.889              2.981             25.245
 Vibrational             14.444              9.847              7.964
 Vibration     1          0.624              1.885              2.484
 Vibration     2          0.624              1.883              2.472
 Vibration     3          0.727              1.576              1.168
 Vibration     4          0.820              1.335              0.761

 Optimization completed.
    -- Stationary point found.
 Normal termination of Gaussian 09 at Fri Aug  5 08:58:21 2016.
