 Gaussian 09, Revision E.01,
 Gaussian 09:  EM64L-G09RevE.01 30-Nov-2015

 ---------------------------------------------
 #p b3lyp/6-311++G(3df,2p) freq symmetry=Loose
 ---------------------------------------------

 ---------
 b3lyp opt
 ---------
 Symbolic Z-matrix:
 Charge =  1 Multiplicity = 3

                         Standard orientation:
 ---------------------------------------------------------------------
 Center     Atomic      Atomic             Coordinates (Angstroms)
 Number     Number       Type             X           Y           Z
 ---------------------------------------------------------------------
      1          7           0        0.125787    0.335436    0.000017
      2          6           0       -0.757832    1.356598    0.000048
      3          6           0       -2.076328   -1.084096    0.000066
      4          6           0       -1.182321   -0.074324   -0.000127
      5          6           0        2.508898   -0.485798    0.000028
      6          6           0        1.360830   -0.103722   -0.000036
 ---------------------------------------------------------------------

 SCF Done:  E(UB3LYP) =  -244.474137181     A.U. after   34 cycles

 The electronic state is 3-A.
 Alpha  occ. eigenvalues --  -14.76988 -10.58537 -10.56245 -10.56086 -10.52462
 Alpha  occ. eigenvalues --  -10.48477  -1.39867  -1.15250  -1.06410  -1.03462
 Alpha  occ. eigenvalues --   -0.87770  -0.79733  -0.73933  -0.63016  -0.61973
 Alpha  occ. eigenvalues --   -0.59176  -0.57806  -0.54834  -0.53751
 Alpha virt. eigenvalues --   -0.40829  -0.37296  -0.26677  -0.24865  -0.19211
 Alpha virt. eigenvalues --   -0.17216  -0.14527  -0.11970  -0.11505  -0.10463
 Alpha virt. eigenvalues --   -0.08597  -0.08339  -0.06408  -0.06056  -0.05251

  Beta  occ. eigenvalues --  -14.76665 -10.58327 -10.55837 -10.55309 -10.51611
  Beta  occ. eigenvalues --  -10.47731  -1.38976  -1.13529  -1.03124  -1.00487
  Beta  occ. eigenvalues --   -0.86572  -0.77763  -0.72597  -0.58447  -0.57924
  Beta  occ. eigenvalues --   -0.57517  -0.52225
  Beta virt. eigenvalues --   -0.48055  -0.45232  -0.39058  -0.35510  -0.23009
  Beta virt. eigenvalues --   -0.20929  -0.18556  -0.14848  -0.13805  -0.11175
  Beta virt. eigenvalues --   -0.11153  -0.09979  -0.08231  -0.07760  -0.05890

 Mulliken charges and spin densities:
               1          2
     1  N   -0.525411   0.098495
     2  C    0.006529   0.100096
     3  C    0.006887   0.554119
     4  C    0.818340   0.204266
     5  C   -0.437162   0.426442
     6  C    1.130815   0.616582
 Sum of Mulliken charges =   1.00000   2.00000

 Dipole moment (field-independent basis, Debye):
    X=             -1.5697    Y=              0.2554    Z=             -0.0003  Tot=              1.5903
 Quadrupole moment (field-independent basis, Debye-Ang):
   XX=            -27.1519   YY=            -29.3717   ZZ=            -29.7152
   XY=              1.3417   XZ=              0.0003   YZ=              0.0003

  Exact polarizability: 120.468   1.718  57.804  -0.002   0.000  36.338
 Approx polarizability: 298.013   5.847 127.855  -0.001   0.000  52.112

 ******    2 imaginary frequencies (negative Signs) ******

                      1                      2                      3
                      A                      A                      A
 Frequencies --   -493.7369              -407.6573               190.5908
 Red. masses --     12.0450                12.1348                12.0282
 Frc consts  --      1.7300                 1.1882                 0.2574
 IR Inten    --     15.5446                 1.8541                 5.2976

                      4                      5                      6
                      A                      A                      A
 Frequencies --    285.6108               430.7971               507.1100
 Red. masses --     12.0655                13.3497                12.4716
 Frc consts  --      0.5799                 1.4597                 1.8896
 IR Inten    --      8.9122                 0.9104                 1.8284

                      7                      8                      9
                      A                      A                      A
 Frequencies --    560.3086               781.2059               820.9293
 Red. masses --     12.2448                12.1334                12.8142
 Frc consts  --      2.2649                 4.3628                 5.0881
 IR Inten    --     45.2632                 1.9900                 8.8344

                     10                     11                     12
                      A                      A                      A
 Frequencies --   1244.3756              1565.6740              2277.2474
 Red. masses --     12.6441                12.4098                12.0121
 Frc consts  --     11.5356                17.9233                36.7019
 IR Inten    --    193.6366               158.5558               753.2891

 - Thermochemistry -
 -------------------
 Temperature   298.150 Kelvin.  Pressure   1.00000 Atm.
 Atom     1 has atomic number  7 and mass  14.00307

 Molecular mass:    74.00307 amu.
 Principal axes and moments of inertia in atomic units:
                           1         2         3
     Eigenvalues --   145.66538 619.14644 764.81182
           X            1.00000  -0.00000  -0.00000
           Y            0.00000   1.00000  -0.00000
           Z            0.00000   0.00000   1.00000
 This molecule is an asymmetric top.
 Rotational symmetry number  1.
 Rotational temperatures (Kelvin)      0.59461     0.13989     0.11325
 Rotational constants (GHZ):          12.38964     2.91489     2.35972
    2 imaginary frequencies ignored.
 Zero-point vibrational energy      51821.3 (Joules/Mol)
                                   12.38559 (Kcal/Mol)
 Warning -- explicit consideration of   5 degrees of freedom as
           vibrations may cause significant error
 Vibrational temperatures:    274.22   410.93   619.82   729.62   806.16
          (Kelvin)           1123.98  1181.13  1790.38  2252.65  3276.45

 Zero-point correction=                           0.019738 (Hartree/Particle)
 Thermal correction to Energy=                    0.024442
 Thermal correction to Enthalpy=                  0.025386
 Thermal correction to Gibbs Free Energy=        -0.009271
 Sum of electronic and zero-point Energies=           -244.454399
 Sum of electronic and thermal Energies=              -244.449696
 Sum of electronic and thermal Enthalpies=            -244.448751
 Sum of electronic and thermal Free Energies=         -244.483408

                     E (Thermal)             CV                S
                      KCal/Mol        Cal/Mol-Kelvin    Cal/Mol-Kelvin
 Total                   15.337             14.810             72.940
 Electronic               0.000              0.000              2.183
 Translational            0.889              2.981             38.821
 Rotational               0.889              2.981             25.737
 Vibrational             13.560              8.848              6.200
 Vibration     1          0.634              1.853              2.222
 Vibration     2          0.683              1.700              1.500
 Vibration     3          0.792              1.403              0.856
 Vibration     4          0.862              1.234              0.641
 Vibration     5          0.916              1.117              0.523

 Normal termination of Gaussian 09 at Fri Aug  5 07:39:23 2016.
