 Gaussian 09, Revision E.01,
 Gaussian 09:  EM64L-G09RevE.01 30-Nov-2015

 ---------------------------------------------
 #p b3lyp/6-311++G(3df,2p) freq symmetry=Loose
 ---------------------------------------------

 ---------
 b3lyp opt
 ---------
 Symbolic Z-matrix:
 Charge =  0 Multiplicity = 4

                         Standard orientation:
 ---------------------------------------------------------------------
 Center     Atomic      Atomic             Coordinates (Angstroms)
 Number     Number       Type             X           Y           Z
 ---------------------------------------------------------------------
      1          7           0        0.000000    0.000000    1.860392
      2          6           0        0.000000    0.000000    0.630250
      3          6           0        0.000000    0.000000   -0.675397
      4          6           0        0.000000    0.000000   -1.934549
      5          6           0        0.000000    0.000000   -3.286388
      6          6           0        0.000000    0.000000    3.095624
 ---------------------------------------------------------------------

 SCF Done:  E(UB3LYP) =  -244.971689072     A.U. after   17 cycles

 Unable to determine electronic state:  an orbital has unidentified symmetry.
 Alpha  occ. eigenvalues --  -14.44335 -10.34095 -10.28674 -10.27333 -10.26399
 Alpha  occ. eigenvalues --  -10.25999  -1.05867  -0.88912  -0.83957  -0.77359
 Alpha  occ. eigenvalues --   -0.68254  -0.51718  -0.51284  -0.41859  -0.41004
 Alpha  occ. eigenvalues --   -0.37959  -0.33901  -0.31908  -0.30443  -0.19973
 Alpha virt. eigenvalues --   -0.14133  -0.03867  -0.02600  -0.01573   0.02682
 Alpha virt. eigenvalues --    0.03396   0.03486   0.05346   0.06081   0.06092
 Alpha virt. eigenvalues --    0.06853   0.10157   0.10362   0.10761   0.11434

  Beta  occ. eigenvalues --  -14.44565 -10.32718 -10.27518 -10.27068 -10.25901
  Beta  occ. eigenvalues --  -10.24543  -1.04707  -0.86240  -0.81125  -0.74072
  Beta  occ. eigenvalues --   -0.65821  -0.49089  -0.48453  -0.38412  -0.37437
  Beta  occ. eigenvalues --   -0.35449  -0.31036
  Beta virt. eigenvalues --   -0.21195  -0.20065  -0.10020  -0.08403  -0.01379
  Beta virt. eigenvalues --   -0.00179   0.00517   0.02968   0.04295   0.04845
  Beta virt. eigenvalues --    0.05659   0.06580   0.06800   0.07014   0.10796

 Mulliken charges and spin densities:
               1          2
     1  N   -0.890252  -0.102457
     2  C    0.434309   0.596606
     3  C    0.208111   0.511042
     4  C    0.888889   0.457819
     5  C   -0.660244   0.812958
     6  C    0.019186   0.724031
 Sum of Mulliken charges =  -0.00000   3.00000

 Dipole moment (field-independent basis, Debye):
    X=              0.0000    Y=              0.0000    Z=              1.2739  Tot=              1.2739
 Quadrupole moment (field-independent basis, Debye-Ang):
   XX=            -32.1749   YY=            -33.9028   ZZ=            -56.8142
   XY=              0.0000   XZ=              0.0000   YZ=              0.0000

  Exact polarizability:  40.711   0.000  41.689  -0.000   0.000 199.134
 Approx polarizability:  57.767  -0.000  55.958  -0.000  -0.000 431.120

 ******    1 imaginary frequencies (negative Signs) ******

                      1                      2                      3
                     ?A                     ?A                     ?A
 Frequencies --   -174.0948                73.9444               100.5715
 Red. masses --     12.1221                12.0006                12.0045
 Frc consts  --      0.2165                 0.0387                 0.0715
 IR Inten    --      2.7048                 3.4754                18.5805

                      4                      5                      6
                     ?A                     ?A                     ?A
 Frequencies --    201.8290               284.6273               320.6684
 Red. masses --     12.3276                13.1278                12.0005
 Frc consts  --      0.2959                 0.6266                 0.7270
 IR Inten    --      0.5444                 3.3555                18.4488

                      7                      8                      9
                     ?A                     ?A                     SG
 Frequencies --    373.9707               467.0306               651.0300
 Red. masses --     12.6771                12.1915                12.3622
 Frc consts  --      1.0446                 1.5667                 3.0871
 IR Inten    --      4.7616                 5.2612                 0.0027

                     10                     11                     12
                     SG                     SG                     SG
 Frequencies --   1112.3403              1516.6721              1701.1926
 Red. masses --     12.0108                12.6084                12.3553
 Frc consts  --      8.7558                17.0881                21.0673
 IR Inten    --     26.7445                37.9914                 4.8739

                     13
                     SG
 Frequencies --   2150.3106
 Red. masses --     12.1062
 Frc consts  --     32.9807
 IR Inten    --     80.4869

 - Thermochemistry -
 -------------------
 Temperature   298.150 Kelvin.  Pressure   1.00000 Atm.
 Atom     1 has atomic number  7 and mass  14.00307

 Molecular mass:    74.00307 amu.
 Principal axes and moments of inertia in atomic units:
                           1         2         3
     Eigenvalues --     0.000001243.496701243.49670
           X            0.00000  -0.00000   1.00000
           Y            0.00000   1.00000   0.00000
           Z            1.00000   0.00000   0.00000
 This molecule is a prolate symmetric top.
 Rotational symmetry number  1.
 Warning -- assumption of classical behavior for rotation
           may cause significant error
 Rotational temperature (Kelvin)      0.06965
 Rotational constant (GHZ):           1.451344
    1 imaginary frequencies ignored.
 Zero-point vibrational energy      53557.9 (Joules/Mol)
                                   12.80065 (Kcal/Mol)
 Warning -- explicit consideration of   7 degrees of freedom as
           vibrations may cause significant error
 Vibrational temperatures:    106.39   144.70   290.39   409.51   461.37
          (Kelvin)            538.06   671.95   936.69  1600.41  2182.15
                             2447.63  3093.81

 Zero-point correction=                           0.020399 (Hartree/Particle)
 Thermal correction to Energy=                    0.026421
 Thermal correction to Enthalpy=                  0.027366
 Thermal correction to Gibbs Free Energy=        -0.008199
 Sum of electronic and zero-point Energies=           -244.951290
 Sum of electronic and thermal Energies=              -244.945268
 Sum of electronic and thermal Enthalpies=            -244.944324
 Sum of electronic and thermal Free Energies=         -244.979888

                     E (Thermal)             CV                S
                      KCal/Mol        Cal/Mol-Kelvin    Cal/Mol-Kelvin
 Total                   16.580             18.214             74.852
 Electronic               0.000              0.000              2.755
 Translational            0.889              2.981             38.821
 Rotational               0.592              1.987             18.604
 Vibrational             15.098             13.246             14.673
 Vibration     1          0.599              1.966              4.046
 Vibration     2          0.604              1.949              3.443
 Vibration     3          0.639              1.837              2.116
 Vibration     4          0.683              1.702              1.506
 Vibration     5          0.706              1.634              1.307
 Vibration     6          0.745              1.526              1.063
 Vibration     7          0.824              1.323              0.746

 Optimization completed.
    -- Stationary point found.
 Normal termination of Gaussian 09 at Fri Aug 12 08:56:27 2016.
