 Gaussian 09, Revision E.01,
 Gaussian 09:  EM64L-G09RevE.01 30-Nov-2015

 ---------------------------------------------
 #p b3lyp/6-311++G(3df,2p) freq symmetry=Loose
 ---------------------------------------------

 ---------
 b3lyp opt
 ---------
 Symbolic Z-matrix:
 Charge =  0 Multiplicity = 2

                         Standard orientation:
 ---------------------------------------------------------------------
 Center     Atomic      Atomic             Coordinates (Angstroms)
 Number     Number       Type             X           Y           Z
 ---------------------------------------------------------------------
      1          6           0        1.033422   -0.894233   -0.165794
      2          6           0       -2.724695   -0.000109    0.132498
      3          7           0        1.938954   -0.000085    0.301953
      4          6           0       -0.154459    0.000092   -0.155651
      5          6           0        1.033458    0.894251   -0.165725
      6          6           0       -1.449838    0.000098    0.002394
 ---------------------------------------------------------------------

 SCF Done:  E(UB3LYP) =  -244.931309114     A.U. after   27 cycles

 The electronic state is 2-A.
 Alpha  occ. eigenvalues --  -14.41901 -10.36802 -10.36794 -10.30438 -10.23159
 Alpha  occ. eigenvalues --  -10.21451  -1.11974  -0.85866  -0.77077  -0.68635
 Alpha  occ. eigenvalues --   -0.65932  -0.52605  -0.52138  -0.43524  -0.38546
 Alpha  occ. eigenvalues --   -0.35879  -0.32462  -0.31056  -0.25808
 Alpha virt. eigenvalues --   -0.21488  -0.13736  -0.08358  -0.02214   0.00972
 Alpha virt. eigenvalues --    0.02368   0.02996   0.04124   0.06131   0.06604
 Alpha virt. eigenvalues --    0.06840   0.07120   0.08354   0.09294   0.10114

  Beta  occ. eigenvalues --  -14.41128 -10.36971 -10.36964 -10.29944 -10.22431
  Beta  occ. eigenvalues --  -10.21412  -1.11066  -0.84720  -0.75012  -0.68746
  Beta  occ. eigenvalues --   -0.64926  -0.52285  -0.50039  -0.43356  -0.37249
  Beta  occ. eigenvalues --   -0.33534  -0.31652  -0.29720
  Beta virt. eigenvalues --   -0.21906  -0.16231  -0.13892  -0.05483  -0.01486
  Beta virt. eigenvalues --    0.01026   0.02582   0.03115   0.04103   0.06380
  Beta virt. eigenvalues --    0.06688   0.07062   0.07387   0.08301   0.10391

 Mulliken charges and spin densities:
               1          2
     1  C    0.067652  -0.113516
     2  C   -0.372617   0.392016
     3  N   -0.509181   0.353926
     4  C    0.166062   0.342442
     5  C    0.067779  -0.113896
     6  C    0.580304   0.139028
 Sum of Mulliken charges =  -0.00000   1.00000

 Dipole moment (field-independent basis, Debye):
    X=              3.1914    Y=              0.0004    Z=             -0.7691  Tot=              3.2828
 Quadrupole moment (field-independent basis, Debye-Ang):
   XX=            -49.5810   YY=            -32.8732   ZZ=            -33.1993
   XY=             -0.0010   XZ=             -0.7163   YZ=              0.0001

  Exact polarizability: 131.194  -0.007  55.316  -6.186   0.001  39.813
 Approx polarizability: 354.363  -0.034 136.562 -23.106   0.007  63.145

 ******    1 imaginary frequencies (negative Signs) ******

                      1                      2                      3
                      A                      A                      A
 Frequencies --   -147.0718               128.5553               315.8139
 Red. masses --     12.6656                12.0835                12.1655
 Frc consts  --      0.1614                 0.1177                 0.7149
 IR Inten    --     10.2027                10.4876                19.5890

                      4                      5                      6
                      A                      A                      A
 Frequencies --    470.5171               509.7736               645.5057
 Red. masses --     12.1405                12.1791                12.4042
 Frc consts  --      1.5836                 1.8647                 3.0452
 IR Inten    --      0.5479                64.9374                19.3190

                      7                      8                      9
                      A                      A                      A
 Frequencies --    713.1015               723.6662              1325.1709
 Red. masses --     12.2382                12.0149                12.4941
 Frc consts  --      3.6667                 3.7072                12.9271
 IR Inten    --     12.6082                16.2241                54.1648

                     10                     11                     12
                      A                      A                      A
 Frequencies --   1425.6982              1582.0255              1963.5436
 Red. masses --     12.4550                12.4234                12.0206
 Frc consts  --     14.9159                18.3197                27.3059
 IR Inten    --     11.3528                 9.2384               562.3934

 - Thermochemistry -
 -------------------
 Temperature   298.150 Kelvin.  Pressure   1.00000 Atm.
 Atom     1 has atomic number  6 and mass  12.00000

 Molecular mass:    74.00307 amu.
 Principal axes and moments of inertia in atomic units:
                           1         2         3
     Eigenvalues --    77.24095 697.47508 757.30616
           X            1.00000   0.00000  -0.00001
           Y           -0.00000   1.00000   0.00000
           Z            0.00001  -0.00000   1.00000
 This molecule is an asymmetric top.
 Rotational symmetry number  1.
 Rotational temperatures (Kelvin)      1.12135     0.12418     0.11437
 Rotational constants (GHZ):          23.36508     2.58754     2.38311
    1 imaginary frequencies ignored.
 Zero-point vibrational energy      58637.2 (Joules/Mol)
                                   14.01462 (Kcal/Mol)
 Warning -- explicit consideration of   4 degrees of freedom as
           vibrations may cause significant error
 Vibrational temperatures:    184.96   454.39   676.97   733.45   928.74
          (Kelvin)           1025.99  1041.19  1906.62  2051.26  2276.18
                             2825.10

 Zero-point correction=                           0.022334 (Hartree/Particle)
 Thermal correction to Energy=                    0.027081
 Thermal correction to Enthalpy=                  0.028025
 Thermal correction to Gibbs Free Energy=        -0.006223
 Sum of electronic and zero-point Energies=           -244.908975
 Sum of electronic and thermal Energies=              -244.904228
 Sum of electronic and thermal Enthalpies=            -244.903284
 Sum of electronic and thermal Free Energies=         -244.937532

                     E (Thermal)             CV                S
                      KCal/Mol        Cal/Mol-Kelvin    Cal/Mol-Kelvin
 Total                   16.993             14.902             72.081
 Electronic               0.000              0.000              1.377
 Translational            0.889              2.981             38.821
 Rotational               0.889              2.981             25.215
 Vibrational             15.216              8.941              6.668
 Vibration     1          0.611              1.925              2.968
 Vibration     2          0.703              1.643              1.332
 Vibration     3          0.828              1.315              0.736
 Vibration     4          0.865              1.228              0.634

 Normal termination of Gaussian 09 at Fri Aug 12 02:07:44 2016.
