 Gaussian 09, Revision E.01,
 Gaussian 09:  EM64L-G09RevE.01 30-Nov-2015

 ---------------------------------------------
 #p b3lyp/6-311++G(3df,2p) freq symmetry=Loose
 ---------------------------------------------

 ---------
 b3lyp opt
 ---------
 Symbolic Z-matrix:
 Charge =  0 Multiplicity = 2

                         Standard orientation:
 ---------------------------------------------------------------------
 Center     Atomic      Atomic             Coordinates (Angstroms)
 Number     Number       Type             X           Y           Z
 ---------------------------------------------------------------------
      1          7           0       -0.000000    0.000000   -3.050541
      2          6           0        0.000000   -0.000000    0.693147
      3          6           0       -0.000000    0.000000   -0.542688
      4          6           0        0.000000   -0.000000    2.004991
      5          6           0        0.000000   -0.000000    3.290531
      6          6           0       -0.000000    0.000000   -1.887018
 ---------------------------------------------------------------------

 SCF Done:  E(UB3LYP) =  -245.100587481     A.U. after   18 cycles

 Unable to determine electronic state:  an orbital has unidentified symmetry.
 Alpha  occ. eigenvalues --  -14.38819 -10.29530 -10.29326 -10.28068 -10.26202
 Alpha  occ. eigenvalues --  -10.25135  -0.97825  -0.89140  -0.82799  -0.74217
 Alpha  occ. eigenvalues --   -0.66872  -0.46920  -0.45956  -0.43333  -0.41122
 Alpha  occ. eigenvalues --   -0.40001  -0.33371  -0.32771  -0.30900
 Alpha virt. eigenvalues --   -0.13472  -0.12339  -0.01235   0.00548   0.01628
 Alpha virt. eigenvalues --    0.02185   0.03469   0.03717   0.05311   0.06697
 Alpha virt. eigenvalues --    0.06929   0.07157   0.10599   0.10822   0.11394

  Beta  occ. eigenvalues --  -14.38359 -10.29576 -10.28889 -10.28244 -10.25760
  Beta  occ. eigenvalues --  -10.24668  -0.96999  -0.88189  -0.80885  -0.73437
  Beta  occ. eigenvalues --   -0.66286  -0.45730  -0.44770  -0.42662  -0.39777
  Beta  occ. eigenvalues --   -0.38502  -0.32462  -0.30154
  Beta virt. eigenvalues --   -0.23708  -0.12111  -0.10697  -0.01170   0.01874
  Beta virt. eigenvalues --    0.02293   0.02774   0.03746   0.03783   0.05419
  Beta virt. eigenvalues --    0.06942   0.07010   0.07185   0.10847   0.10895

 Mulliken charges and spin densities:
               1          2
     1  N   -0.936044   0.238956
     2  C   -0.441926   0.148505
     3  C    0.979319   0.204200
     4  C    1.412549   0.352041
     5  C   -0.872034   0.208427
     6  C   -0.141864  -0.152128
 Sum of Mulliken charges =  -0.00000   1.00000

 Dipole moment (field-independent basis, Debye):
    X=             -0.0000    Y=              0.0000    Z=             -0.7595  Tot=              0.7595
 Quadrupole moment (field-independent basis, Debye-Ang):
   XX=            -33.4924   YY=            -31.7653   ZZ=            -54.0836
   XY=              0.0000   XZ=             -0.0000   YZ=              0.0000

  Exact polarizability:  37.036  -0.000  39.815  -0.000   0.000 169.625
 Approx polarizability:  52.234  -0.000  53.087   0.000  -0.000 387.727

 ******    1 imaginary frequencies (negative Signs) ******

                      1                      2                      3
                     ?A                     ?A                     ?A
 Frequencies --    -88.9432               104.9004               139.5073
 Red. masses --     12.0340                12.4602                12.5360
 Frc consts  --      0.0561                 0.0808                 0.1437
 IR Inten    --     43.5910                 9.6242                 0.3340

                      4                      5                      6
                     ?A                     ?A                     ?A
 Frequencies --    239.1865               400.9590               493.6679
 Red. masses --     12.1135                12.1749                12.1966
 Frc consts  --      0.4083                 1.1532                 1.7513
 IR Inten    --      0.1418                17.5293                 3.9503

                      7                      8                      9
                     ?A                     ?A                     SG
 Frequencies --    560.0143               569.9798               639.1855
 Red. masses --     12.0223                12.0522                12.5407
 Frc consts  --      2.2214                 2.3069                 3.0187
 IR Inten    --      3.3895                 0.3597                 2.1689

                     10                     11                     12
                     SG                     SG                     SG
 Frequencies --   1207.1489              1907.4379              2110.6497
 Red. masses --     12.2463                12.0685                12.0023
 Frc consts  --     10.5142                25.8705                31.5026
 IR Inten    --     12.7047               247.7997               128.3405

                     13
                     SG
 Frequencies --   2215.5239
 Red. masses --     12.5903
 Frc consts  --     36.4116
 IR Inten    --     32.4998

 - Thermochemistry -
 -------------------
 Temperature   298.150 Kelvin.  Pressure   1.00000 Atm.
 Atom     1 has atomic number  7 and mass  14.00307

 Molecular mass:    74.00307 amu.
 Principal axes and moments of inertia in atomic units:
                           1         2         3
     Eigenvalues --     0.000001287.406061287.40606
           X            0.00000  -0.70710   0.70712
           Y           -0.00000   0.70712   0.70710
           Z            1.00000   0.00000   0.00000
 This molecule is a prolate symmetric top.
 Rotational symmetry number  1.
 Warning -- assumption of classical behavior for rotation
           may cause significant error
 Rotational temperature (Kelvin)      0.06728
 Rotational constant (GHZ):           1.401843
    1 imaginary frequencies ignored.
 Zero-point vibrational energy      63331.3 (Joules/Mol)
                                   15.13654 (Kcal/Mol)
 Warning -- explicit consideration of   7 degrees of freedom as
           vibrations may cause significant error
 Vibrational temperatures:    150.93   200.72   344.14   576.89   710.28
          (Kelvin)            805.73   820.07   919.64  1736.82  2744.37
                             3036.75  3187.64

 Zero-point correction=                           0.024122 (Hartree/Particle)
 Thermal correction to Energy=                    0.029426
 Thermal correction to Enthalpy=                  0.030370
 Thermal correction to Gibbs Free Energy=        -0.002862
 Sum of electronic and zero-point Energies=           -245.076466
 Sum of electronic and thermal Energies=              -245.071161
 Sum of electronic and thermal Enthalpies=            -245.070217
 Sum of electronic and thermal Free Energies=         -245.103449

                     E (Thermal)             CV                S
                      KCal/Mol        Cal/Mol-Kelvin    Cal/Mol-Kelvin
 Total                   18.465             16.734             69.943
 Electronic               0.000              0.000              1.377
 Translational            0.889              2.981             38.821
 Rotational               0.592              1.987             18.673
 Vibrational             16.984             11.766             11.073
 Vibration     1          0.605              1.945              3.361
 Vibration     2          0.615              1.914              2.811
 Vibration     3          0.657              1.781              1.809
 Vibration     4          0.767              1.468              0.959
 Vibration     5          0.849              1.264              0.674
 Vibration     6          0.916              1.118              0.524
 Vibration     7          0.926              1.096              0.504

 Optimization completed.
    -- Stationary point found.
 Normal termination of Gaussian 09 at Thu Aug 11 23:45:37 2016.
