 Gaussian 09, Revision E.01,
 Gaussian 09:  EM64L-G09RevE.01 30-Nov-2015

 ---------------------------------------------
 #p b3lyp/6-311++G(3df,2p) freq symmetry=Loose
 ---------------------------------------------

 ---------
 b3lyp opt
 ---------
 Symbolic Z-matrix:
 Charge =  1 Multiplicity = 3

                         Standard orientation:
 ---------------------------------------------------------------------
 Center     Atomic      Atomic             Coordinates (Angstroms)
 Number     Number       Type             X           Y           Z
 ---------------------------------------------------------------------
      1          7           0        0.000000    0.000000   -3.057909
      2          6           0       -0.000000   -0.000000    0.705055
      3          6           0        0.000000    0.000000   -0.557956
      4          6           0       -0.000000   -0.000000    1.984692
      5          6           0       -0.000000   -0.000000    3.316926
      6          6           0        0.000000    0.000000   -1.881156
 ---------------------------------------------------------------------

 SCF Done:  E(UB3LYP) =  -244.722333504     A.U. after   17 cycles

 The electronic state is 3-SG.
 Alpha  occ. eigenvalues --  -14.62819 -10.55349 -10.53726 -10.53058 -10.50847
 Alpha  occ. eigenvalues --  -10.49523  -1.20148  -1.13079  -1.07222  -0.98097
 Alpha  occ. eigenvalues --   -0.91088  -0.69162  -0.69162  -0.64466  -0.63182
 Alpha  occ. eigenvalues --   -0.63182  -0.56827  -0.55218  -0.55218
 Alpha virt. eigenvalues --   -0.36703  -0.36703  -0.21586  -0.21586  -0.17083
 Alpha virt. eigenvalues --   -0.13083  -0.10865  -0.10865  -0.08713  -0.07913
 Alpha virt. eigenvalues --   -0.07913  -0.07486  -0.06282  -0.06282  -0.04361

  Beta  occ. eigenvalues --  -14.61572 -10.54152 -10.53358 -10.52832 -10.50094
  Beta  occ. eigenvalues --  -10.49939  -1.17817  -1.11228  -1.03715  -0.96569
  Beta  occ. eigenvalues --   -0.90050  -0.66497  -0.66497  -0.62652  -0.60124
  Beta  occ. eigenvalues --   -0.60124  -0.55021
  Beta virt. eigenvalues --   -0.45450  -0.45450  -0.32991  -0.32991  -0.18729
  Beta virt. eigenvalues --   -0.18729  -0.16923  -0.12657  -0.10561  -0.10561
  Beta virt. eigenvalues --   -0.07993  -0.06768  -0.06768  -0.06290  -0.04948

 Mulliken charges and spin densities:
               1          2
     1  N   -0.722158   0.639515
     2  C   -0.237582   0.370019
     3  C    0.997928   0.322988
     4  C    1.545084   0.586767
     5  C   -0.444243   0.387832
     6  C   -0.139030  -0.307121
 Sum of Mulliken charges =   1.00000   2.00000

 Dipole moment (field-independent basis, Debye):
    X=             -0.0000    Y=             -0.0000    Z=              1.7175  Tot=              1.7175
 Quadrupole moment (field-independent basis, Debye-Ang):
   XX=            -29.1580   YY=            -29.1580   ZZ=            -17.8900
   XY=              0.0000   XZ=              0.0000   YZ=             -0.0000

  Exact polarizability:  32.737   0.000  32.737  -0.000   0.000 165.336
 Approx polarizability:  44.695   0.000  44.695  -0.000  -0.000 407.676

 ******    2 imaginary frequencies (negative Signs) ******

                      1                      2                      3
                     PI                     PI                     PI
 Frequencies --    -14.1465               -14.1461               147.3482
 Red. masses --     12.1113                12.1113                12.4943
 Frc consts  --      0.0014                 0.0014                 0.1598
 IR Inten    --     16.5819                16.5819                 0.0178

                      4                      5                      6
                     PI                     PI                     PI
 Frequencies --    147.3482               391.8097               391.8097
 Red. masses --     12.4943                12.1609                12.1609
 Frc consts  --      0.1598                 1.0999                 1.0999
 IR Inten    --      0.0178                10.7837                10.7837

                      7                      8                      9
                     PI                     PI                     SG
 Frequencies --    559.1733               559.1734               643.5054
 Red. masses --     12.0278                12.0278                12.5335
 Frc consts  --      2.2158                 2.2158                 3.0579
 IR Inten    --      0.6713                 0.6713                24.2185

                     10                     11                     12
                     SG                     SG                     SG
 Frequencies --   1194.7490              1768.0646              2031.5650
 Red. masses --     12.2554                12.1127                12.3271
 Frc consts  --     10.3069                22.3094                29.9758
 IR Inten    --    145.7462               356.5182               223.6004

                     13
                     SG
 Frequencies --   2099.4812
 Red. masses --     12.2043
 Frc consts  --     31.6946
 IR Inten    --    419.9212

 - Thermochemistry -
 -------------------
 Temperature   298.150 Kelvin.  Pressure   1.00000 Atm.
 Atom     1 has atomic number  7 and mass  14.00307

 Molecular mass:    74.00307 amu.
 Principal axes and moments of inertia in atomic units:
                           1         2         3
     Eigenvalues --     0.000001294.146771294.14677
           X           -0.00000  -0.59223   0.80577
           Y           -0.00000   0.80577   0.59223
           Z            1.00000  -0.00000   0.00000
 This molecule is a prolate symmetric top.
 Rotational symmetry number  1.
 Warning -- assumption of classical behavior for rotation
           may cause significant error
 Rotational temperature (Kelvin)      0.06693
 Rotational constant (GHZ):           1.394541
    2 imaginary frequencies ignored.
 Zero-point vibrational energy      59418.7 (Joules/Mol)
                                   14.20141 (Kcal/Mol)
 Warning -- explicit consideration of   6 degrees of freedom as
           vibrations may cause significant error
 Vibrational temperatures:    212.00   212.00   563.73   563.73   804.52
          (Kelvin)            804.52   925.86  1718.98  2543.85  2922.97
                             3020.68

 Zero-point correction=                           0.022631 (Hartree/Particle)
 Thermal correction to Energy=                    0.027447
 Thermal correction to Enthalpy=                  0.028392
 Thermal correction to Gibbs Free Energy=        -0.004186
 Sum of electronic and zero-point Energies=           -244.699702
 Sum of electronic and thermal Energies=              -244.694886
 Sum of electronic and thermal Enthalpies=            -244.693942
 Sum of electronic and thermal Free Energies=         -244.726520

                     E (Thermal)             CV                S
                      KCal/Mol        Cal/Mol-Kelvin    Cal/Mol-Kelvin
 Total                   17.224             15.190             68.566
 Electronic               0.000              0.000              2.183
 Translational            0.889              2.981             38.821
 Rotational               0.592              1.987             18.683
 Vibrational             15.742             10.222              8.879
 Vibration     1          0.617              1.906              2.706
 Vibration     2          0.617              1.906              2.706
 Vibration     3          0.759              1.488              0.993
 Vibration     4          0.759              1.488              0.993
 Vibration     5          0.915              1.120              0.525
 Vibration     6          0.915              1.120              0.525

 Optimization completed.
    -- Stationary point found.
 Normal termination of Gaussian 09 at Fri Aug  5 08:11:50 2016.
