 Gaussian 09, Revision E.01,
 Gaussian 09:  EM64L-G09RevE.01 30-Nov-2015

 ---------------------------------------------
 #p b3lyp/6-311++G(3df,2p) freq symmetry=Loose
 ---------------------------------------------

 ---------
 b3lyp opt
 ---------
 Symbolic Z-matrix:
 Charge =  0 Multiplicity = 2

                         Standard orientation:
 ---------------------------------------------------------------------
 Center     Atomic      Atomic             Coordinates (Angstroms)
 Number     Number       Type             X           Y           Z
 ---------------------------------------------------------------------
      1          7           0        0.356031    0.266146   -0.000000
      2          6           0       -0.000000    1.533973   -0.000000
      3          6           0       -2.289670    0.039777   -0.000000
      4          6           0       -1.131467    0.635811   -0.000000
      5          6           0        1.893903   -1.766308    0.000000
      6          6           0        1.111864   -0.753755    0.000000
 ---------------------------------------------------------------------

 SCF Done:  E(UB3LYP) =  -244.883812806     A.U. after   23 cycles

 The electronic state is 2-A".
 Alpha  occ. eigenvalues --  -14.53003 -10.33632 -10.29412 -10.28686 -10.27342
 Alpha  occ. eigenvalues --  -10.26191  -1.13991  -0.91385  -0.81569  -0.77256
 Alpha  occ. eigenvalues --   -0.60706  -0.55529  -0.53018  -0.38561  -0.37198
 Alpha  occ. eigenvalues --   -0.35122  -0.33588  -0.31750  -0.31329
 Alpha virt. eigenvalues --   -0.18254  -0.15460  -0.02325  -0.01488  -0.00952
 Alpha virt. eigenvalues --    0.02120   0.02494   0.03916   0.04002   0.05630
 Alpha virt. eigenvalues --    0.05922   0.06429   0.07915   0.08651   0.09140

  Beta  occ. eigenvalues --  -14.52781 -10.33595 -10.29344 -10.28142 -10.27125
  Beta  occ. eigenvalues --  -10.25727  -1.13526  -0.91069  -0.79768  -0.75521
  Beta  occ. eigenvalues --   -0.60368  -0.54038  -0.52951  -0.36928  -0.35077
  Beta  occ. eigenvalues --   -0.34300  -0.32665  -0.31274
  Beta virt. eigenvalues --   -0.22963  -0.17623  -0.13201  -0.02063  -0.00804
  Beta virt. eigenvalues --    0.00118   0.02630   0.03839   0.03973   0.04817
  Beta virt. eigenvalues --    0.05697   0.05957   0.06466   0.08482   0.08725

 Mulliken charges and spin densities:
               1          2
     1  N   -0.618989   0.079568
     2  C   -0.291102   0.022674
     3  C   -0.448701   0.331861
     4  C    0.991939   0.070387
     5  C   -0.505928   0.298969
     6  C    0.872781   0.196541
 Sum of Mulliken charges =  -0.00000   1.00000

 Dipole moment (field-independent basis, Debye):
    X=             -0.1987    Y=              1.8113    Z=             -0.0000  Tot=              1.8221
 Quadrupole moment (field-independent basis, Debye-Ang):
   XX=            -44.5876   YY=            -41.0942   ZZ=            -32.6577
   XY=              3.0233   XZ=             -0.0000   YZ=              0.0000

  Exact polarizability: 117.024 -25.976  80.216  -0.000  -0.000  42.463
 Approx polarizability: 318.257 -74.304 168.756   0.000  -0.000  62.303

 ******    1 imaginary frequencies (negative Signs) ******

                      1                      2                      3
                     A'                     A'                     A"
 Frequencies --   -123.6829               142.6259               156.9232
 Red. masses --     12.6339                12.1171                12.2435
 Frc consts  --      0.1139                 0.1452                 0.1776
 IR Inten    --    181.4903                11.6996                17.6969

                      4                      5                      6
                     A'                     A"                     A"
 Frequencies --    249.8825               277.2605               394.1956
 Red. masses --     12.0893                12.0007                13.1530
 Frc consts  --      0.4448                 0.5435                 1.2042
 IR Inten    --      7.8809                11.2292                 1.6045

                      7                      8                      9
                     A'                     A'                     A'
 Frequencies --    517.2220               802.1317               927.2950
 Red. masses --     12.6576                12.1008                12.1133
 Frc consts  --      1.9951                 4.5873                 6.1369
 IR Inten    --     19.3710                18.3683                11.9465

                     10                     11                     12
                     A'                     A'                     A'
 Frequencies --   1441.5329              1733.0357              1977.9652
 Red. masses --     12.8709                12.1344                12.1769
 Frc consts  --     15.7582                21.4725                28.0688
 IR Inten    --    219.0846               400.9363               616.7893

 - Thermochemistry -
 -------------------
 Temperature   298.150 Kelvin.  Pressure   1.00000 Atm.
 Atom     1 has atomic number  7 and mass  14.00307

 Molecular mass:    74.00307 amu.
 Principal axes and moments of inertia in atomic units:
                           1         2         3
     Eigenvalues --   151.43616 620.91613 772.35229
           X            0.85239   0.52291   0.00000
           Y           -0.52291   0.85239   0.00000
           Z            0.00000  -0.00000   1.00000
 This molecule is an asymmetric top.
 Rotational symmetry number  1.
 Rotational temperatures (Kelvin)      0.57195     0.13949     0.11214
 Rotational constants (GHZ):          11.91750     2.90658     2.33668
    1 imaginary frequencies ignored.
 Zero-point vibrational energy      51559.5 (Joules/Mol)
                                   12.32301 (Kcal/Mol)
 Warning -- explicit consideration of   6 degrees of freedom as
           vibrations may cause significant error
 Vibrational temperatures:    205.21   225.78   359.52   398.92   567.16
          (Kelvin)            744.17  1154.09  1334.17  2074.04  2493.45
                             2845.85

 Zero-point correction=                           0.019638 (Hartree/Particle)
 Thermal correction to Energy=                    0.025356
 Thermal correction to Enthalpy=                  0.026300
 Thermal correction to Gibbs Free Energy=        -0.010083
 Sum of electronic and zero-point Energies=           -244.864175
 Sum of electronic and thermal Energies=              -244.858457
 Sum of electronic and thermal Enthalpies=            -244.857513
 Sum of electronic and thermal Free Energies=         -244.893896

                     E (Thermal)             CV                S
                      KCal/Mol        Cal/Mol-Kelvin    Cal/Mol-Kelvin
 Total                   15.911             17.188             76.575
 Electronic               0.000              0.000              1.377
 Translational            0.889              2.981             38.821
 Rotational               0.889              2.981             25.788
 Vibrational             14.134             11.227             10.589
 Vibration     1          0.616              1.911              2.768
 Vibration     2          0.621              1.895              2.587
 Vibration     3          0.663              1.763              1.731
 Vibration     4          0.678              1.716              1.551
 Vibration     5          0.761              1.483              0.984
 Vibration     6          0.872              1.212              0.616

 Normal termination of Gaussian 09 at Fri Aug 12 05:19:21 2016.
