 Gaussian 09, Revision E.01,
 Gaussian 09:  EM64L-G09RevE.01 30-Nov-2015

 ---------------------------------------------
 #p b3lyp/6-311++G(3df,2p) freq symmetry=Loose
 ---------------------------------------------

 ---------
 b3lyp opt
 ---------
 Symbolic Z-matrix:
 Charge =  0 Multiplicity = 2

                         Standard orientation:
 ---------------------------------------------------------------------
 Center     Atomic      Atomic             Coordinates (Angstroms)
 Number     Number       Type             X           Y           Z
 ---------------------------------------------------------------------
      1          7           0        0.000000    0.000000    1.873519
      2          6           0        0.000000    0.000000    0.590697
      3          6           0        0.000000    0.000000   -0.640039
      4          6           0        0.000000    0.000000   -1.956543
      5          6           0        0.000000    0.000000   -3.240563
      6          6           0        0.000000    0.000000    3.060677
 ---------------------------------------------------------------------

 SCF Done:  E(UB3LYP) =  -245.061170394     A.U. after   18 cycles

 Unable to determine electronic state:  an orbital has unidentified symmetry.
 Alpha  occ. eigenvalues --  -14.44118 -10.31684 -10.29346 -10.28022 -10.24603
 Alpha  occ. eigenvalues --  -10.24115  -1.05424  -0.88425  -0.82929  -0.76897
 Alpha  occ. eigenvalues --   -0.66990  -0.50783  -0.50053  -0.41105  -0.39906
 Alpha  occ. eigenvalues --   -0.37908  -0.32139  -0.31345  -0.29507
 Alpha virt. eigenvalues --   -0.12169  -0.11120  -0.01485  -0.01359  -0.00569
 Alpha virt. eigenvalues --    0.02870   0.03529   0.03873   0.05351   0.06153
 Alpha virt. eigenvalues --    0.06471   0.07161   0.10603   0.10801   0.10817

  Beta  occ. eigenvalues --  -14.44181 -10.31151 -10.29130 -10.28153 -10.24130
  Beta  occ. eigenvalues --  -10.23644  -1.05101  -0.87457  -0.81644  -0.75576
  Beta  occ. eigenvalues --   -0.66188  -0.49896  -0.49291  -0.39741  -0.38428
  Beta  occ. eigenvalues --   -0.37464  -0.31170  -0.28836
  Beta virt. eigenvalues --   -0.22326  -0.10883  -0.09598  -0.01292  -0.00330
  Beta virt. eigenvalues --    0.00429   0.02968   0.03949   0.04208   0.05467
  Beta virt. eigenvalues --    0.06518   0.06658   0.07190   0.10849   0.10941

 Mulliken charges and spin densities:
               1          2
     1  N   -0.857186  -0.033262
     2  C    0.261946   0.181202
     3  C    0.234725   0.130158
     4  C    0.983126   0.383594
     5  C   -0.719689   0.211152
     6  C    0.097078   0.127157
 Sum of Mulliken charges =  -0.00000   1.00000

 Dipole moment (field-independent basis, Debye):
    X=              0.0000    Y=              0.0000    Z=              2.1845  Tot=              2.1845
 Quadrupole moment (field-independent basis, Debye-Ang):
   XX=            -31.9559   YY=            -33.7282   ZZ=            -54.1217
   XY=              0.0000   XZ=              0.0000   YZ=              0.0000

  Exact polarizability:  41.808   0.000  38.846  -0.000   0.000 172.134
 Approx polarizability:  56.237  -0.000  55.193  -0.000  -0.000 369.659

 ******    1 imaginary frequencies (negative Signs) ******

                      1                      2                      3
                     ?A                     ?A                     ?A
 Frequencies --    -72.7835               113.6332               150.1733
 Red. masses --     12.0161                12.0068                12.1277
 Frc consts  --      0.0375                 0.0913                 0.1611
 IR Inten    --     43.5842                 8.4243                 0.0232

                      4                      5                      6
                     ?A                     ?A                     ?A
 Frequencies --    238.6772               331.4918               400.7916
 Red. masses --     12.2512                12.8470                12.9635
 Frc consts  --      0.4112                 0.8318                 1.2269
 IR Inten    --      0.1485                 7.7823                 0.1812

                      7                      8                      9
                     ?A                     ?A                     SG
 Frequencies --    509.4204               518.8543               662.0805
 Red. masses --     12.0008                12.2157                12.3626
 Frc consts  --      1.8349                 1.9376                 3.1929
 IR Inten    --      0.5176                 6.3589                 2.4500

                     10                     11                     12
                     SG                     SG                     SG
 Frequencies --   1244.7697              1910.1177              2097.4388
 Red. masses --     12.0406                12.0926                12.8322
 Frc consts  --     10.9920                25.9951                33.2606
 IR Inten    --     10.8559               108.5635               573.1645

                     13
                     SG
 Frequencies --   2170.8209
 Red. masses --     12.1305
 Frc consts  --     33.6803
 IR Inten    --      3.2805

 - Thermochemistry -
 -------------------
 Temperature   298.150 Kelvin.  Pressure   1.00000 Atm.
 Atom     1 has atomic number  7 and mass  14.00307

 Molecular mass:    74.00307 amu.
 Principal axes and moments of inertia in atomic units:
                           1         2         3
     Eigenvalues --     0.000001223.515831223.51583
           X            0.00000  -0.00000   1.00000
           Y            0.00000   1.00000   0.00000
           Z            1.00000   0.00000   0.00000
 This molecule is a prolate symmetric top.
 Rotational symmetry number  1.
 Warning -- assumption of classical behavior for rotation
           may cause significant error
 Rotational temperature (Kelvin)      0.07079
 Rotational constant (GHZ):           1.475045
    1 imaginary frequencies ignored.
 Zero-point vibrational energy      61896.4 (Joules/Mol)
                                   14.79359 (Kcal/Mol)
 Warning -- explicit consideration of   7 degrees of freedom as
           vibrations may cause significant error
 Vibrational temperatures:    163.49   216.07   343.40   476.94   576.65
          (Kelvin)            732.94   746.51   952.58  1790.94  2748.23
                             3017.74  3123.32

 Zero-point correction=                           0.023575 (Hartree/Particle)
 Thermal correction to Energy=                    0.029053
 Thermal correction to Enthalpy=                  0.029997
 Thermal correction to Gibbs Free Energy=        -0.003410
 Sum of electronic and zero-point Energies=           -245.037595
 Sum of electronic and thermal Energies=              -245.032117
 Sum of electronic and thermal Enthalpies=            -245.031173
 Sum of electronic and thermal Free Energies=         -245.064580

                     E (Thermal)             CV                S
                      KCal/Mol        Cal/Mol-Kelvin    Cal/Mol-Kelvin
 Total                   18.231             17.220             70.311
 Electronic               0.000              0.000              1.377
 Translational            0.889              2.981             38.821
 Rotational               0.592              1.987             18.572
 Vibrational             16.750             12.252             11.541
 Vibration     1          0.607              1.938              3.206
 Vibration     2          0.618              1.902              2.670
 Vibration     3          0.657              1.781              1.813
 Vibration     4          0.714              1.613              1.253
 Vibration     5          0.767              1.468              0.960
 Vibration     6          0.865              1.229              0.635
 Vibration     7          0.874              1.208              0.613

 Optimization completed.
    -- Stationary point found.
 Normal termination of Gaussian 09 at Fri Aug 12 05:38:57 2016.
