 Gaussian 09, Revision E.01,
 Gaussian 09:  EM64L-G09RevE.01 30-Nov-2015

 ---------------------------------------------
 #p b3lyp/6-311++G(3df,2p) freq symmetry=Loose
 ---------------------------------------------

 ---------
 b3lyp opt
 ---------
 Symbolic Z-matrix:
 Charge =  0 Multiplicity = 4

                         Standard orientation:
 ---------------------------------------------------------------------
 Center     Atomic      Atomic             Coordinates (Angstroms)
 Number     Number       Type             X           Y           Z
 ---------------------------------------------------------------------
      1          7           0        0.000000    0.000000    1.860159
      2          6           0        0.000000    0.000000    0.630192
      3          6           0        0.000000    0.000000   -0.675159
      4          6           0        0.000000    0.000000   -1.934303
      5          6           0        0.000000    0.000000   -3.286282
      6          6           0        0.000000    0.000000    3.095367
 ---------------------------------------------------------------------

 SCF Done:  E(UB3LYP) =  -244.971689095     A.U. after   17 cycles

 Unable to determine electronic state:  an orbital has unidentified symmetry.
 Alpha  occ. eigenvalues --  -14.44332 -10.34087 -10.28672 -10.27326 -10.26402
 Alpha  occ. eigenvalues --  -10.26001  -1.05871  -0.88915  -0.83958  -0.77362
 Alpha  occ. eigenvalues --   -0.68256  -0.51722  -0.51288  -0.41859  -0.41004
 Alpha  occ. eigenvalues --   -0.37958  -0.33903  -0.31908  -0.30442  -0.19971
 Alpha virt. eigenvalues --   -0.14131  -0.03867  -0.02599  -0.01573   0.02682
 Alpha virt. eigenvalues --    0.03396   0.03486   0.05347   0.06081   0.06093
 Alpha virt. eigenvalues --    0.06855   0.10157   0.10363   0.10767   0.11448

  Beta  occ. eigenvalues --  -14.44562 -10.32711 -10.27516 -10.27062 -10.25903
  Beta  occ. eigenvalues --  -10.24546  -1.04712  -0.86243  -0.81126  -0.74075
  Beta  occ. eigenvalues --   -0.65822  -0.49094  -0.48458  -0.38412  -0.37437
  Beta  occ. eigenvalues --   -0.35447  -0.31037
  Beta virt. eigenvalues --   -0.21194  -0.20064  -0.10018  -0.08402  -0.01379
  Beta virt. eigenvalues --   -0.00178   0.00518   0.02969   0.04294   0.04844
  Beta virt. eigenvalues --    0.05660   0.06581   0.06801   0.07014   0.10797

 Mulliken charges and spin densities:
               1          2
     1  N   -0.890680  -0.102372
     2  C    0.433871   0.595931
     3  C    0.208623   0.511063
     4  C    0.889195   0.457989
     5  C   -0.660153   0.813261
     6  C    0.019145   0.724129
 Sum of Mulliken charges =  -0.00000   3.00000

 Dipole moment (field-independent basis, Debye):
    X=              0.0000    Y=              0.0000    Z=              1.2728  Tot=              1.2728
 Quadrupole moment (field-independent basis, Debye-Ang):
   XX=            -32.1740   YY=            -33.9020   ZZ=            -56.8130
   XY=              0.0000   XZ=              0.0000   YZ=              0.0000

  Exact polarizability:  40.709   0.000  41.688  -0.000  -0.000 199.131
 Approx polarizability:  57.764  -0.000  55.955  -0.000  -0.000 431.175

 ******    1 imaginary frequencies (negative Signs) ******

                      1                      2                      3
                     ?A                     ?A                     ?A
 Frequencies --   -174.9842                73.6443               100.6197
 Red. masses --     12.1220                12.0006                12.0046
 Frc consts  --      0.2187                 0.0383                 0.0716
 IR Inten    --      2.7057                 3.4700                18.5508

                      4                      5                      6
                     ?A                     ?A                     ?A
 Frequencies --    201.6522               284.3636               320.8075
 Red. masses --     12.3279                13.1279                12.0004
 Frc consts  --      0.2954                 0.6255                 0.7277
 IR Inten    --      0.5510                 3.3737                18.4356

                      7                      8                      9
                     ?A                     ?A                     SG
 Frequencies --    373.7254               466.7334               651.2873
 Red. masses --     12.6771                12.1912                12.3619
 Frc consts  --      1.0432                 1.5647                 3.0894
 IR Inten    --      4.7696                 5.2797                 0.0034

                     10                     11                     12
                     SG                     SG                     SG
 Frequencies --   1111.9940              1517.1143              1701.8867
 Red. masses --     12.0108                12.6084                12.3555
 Frc consts  --      8.7503                17.0980                21.0849
 IR Inten    --     26.6417                37.9306                 4.7546

                     13
                     SG
 Frequencies --   2151.1427
 Red. masses --     12.1063
 Frc consts  --     33.0066
 IR Inten    --     80.8981

 - Thermochemistry -
 -------------------
 Temperature   298.150 Kelvin.  Pressure   1.00000 Atm.
 Atom     1 has atomic number  7 and mass  14.00307

 Molecular mass:    74.00307 amu.
 Principal axes and moments of inertia in atomic units:
                           1         2         3
     Eigenvalues --     0.000001243.297621243.29762
           X            0.00000  -0.00000   1.00000
           Y            0.00000   1.00000   0.00000
           Z            1.00000   0.00000   0.00000
 This molecule is a prolate symmetric top.
 Rotational symmetry number  1.
 Warning -- assumption of classical behavior for rotation
           may cause significant error
 Rotational temperature (Kelvin)      0.06966
 Rotational constant (GHZ):           1.451576
    1 imaginary frequencies ignored.
 Zero-point vibrational energy      53562.6 (Joules/Mol)
                                   12.80177 (Kcal/Mol)
 Warning -- explicit consideration of   7 degrees of freedom as
           vibrations may cause significant error
 Vibrational temperatures:    105.96   144.77   290.13   409.14   461.57
          (Kelvin)            537.71   671.52   937.06  1599.91  2182.79
                             2448.63  3095.01

 Zero-point correction=                           0.020401 (Hartree/Particle)
 Thermal correction to Energy=                    0.026424
 Thermal correction to Enthalpy=                  0.027369
 Thermal correction to Gibbs Free Energy=        -0.008201
 Sum of electronic and zero-point Energies=           -244.951288
 Sum of electronic and thermal Energies=              -244.945265
 Sum of electronic and thermal Enthalpies=            -244.944320
 Sum of electronic and thermal Free Energies=         -244.979890

                     E (Thermal)             CV                S
                      KCal/Mol        Cal/Mol-Kelvin    Cal/Mol-Kelvin
 Total                   16.582             18.216             74.863
 Electronic               0.000              0.000              2.755
 Translational            0.889              2.981             38.821
 Rotational               0.592              1.987             18.604
 Vibrational             15.100             13.248             14.684
 Vibration     1          0.599              1.966              4.054
 Vibration     2          0.604              1.949              3.442
 Vibration     3          0.639              1.838              2.118
 Vibration     4          0.683              1.703              1.507
 Vibration     5          0.706              1.634              1.306
 Vibration     6          0.745              1.526              1.064
 Vibration     7          0.824              1.324              0.747

 Optimization completed.
    -- Stationary point found.
 Normal termination of Gaussian 09 at Fri Aug  5 08:02:01 2016.
