 Gaussian 09, Revision E.01,
 Gaussian 09:  EM64L-G09RevE.01 30-Nov-2015

 ---------------------------------------------
 #p b3lyp/6-311++G(3df,2p) freq symmetry=Loose
 ---------------------------------------------

 ---------
 b3lyp opt
 ---------
 Symbolic Z-matrix:
 Charge =  0 Multiplicity = 2

                         Standard orientation:
 ---------------------------------------------------------------------
 Center     Atomic      Atomic             Coordinates (Angstroms)
 Number     Number       Type             X           Y           Z
 ---------------------------------------------------------------------
      1          7           0        2.127245    0.000025    0.000281
      2          6           0        1.011627   -0.771834   -0.000122
      3          6           0        1.011540    0.771864   -0.000122
      4          6           0       -1.516490   -0.000086   -0.000339
      5          6           0       -0.195979   -0.000031   -0.000096
      6          6           0       -2.792484    0.000058    0.000352
 ---------------------------------------------------------------------

 SCF Done:  E(UB3LYP) =  -244.977268267     A.U. after   18 cycles

 The electronic state is 2-A.
 Alpha  occ. eigenvalues --  -14.44573 -10.36817 -10.36794 -10.32156 -10.22545
 Alpha  occ. eigenvalues --  -10.21367  -1.15935  -0.89250  -0.79467  -0.67628
 Alpha  occ. eigenvalues --   -0.65235  -0.54479  -0.53100  -0.47195  -0.38964
 Alpha  occ. eigenvalues --   -0.37328  -0.31684  -0.30541  -0.27868
 Alpha virt. eigenvalues --   -0.15499  -0.12926  -0.07503  -0.00208   0.00309
 Alpha virt. eigenvalues --    0.02715   0.02764   0.04372   0.05979   0.06617
 Alpha virt. eigenvalues --    0.06988   0.07113   0.08799   0.09598   0.09918

  Beta  occ. eigenvalues --  -14.43813 -10.36853 -10.36830 -10.31950 -10.21958
  Beta  occ. eigenvalues --  -10.21156  -1.15172  -0.88196  -0.77791  -0.66563
  Beta  occ. eigenvalues --   -0.65058  -0.52765  -0.52513  -0.46362  -0.37141
  Beta  occ. eigenvalues --   -0.35328  -0.31172  -0.29420
  Beta virt. eigenvalues --   -0.18676  -0.15417  -0.12606  -0.04099   0.00054
  Beta virt. eigenvalues --    0.00371   0.02827   0.02919   0.04428   0.06061
  Beta virt. eigenvalues --    0.06650   0.07081   0.07795   0.08799   0.10032

 Mulliken charges and spin densities:
               1          2
     1  N   -0.526202   0.340119
     2  C    0.081888  -0.044969
     3  C    0.081702  -0.044893
     4  C    0.474905   0.258570
     5  C    0.266573   0.177672
     6  C   -0.378867   0.313501
 Sum of Mulliken charges =  -0.00000   1.00000

 Dipole moment (field-independent basis, Debye):
    X=              3.5476    Y=             -0.0002    Z=             -0.0016  Tot=              3.5476
 Quadrupole moment (field-independent basis, Debye-Ang):
   XX=            -50.4679   YY=            -33.7416   ZZ=            -32.2853
   XY=              0.0002   XZ=              0.0029   YZ=             -0.0000

  Exact polarizability: 120.234  -0.000  49.323   0.006  -0.000  37.637
 Approx polarizability: 251.927  -0.000 103.207  -0.000  -0.000  56.079

 ******    1 imaginary frequencies (negative Signs) ******

                      1                      2                      3
                      A                      A                      A
 Frequencies --   -588.1435               145.6932               159.6526
 Red. masses --     12.2693                12.3647                12.1356
 Frc consts  --      2.5005                 0.1546                 0.1822
 IR Inten    --      6.4811                15.5514                 7.3001

                      4                      5                      6
                      A                      A                      A
 Frequencies --    351.7350               474.9838               570.0976
 Red. masses --     12.2065                12.2519                12.3243
 Frc consts  --      0.8898                 1.6286                 2.3600
 IR Inten    --      2.1339                 0.1988                 7.6927

                      7                      8                      9
                      A                      A                      A
 Frequencies --    685.6762               687.4076               986.9291
 Red. masses --     12.4387                12.2675                12.1410
 Frc consts  --      3.4456                 3.4153                 6.9675
 IR Inten    --      2.8157                53.1010                 3.0810

                     10                     11                     12
                      A                      A                      A
 Frequencies --   1418.5425              1492.1184              2016.4944
 Red. masses --     12.7542                12.1161                12.0046
 Frc consts  --     15.1212                15.8935                28.7602
 IR Inten    --      7.3659                16.1722               424.8152

 - Thermochemistry -
 -------------------
 Temperature   298.150 Kelvin.  Pressure   1.00000 Atm.
 Atom     1 has atomic number  7 and mass  14.00307

 Molecular mass:    74.00307 amu.
 Principal axes and moments of inertia in atomic units:
                           1         2         3
     Eigenvalues --    51.05918 748.34851 799.40766
           X            1.00000  -0.00000  -0.00000
           Y            0.00000   1.00000  -0.00000
           Z            0.00000   0.00000   1.00000
 This molecule is an asymmetric top.
 Rotational symmetry number  1.
 Rotational temperatures (Kelvin)      1.69634     0.11574     0.10835
 Rotational constants (GHZ):          35.34607     2.41163     2.25760
    1 imaginary frequencies ignored.
 Zero-point vibrational energy      53768.1 (Joules/Mol)
                                   12.85089 (Kcal/Mol)
 Warning -- explicit consideration of   5 degrees of freedom as
           vibrations may cause significant error
 Vibrational temperatures:    209.62   229.70   506.07   683.39   820.24
          (Kelvin)            986.53   989.03  1419.97  2040.96  2146.82
                             2901.28

 Zero-point correction=                           0.020479 (Hartree/Particle)
 Thermal correction to Energy=                    0.025657
 Thermal correction to Enthalpy=                  0.026601
 Thermal correction to Gibbs Free Energy=        -0.008353
 Sum of electronic and zero-point Energies=           -244.956789
 Sum of electronic and thermal Energies=              -244.951611
 Sum of electronic and thermal Enthalpies=            -244.950667
 Sum of electronic and thermal Free Energies=         -244.985621

                     E (Thermal)             CV                S
                      KCal/Mol        Cal/Mol-Kelvin    Cal/Mol-Kelvin
 Total                   16.100             16.024             73.567
 Electronic               0.000              0.000              1.377
 Translational            0.889              2.981             38.821
 Rotational               0.889              2.981             24.927
 Vibrational             14.322             10.062              8.441
 Vibration     1          0.617              1.907              2.728
 Vibration     2          0.622              1.892              2.554
 Vibration     3          0.728              1.572              1.158
 Vibration     4          0.832              1.306              0.724
 Vibration     5          0.926              1.096              0.504

 Optimization completed.
    -- Stationary point found.
 Normal termination of Gaussian 09 at Thu Aug 11 23:19:59 2016.
