 Gaussian 09, Revision E.01,
 Gaussian 09:  EM64L-G09RevE.01 30-Nov-2015

 ---------------------------------------------
 #p b3lyp/6-311++G(3df,2p) freq symmetry=Loose
 ---------------------------------------------

 ---------
 b3lyp opt
 ---------
 Symbolic Z-matrix:
 Charge =  0 Multiplicity = 2

                         Standard orientation:
 ---------------------------------------------------------------------
 Center     Atomic      Atomic             Coordinates (Angstroms)
 Number     Number       Type             X           Y           Z
 ---------------------------------------------------------------------
      1          7           0        0.000000    0.000000    1.873380
      2          6           0        0.000000    0.000000    0.590657
      3          6           0        0.000000    0.000000   -0.640023
      4          6           0        0.000000    0.000000   -1.956373
      5          6           0        0.000000    0.000000   -3.240478
      6          6           0        0.000000    0.000000    3.060609
 ---------------------------------------------------------------------

 SCF Done:  E(UB3LYP) =  -245.061170399     A.U. after   18 cycles

 Unable to determine electronic state:  an orbital has unidentified symmetry.
 Alpha  occ. eigenvalues --  -14.44117 -10.31681 -10.29347 -10.28017 -10.24605
 Alpha  occ. eigenvalues --  -10.24113  -1.05424  -0.88426  -0.82929  -0.76896
 Alpha  occ. eigenvalues --   -0.66992  -0.50784  -0.50054  -0.41105  -0.39907
 Alpha  occ. eigenvalues --   -0.37909  -0.32140  -0.31342  -0.29504
 Alpha virt. eigenvalues --   -0.12170  -0.11121  -0.01486  -0.01359  -0.00569
 Alpha virt. eigenvalues --    0.02871   0.03529   0.03873   0.05351   0.06153
 Alpha virt. eigenvalues --    0.06471   0.07161   0.10603   0.10802   0.10817

  Beta  occ. eigenvalues --  -14.44181 -10.31148 -10.29132 -10.28148 -10.24132
  Beta  occ. eigenvalues --  -10.23643  -1.05101  -0.87458  -0.81644  -0.75575
  Beta  occ. eigenvalues --   -0.66190  -0.49897  -0.49292  -0.39741  -0.38429
  Beta  occ. eigenvalues --   -0.37465  -0.31171  -0.28834
  Beta virt. eigenvalues --   -0.22324  -0.10883  -0.09598  -0.01292  -0.00331
  Beta virt. eigenvalues --    0.00429   0.02968   0.03949   0.04208   0.05467
  Beta virt. eigenvalues --    0.06519   0.06659   0.07190   0.10849   0.10941

 Mulliken charges and spin densities:
               1          2
     1  N   -0.857312  -0.033274
     2  C    0.261855   0.181165
     3  C    0.234808   0.130212
     4  C    0.983222   0.383487
     5  C   -0.719615   0.211177
     6  C    0.097042   0.127234
 Sum of Mulliken charges =  -0.00000   1.00000

 Dipole moment (field-independent basis, Debye):
    X=              0.0000    Y=              0.0000    Z=              2.1844  Tot=              2.1844
 Quadrupole moment (field-independent basis, Debye-Ang):
   XX=            -33.7280   YY=            -31.9556   ZZ=            -54.1190
   XY=              0.0000   XZ=              0.0000   YZ=              0.0000

  Exact polarizability:  38.846   0.000  41.798  -0.000   0.000 172.149
 Approx polarizability:  55.193  -0.000  56.236  -0.000  -0.000 369.770

 ******    1 imaginary frequencies (negative Signs) ******

                      1                      2                      3
                     ?A                     ?A                     ?A
 Frequencies --    -70.7176               113.8914               150.3808
 Red. masses --     12.0161                12.0067                12.1270
 Frc consts  --      0.0354                 0.0918                 0.1616
 IR Inten    --     43.4301                 8.4191                 0.0286

                      4                      5                      6
                     ?A                     ?A                     ?A
 Frequencies --    238.8258               331.5209               400.7721
 Red. masses --     12.2502                12.8473                12.9648
 Frc consts  --      0.4117                 0.8319                 1.2269
 IR Inten    --      0.1504                 7.7963                 0.1830

                      7                      8                      9
                     ?A                     ?A                     SG
 Frequencies --    509.2046               518.6586               662.2414
 Red. masses --     12.0008                12.2161                12.3626
 Frc consts  --      1.8333                 1.9362                 3.1944
 IR Inten    --      0.5162                 6.3489                 2.4493

                     10                     11                     12
                     SG                     SG                     SG
 Frequencies --   1244.9768              1909.9287              2097.2464
 Red. masses --     12.0405                12.0932                12.8335
 Frc consts  --     10.9956                25.9912                33.2577
 IR Inten    --     10.9276               108.0789               573.4284

                     13
                     SG
 Frequencies --   2171.2668
 Red. masses --     12.1290
 Frc consts  --     33.6899
 IR Inten    --      3.0777

 - Thermochemistry -
 -------------------
 Temperature   298.150 Kelvin.  Pressure   1.00000 Atm.
 Atom     1 has atomic number  7 and mass  14.00307

 Molecular mass:    74.00307 amu.
 Principal axes and moments of inertia in atomic units:
                           1         2         3
     Eigenvalues --     0.000001223.416941223.41694
           X            0.00000  -0.00000   1.00000
           Y            0.00000   1.00000   0.00000
           Z            1.00000   0.00000   0.00000
 This molecule is a prolate symmetric top.
 Rotational symmetry number  1.
 Warning -- assumption of classical behavior for rotation
           may cause significant error
 Rotational temperature (Kelvin)      0.07080
 Rotational constant (GHZ):           1.475164
    1 imaginary frequencies ignored.
 Zero-point vibrational energy      61900.3 (Joules/Mol)
                                   14.79452 (Kcal/Mol)
 Warning -- explicit consideration of   7 degrees of freedom as
           vibrations may cause significant error
 Vibrational temperatures:    163.86   216.36   343.62   476.98   576.62
          (Kelvin)            732.63   746.23   952.82  1791.24  2747.96
                             3017.47  3123.96

 Zero-point correction=                           0.023577 (Hartree/Particle)
 Thermal correction to Energy=                    0.029054
 Thermal correction to Enthalpy=                  0.029998
 Thermal correction to Gibbs Free Energy=        -0.003406
 Sum of electronic and zero-point Energies=           -245.037594
 Sum of electronic and thermal Energies=              -245.032117
 Sum of electronic and thermal Enthalpies=            -245.031173
 Sum of electronic and thermal Free Energies=         -245.064576

                     E (Thermal)             CV                S
                      KCal/Mol        Cal/Mol-Kelvin    Cal/Mol-Kelvin
 Total                   18.231             17.220             70.303
 Electronic               0.000              0.000              1.377
 Translational            0.889              2.981             38.821
 Rotational               0.592              1.987             18.572
 Vibrational             16.750             12.252             11.534
 Vibration     1          0.607              1.938              3.201
 Vibration     2          0.618              1.902              2.667
 Vibration     3          0.657              1.781              1.812
 Vibration     4          0.714              1.613              1.253
 Vibration     5          0.767              1.468              0.960
 Vibration     6          0.864              1.230              0.636
 Vibration     7          0.874              1.209              0.613

 Optimization completed.
    -- Stationary point found.
 Normal termination of Gaussian 09 at Thu Aug 11 22:14:12 2016.
