 Gaussian 09, Revision E.01,
 Gaussian 09:  EM64L-G09RevE.01 30-Nov-2015

 ---------------------------------------------
 #p b3lyp/6-311++G(3df,2p) freq symmetry=Loose
 ---------------------------------------------

 ---------
 b3lyp opt
 ---------
 Symbolic Z-matrix:
 Charge =  1 Multiplicity = 3

                         Standard orientation:
 ---------------------------------------------------------------------
 Center     Atomic      Atomic             Coordinates (Angstroms)
 Number     Number       Type             X           Y           Z
 ---------------------------------------------------------------------
      1          6           0       -0.000000    0.986322    0.567389
      2          6           0       -0.000000   -0.986322    0.567389
      3          7           0       -0.000000   -0.000000    1.412817
      4          6           0        0.000000    1.224036   -0.761644
      5          6           0       -0.000000   -1.224036   -0.761644
      6          6           0        0.000000    0.000000   -1.259718
 ---------------------------------------------------------------------

 SCF Done:  E(UB3LYP) =  -244.644611202     A.U. after   16 cycles

 The electronic state is 3-B2.
 Alpha  occ. eigenvalues --  -14.66080 -10.58027 -10.58026 -10.53719 -10.52898
 Alpha  occ. eigenvalues --  -10.52889  -1.31943  -1.15697  -1.08132  -0.91875
 Alpha  occ. eigenvalues --   -0.89327  -0.79859  -0.74578  -0.73713  -0.62490
 Alpha  occ. eigenvalues --   -0.60687  -0.59778  -0.57619  -0.51330
 Alpha virt. eigenvalues --   -0.37821  -0.35457  -0.30760  -0.29653  -0.16007
 Alpha virt. eigenvalues --   -0.14190  -0.10934  -0.10355  -0.10168  -0.08900
 Alpha virt. eigenvalues --   -0.07999  -0.07536  -0.06144  -0.05875  -0.03031

  Beta  occ. eigenvalues --  -14.65840 -10.57216 -10.57216 -10.53861 -10.51356
  Beta  occ. eigenvalues --  -10.51351  -1.31217  -1.14796  -1.05682  -0.90128
  Beta  occ. eigenvalues --   -0.88309  -0.79019  -0.73041  -0.70277  -0.60143
  Beta  occ. eigenvalues --   -0.58424  -0.55878
  Beta virt. eigenvalues --   -0.44695  -0.38718  -0.33469  -0.30442  -0.30273
  Beta virt. eigenvalues --   -0.27280  -0.15851  -0.11993  -0.10630  -0.09981
  Beta virt. eigenvalues --   -0.09617  -0.08661  -0.07206  -0.06797  -0.06036

 Mulliken charges and spin densities:
               1          2
     1  C    0.184753   0.412740
     2  C    0.184753   0.412740
     3  N   -0.593738  -0.015472
     4  C    0.528387   0.810950
     5  C    0.528387   0.810950
     6  C    0.167460  -0.431909
 Sum of Mulliken charges =   1.00000   2.00000

 Dipole moment (field-independent basis, Debye):
    X=             -0.0000    Y=             -0.0000    Z=             -1.0986  Tot=              1.0986
 Quadrupole moment (field-independent basis, Debye-Ang):
   XX=            -30.2603   YY=            -22.4130   ZZ=            -25.3596
   XY=              0.0000   XZ=             -0.0000   YZ=             -0.0000

  Exact polarizability:  28.873  -0.000  67.193  -0.000   0.000  58.205
 Approx polarizability:  41.194   0.000 200.026  -0.000   0.000 151.642

 ******    1 imaginary frequencies (negative Signs) ******

                      1                      2                      3
                     B2                     B1                     A1
 Frequencies --   -579.5307               410.1678               480.1103
 Red. masses --     12.1256                12.0789                12.0416
 Frc consts  --      2.3994                 1.1973                 1.6354
 IR Inten    --     55.1874                 5.0168                 0.7328

                      4                      5                      6
                     A2                     B1                     A1
 Frequencies --    497.7621               538.5440               653.5745
 Red. masses --     12.0000                12.6476                12.5447
 Frc consts  --      1.7518                 2.1612                 3.1572
 IR Inten    --      0.0000                 0.0080                 0.3970

                      7                      8                      9
                     B2                     A1                     A1
 Frequencies --    856.3199              1129.1297              1205.2091
 Red. masses --     12.6844                12.6316                12.0057
 Frc consts  --      5.4801                 9.4884                10.2745
 IR Inten    --     41.8217                19.4575                21.5804

                     10                     11                     12
                     B2                     B2                     A1
 Frequencies --   1244.0248              1566.7520              1684.4925
 Red. masses --     12.2079                12.0409                12.2278
 Frc consts  --     11.1313                17.4144                20.4426
 IR Inten    --      1.1277                23.4523               185.4887

 - Thermochemistry -
 -------------------
 Temperature   298.150 Kelvin.  Pressure   1.00000 Atm.
 Atom     1 has atomic number  6 and mass  12.00000

 Molecular mass:    74.00307 amu.
 Principal axes and moments of inertia in atomic units:
                           1         2         3
     Eigenvalues --   211.78658 245.12608 456.91266
           X            0.00000   0.00000   1.00000
           Y            0.00000   1.00000  -0.00000
           Z            1.00000   0.00000   0.00000
 This molecule is an asymmetric top.
 Rotational symmetry number  2.
 Rotational temperatures (Kelvin)      0.40897     0.35334     0.18956
 Rotational constants (GHZ):           8.52151     7.36250     3.94986
    1 imaginary frequencies ignored.
 Zero-point vibrational energy      61404.8 (Joules/Mol)
                                   14.67611 (Kcal/Mol)
 Warning -- explicit consideration of   4 degrees of freedom as
           vibrations may cause significant error
 Vibrational temperatures:    590.14   690.77   716.17   774.84   940.35
          (Kelvin)           1232.05  1624.56  1734.02  1789.87  2254.20
                             2423.61

 Zero-point correction=                           0.023388 (Hartree/Particle)
 Thermal correction to Energy=                    0.027437
 Thermal correction to Enthalpy=                  0.028381
 Thermal correction to Gibbs Free Energy=        -0.003855
 Sum of electronic and zero-point Energies=           -244.621223
 Sum of electronic and thermal Energies=              -244.617174
 Sum of electronic and thermal Enthalpies=            -244.616230
 Sum of electronic and thermal Free Energies=         -244.648466

                     E (Thermal)             CV                S
                      KCal/Mol        Cal/Mol-Kelvin    Cal/Mol-Kelvin
 Total                   17.217             13.340             67.847
 Electronic               0.000              0.000              2.183
 Translational            0.889              2.981             38.821
 Rotational               0.889              2.981             23.299
 Vibrational             15.440              7.378              3.545
 Vibration     1          0.774              1.448              0.926
 Vibration     2          0.836              1.294              0.710
 Vibration     3          0.853              1.255              0.664
 Vibration     4          0.894              1.165              0.568

 Optimization completed.
    -- Stationary point found.
 Normal termination of Gaussian 09 at Fri Aug  5 09:49:08 2016.
