 Gaussian 09, Revision E.01,
 Gaussian 09:  EM64L-G09RevE.01 30-Nov-2015

 ---------------------------------------------
 #p b3lyp/6-311++G(3df,2p) freq symmetry=Loose
 ---------------------------------------------

 ---------
 b3lyp opt
 ---------
 Symbolic Z-matrix:
 Charge =  0 Multiplicity = 2

                         Standard orientation:
 ---------------------------------------------------------------------
 Center     Atomic      Atomic             Coordinates (Angstroms)
 Number     Number       Type             X           Y           Z
 ---------------------------------------------------------------------
      1          7           0       -2.127159   -0.000165    0.000172
      2          6           0       -1.011587    0.771985   -0.000036
      3          6           0       -1.011747   -0.771940   -0.000036
      4          6           0        1.516538    0.000131   -0.000176
      5          6           0        0.195889    0.000283   -0.000189
      6          6           0        2.792591   -0.000265    0.000236
 ---------------------------------------------------------------------

 SCF Done:  E(UB3LYP) =  -244.977268310     A.U. after   18 cycles

 The electronic state is 2-A.
 Alpha  occ. eigenvalues --  -14.44570 -10.36820 -10.36797 -10.32155 -10.22545
 Alpha  occ. eigenvalues --  -10.21369  -1.15935  -0.89244  -0.79463  -0.67623
 Alpha  occ. eigenvalues --   -0.65241  -0.54478  -0.53102  -0.47191  -0.38961
 Alpha  occ. eigenvalues --   -0.37328  -0.31682  -0.30541  -0.27866
 Alpha virt. eigenvalues --   -0.15504  -0.12930  -0.07500  -0.00210   0.00309
 Alpha virt. eigenvalues --    0.02715   0.02764   0.04372   0.05979   0.06617
 Alpha virt. eigenvalues --    0.06988   0.07112   0.08798   0.09596   0.09918

  Beta  occ. eigenvalues --  -14.43810 -10.36856 -10.36832 -10.31949 -10.21958
  Beta  occ. eigenvalues --  -10.21159  -1.15172  -0.88191  -0.77787  -0.66558
  Beta  occ. eigenvalues --   -0.65064  -0.52767  -0.52513  -0.46359  -0.37141
  Beta  occ. eigenvalues --   -0.35325  -0.31171  -0.29419
  Beta virt. eigenvalues --   -0.18674  -0.15422  -0.12610  -0.04097   0.00051
  Beta virt. eigenvalues --    0.00371   0.02827   0.02919   0.04427   0.06061
  Beta virt. eigenvalues --    0.06650   0.07081   0.07795   0.08799   0.10031

 Mulliken charges and spin densities:
               1          2
     1  N   -0.526286   0.339938
     2  C    0.082170  -0.044579
     3  C    0.081548  -0.045268
     4  C    0.474612   0.258546
     5  C    0.266667   0.177764
     6  C   -0.378711   0.313599
 Sum of Mulliken charges =  -0.00000   1.00000

 Dipole moment (field-independent basis, Debye):
    X=             -3.5482    Y=              0.0002    Z=             -0.0009  Tot=              3.5482
 Quadrupole moment (field-independent basis, Debye-Ang):
   XX=            -50.4699   YY=            -33.7407   ZZ=            -32.2861
   XY=              0.0021   XZ=             -0.0018   YZ=              0.0000

  Exact polarizability: 120.240  -0.005  49.329  -0.002   0.000  37.638
 Approx polarizability: 251.930  -0.035 103.236   0.002   0.000  56.081

 ******    1 imaginary frequencies (negative Signs) ******

                      1                      2                      3
                      A                      A                      A
 Frequencies --   -589.0430               145.7884               159.9155
 Red. masses --     12.2691                12.3653                12.1358
 Frc consts  --      2.5082                 0.1548                 0.1829
 IR Inten    --      6.4952                15.5377                 7.2958

                      4                      5                      6
                      A                      A                      A
 Frequencies --    351.9787               475.0265               570.1509
 Red. masses --     12.2063                12.2520                12.3239
 Frc consts  --      0.8910                 1.6289                 2.3604
 IR Inten    --      2.1382                 0.2011                 7.7030

                      7                      8                      9
                      A                      A                      A
 Frequencies --    685.5551               687.6882               986.6181
 Red. masses --     12.4377                12.2680                12.1409
 Frc consts  --      3.4441                 3.4183                 6.9630
 IR Inten    --      2.9763                52.8955                 3.0838

                     10                     11                     12
                      A                      A                      A
 Frequencies --   1418.6860              1491.8726              2015.9144
 Red. masses --     12.7527                12.1178                12.0046
 Frc consts  --     15.1225                15.8906                28.7437
 IR Inten    --      7.3133                16.2411               424.7219

 - Thermochemistry -
 -------------------
 Temperature   298.150 Kelvin.  Pressure   1.00000 Atm.
 Atom     1 has atomic number  7 and mass  14.00307

 Molecular mass:    74.00307 amu.
 Principal axes and moments of inertia in atomic units:
                           1         2         3
     Eigenvalues --    51.07418 748.37492 799.44909
           X            1.00000  -0.00000   0.00000
           Y            0.00000   1.00000   0.00000
           Z           -0.00000  -0.00000   1.00000
 This molecule is an asymmetric top.
 Rotational symmetry number  1.
 Rotational temperatures (Kelvin)      1.69584     0.11574     0.10834
 Rotational constants (GHZ):          35.33568     2.41155     2.25748
    1 imaginary frequencies ignored.
 Zero-point vibrational energy      53767.3 (Joules/Mol)
                                   12.85070 (Kcal/Mol)
 Warning -- explicit consideration of   5 degrees of freedom as
           vibrations may cause significant error
 Vibrational temperatures:    209.76   230.08   506.42   683.46   820.32
          (Kelvin)            986.36   989.43  1419.52  2041.17  2146.47
                             2900.45

 Zero-point correction=                           0.020479 (Hartree/Particle)
 Thermal correction to Energy=                    0.025656
 Thermal correction to Enthalpy=                  0.026600
 Thermal correction to Gibbs Free Energy=        -0.008352
 Sum of electronic and zero-point Energies=           -244.956789
 Sum of electronic and thermal Energies=              -244.951613
 Sum of electronic and thermal Enthalpies=            -244.950669
 Sum of electronic and thermal Free Energies=         -244.985620

                     E (Thermal)             CV                S
                      KCal/Mol        Cal/Mol-Kelvin    Cal/Mol-Kelvin
 Total                   16.099             16.023             73.561
 Electronic               0.000              0.000              1.377
 Translational            0.889              2.981             38.821
 Rotational               0.889              2.981             24.928
 Vibrational             14.322             10.061              8.436
 Vibration     1          0.617              1.907              2.726
 Vibration     2          0.622              1.891              2.551
 Vibration     3          0.729              1.571              1.157
 Vibration     4          0.832              1.305              0.724
 Vibration     5          0.926              1.096              0.504

 Optimization completed.
    -- Stationary point found.
 Normal termination of Gaussian 09 at Fri Aug 12 02:37:27 2016.
