 Gaussian 09, Revision E.01,
 Gaussian 09:  EM64L-G09RevE.01 30-Nov-2015

 ---------------------------------------------
 #p b3lyp/6-311++G(3df,2p) freq symmetry=Loose
 ---------------------------------------------

 ---------
 b3lyp opt
 ---------
 Symbolic Z-matrix:
 Charge =  1 Multiplicity = 3

                         Standard orientation:
 ---------------------------------------------------------------------
 Center     Atomic      Atomic             Coordinates (Angstroms)
 Number     Number       Type             X           Y           Z
 ---------------------------------------------------------------------
      1          7           0       -0.118691   -0.386570    0.000000
      2          6           0       -0.874096   -2.839199    0.000000
      3          6           0        1.237801    1.820519   -0.000000
      4          6           0       -0.000000    2.201331   -0.000000
      5          6           0       -0.476072   -1.544384    0.000000
      6          6           0        0.250841    0.812732   -0.000000
 ---------------------------------------------------------------------

 SCF Done:  E(UB3LYP) =  -244.595683792     A.U. after   23 cycles

 The electronic state is 3-A".
 Alpha  occ. eigenvalues --  -14.69610 -10.60804 -10.55687 -10.52715 -10.50305
 Alpha  occ. eigenvalues --  -10.50185  -1.30919  -1.21692  -1.09117  -1.00487
 Alpha  occ. eigenvalues --   -0.79303  -0.76112  -0.73693  -0.68824  -0.64762
 Alpha  occ. eigenvalues --   -0.57068  -0.54897  -0.53989  -0.53359
 Alpha virt. eigenvalues --   -0.40932  -0.31784  -0.24865  -0.22520  -0.17673
 Alpha virt. eigenvalues --   -0.17304  -0.11723  -0.11324  -0.11313  -0.11114
 Alpha virt. eigenvalues --   -0.07397  -0.06529  -0.06233  -0.05286  -0.04370

  Beta  occ. eigenvalues --  -14.69158 -10.60713 -10.54944 -10.51441 -10.49837
  Beta  occ. eigenvalues --  -10.49718  -1.29657  -1.21343  -1.06729  -0.96448
  Beta  occ. eigenvalues --   -0.77900  -0.73890  -0.72764  -0.66304  -0.62208
  Beta  occ. eigenvalues --   -0.54401  -0.52834
  Beta virt. eigenvalues --   -0.44843  -0.42849  -0.36822  -0.28283  -0.23181
  Beta virt. eigenvalues --   -0.18217  -0.17170  -0.13534  -0.11329  -0.11135
  Beta virt. eigenvalues --   -0.11125  -0.10046  -0.07200  -0.06096  -0.05815

 Mulliken charges and spin densities:
               1          2
     1  N   -0.909561   0.217242
     2  C   -0.333148   0.795209
     3  C    0.119679   0.238551
     4  C    0.118537   0.242084
     5  C    1.167799   0.570183
     6  C    0.836694  -0.063268
 Sum of Mulliken charges =   1.00000   2.00000

 Dipole moment (field-independent basis, Debye):
    X=              0.1220    Y=              0.4010    Z=             -0.0000  Tot=              0.4191
 Quadrupole moment (field-independent basis, Debye-Ang):
   XX=            -29.3671   YY=            -18.3378   ZZ=            -29.3385
   XY=              3.7602   XZ=             -0.0000   YZ=              0.0000

  Exact polarizability:  38.963  33.302 135.982   0.000  -0.000  32.770
 Approx polarizability: 118.879  65.928 312.480  -0.000  -0.000  46.635

 ******    1 imaginary frequencies (negative Signs) ******

                      1                      2                      3
                     A'                     A"                     A'
 Frequencies --   -173.6310                91.3708               103.0743
 Red. masses --     12.0242                12.7469                12.7693
 Frc consts  --      0.2136                 0.0627                 0.0799
 IR Inten    --     25.4134                 3.0127                 0.6082

                      4                      5                      6
                     A"                     A"                     A'
 Frequencies --    209.8499               467.3165               484.5142
 Red. masses --     12.4163                12.2770                12.6631
 Frc consts  --      0.3222                 1.5797                 1.7515
 IR Inten    --     23.0540                 7.3602                10.0803

                      7                      8                      9
                     A'                     A'                     A'
 Frequencies --    678.5953               791.5271              1176.4504
 Red. masses --     12.0331                12.0014                12.3662
 Frc consts  --      3.2648                 4.4301                10.0840
 IR Inten    --     17.2049                24.8404                61.7144

                     10                     11                     12
                     A'                     A'                     A'
 Frequencies --   1566.4549              1746.4667              2052.0072
 Red. masses --     12.1690                12.0335                12.8609
 Frc consts  --     17.5931                21.6254                31.9064
 IR Inten    --    120.8739               435.2881                 1.4332

 - Thermochemistry -
 -------------------
 Temperature   298.150 Kelvin.  Pressure   1.00000 Atm.
 Atom     1 has atomic number  7 and mass  14.00307

 Molecular mass:    74.00307 amu.
 Principal axes and moments of inertia in atomic units:
                           1         2         3
     Eigenvalues --    35.93569 908.68654 944.62223
           X            0.29427   0.95572   0.00000
           Y            0.95572  -0.29427   0.00000
           Z           -0.00000   0.00000   1.00000
 This molecule is an asymmetric top.
 Rotational symmetry number  1.
 Rotational temperatures (Kelvin)      2.41024     0.09532     0.09169
 Rotational constants (GHZ):          50.22141     1.98610     1.91054
    1 imaginary frequencies ignored.
 Zero-point vibrational energy      56030.9 (Joules/Mol)
                                   13.39170 (Kcal/Mol)
 Warning -- explicit consideration of   5 degrees of freedom as
           vibrations may cause significant error
 Vibrational temperatures:    131.46   148.30   301.93   672.36   697.11
          (Kelvin)            976.35  1138.83  1692.65  2253.78  2512.77
                             2952.38

 Zero-point correction=                           0.021341 (Hartree/Particle)
 Thermal correction to Energy=                    0.026911
 Thermal correction to Enthalpy=                  0.027855
 Thermal correction to Gibbs Free Energy=        -0.008759
 Sum of electronic and zero-point Energies=           -244.574343
 Sum of electronic and thermal Energies=              -244.568773
 Sum of electronic and thermal Enthalpies=            -244.567829
 Sum of electronic and thermal Free Energies=         -244.604443

                     E (Thermal)             CV                S
                      KCal/Mol        Cal/Mol-Kelvin    Cal/Mol-Kelvin
 Total                   16.887             16.153             77.061
 Electronic               0.000              0.000              2.183
 Translational            0.889              2.981             38.821
 Rotational               0.889              2.981             24.937
 Vibrational             15.110             10.191             11.120
 Vibration     1          0.602              1.955              3.631
 Vibration     2          0.605              1.947              3.395
 Vibration     3          0.642              1.826              2.045
 Vibration     4          0.825              1.323              0.745
 Vibration     5          0.841              1.284              0.698

 Optimization completed.
    -- Stationary point found.
 Normal termination of Gaussian 09 at Fri Aug  5 07:37:16 2016.
