 Gaussian 09, Revision E.01,
 Gaussian 09:  EM64L-G09RevE.01 30-Nov-2015

 ---------------------------------------------
 #p b3lyp/6-311++G(3df,2p) freq symmetry=Loose
 ---------------------------------------------

 ---------
 b3lyp opt
 ---------
 Symbolic Z-matrix:
 Charge =  1 Multiplicity = 3

                         Standard orientation:
 ---------------------------------------------------------------------
 Center     Atomic      Atomic             Coordinates (Angstroms)
 Number     Number       Type             X           Y           Z
 ---------------------------------------------------------------------
      1          7           0       -0.353218    0.059572    0.000000
      2          6           0       -1.188061   -1.001577    0.000000
      3          6           0        1.459111   -1.832496    0.000000
      4          6           0        0.297929   -1.146643    0.000000
      5          6           0       -0.000000    2.555449    0.000000
      6          6           0       -0.156892    1.355766    0.000000
 ---------------------------------------------------------------------

 SCF Done:  E(UB3LYP) =  -244.474082140     A.U. after   33 cycles

 The electronic state is 3-A".
 Alpha  occ. eigenvalues --  -14.76991 -10.58540 -10.56244 -10.56089 -10.52464
 Alpha  occ. eigenvalues --  -10.48474  -1.39869  -1.15247  -1.06413  -1.03462
 Alpha  occ. eigenvalues --   -0.87783  -0.79735  -0.73918  -0.63019  -0.61972
 Alpha  occ. eigenvalues --   -0.59174  -0.57810  -0.54839  -0.53750
 Alpha virt. eigenvalues --   -0.40827  -0.37290  -0.26683  -0.24865  -0.19219
 Alpha virt. eigenvalues --   -0.17215  -0.14527  -0.11981  -0.11507  -0.10468
 Alpha virt. eigenvalues --   -0.08596  -0.08338  -0.06407  -0.06057  -0.05251

  Beta  occ. eigenvalues --  -14.76669 -10.58330 -10.55839 -10.55307 -10.51612
  Beta  occ. eigenvalues --  -10.47728  -1.38979  -1.13523  -1.03128  -1.00488
  Beta  occ. eigenvalues --   -0.86584  -0.77765  -0.72584  -0.58450  -0.57923
  Beta  occ. eigenvalues --   -0.57516  -0.52224
  Beta virt. eigenvalues --   -0.48057  -0.45236  -0.39057  -0.35507  -0.23012
  Beta virt. eigenvalues --   -0.20926  -0.18564  -0.14850  -0.13806  -0.11177
  Beta virt. eigenvalues --   -0.11161  -0.09985  -0.08229  -0.07759  -0.05890

 Mulliken charges and spin densities:
               1          2
     1  N   -0.524760   0.098446
     2  C    0.006834   0.099543
     3  C    0.006422   0.554023
     4  C    0.818347   0.204985
     5  C   -0.438004   0.425871
     6  C    1.131161   0.617133
 Sum of Mulliken charges =   1.00000   2.00000

 Dipole moment (field-independent basis, Debye):
    X=              0.0467    Y=             -1.5889    Z=             -0.0000  Tot=              1.5896
 Quadrupole moment (field-independent basis, Debye-Ang):
   XX=            -28.7899   YY=            -27.7390   ZZ=            -29.7155
   XY=             -1.6591   XZ=             -0.0000   YZ=              0.0000

  Exact polarizability:  60.698 -13.288 117.524   0.000   0.000  36.331
 Approx polarizability: 136.202 -37.234 289.492  -0.000  -0.000  52.114

 ******    2 imaginary frequencies (negative Signs) ******

                      1                      2                      3
                     A"                     A'                     A'
 Frequencies --   -493.9452              -407.9811               190.8988
 Red. masses --     12.0451                12.1345                12.0281
 Frc consts  --      1.7315                 1.1900                 0.2583
 IR Inten    --     15.5182                 1.8698                 5.2972

                      4                      5                      6
                     A"                     A"                     A'
 Frequencies --    286.0388               431.0106               506.9122
 Red. masses --     12.0659                13.3492                12.4702
 Frc consts  --      0.5816                 1.4611                 1.8879
 IR Inten    --      8.8872                 0.9037                 1.8537

                      7                      8                      9
                     A'                     A'                     A'
 Frequencies --    559.4016               781.0297               821.7448
 Red. masses --     12.2456                12.1358                12.8129
 Frc consts  --      2.2578                 4.3617                 5.0977
 IR Inten    --     45.1154                 1.9003                 8.9331

                     10                     11                     12
                     A'                     A'                     A'
 Frequencies --   1244.6872              1565.9859              2277.5030
 Red. masses --     12.6437                12.4099                12.0120
 Frc consts  --     11.5410                17.9306                36.7099
 IR Inten    --    193.5534               159.6872               753.4525

 - Thermochemistry -
 -------------------
 Temperature   298.150 Kelvin.  Pressure   1.00000 Atm.
 Atom     1 has atomic number  7 and mass  14.00307

 Molecular mass:    74.00307 amu.
 Principal axes and moments of inertia in atomic units:
                           1         2         3
     Eigenvalues --   145.69432 619.14255 764.83687
           X           -0.19018   0.98175   0.00000
           Y            0.98175   0.19018   0.00000
           Z           -0.00000   0.00000   1.00000
 This molecule is an asymmetric top.
 Rotational symmetry number  1.
 Rotational temperatures (Kelvin)      0.59449     0.13989     0.11324
 Rotational constants (GHZ):          12.38718     2.91490     2.35964
    2 imaginary frequencies ignored.
 Zero-point vibrational energy      51829.5 (Joules/Mol)
                                   12.38754 (Kcal/Mol)
 Warning -- explicit consideration of   5 degrees of freedom as
           vibrations may cause significant error
 Vibrational temperatures:    274.66   411.55   620.13   729.33   804.85
          (Kelvin)           1123.73  1182.31  1790.82  2253.10  3276.81

 Zero-point correction=                           0.019741 (Hartree/Particle)
 Thermal correction to Energy=                    0.024444
 Thermal correction to Enthalpy=                  0.025388
 Thermal correction to Gibbs Free Energy=        -0.009266
 Sum of electronic and zero-point Energies=           -244.454341
 Sum of electronic and thermal Energies=              -244.449638
 Sum of electronic and thermal Enthalpies=            -244.448694
 Sum of electronic and thermal Free Energies=         -244.483348

                     E (Thermal)             CV                S
                      KCal/Mol        Cal/Mol-Kelvin    Cal/Mol-Kelvin
 Total                   15.339             14.809             72.936
 Electronic               0.000              0.000              2.183
 Translational            0.889              2.981             38.821
 Rotational               0.889              2.981             25.737
 Vibrational             13.561              8.848              6.195
 Vibration     1          0.634              1.852              2.219
 Vibration     2          0.684              1.700              1.497
 Vibration     3          0.792              1.403              0.855
 Vibration     4          0.862              1.235              0.641
 Vibration     5          0.915              1.119              0.525

 Normal termination of Gaussian 09 at Fri Aug  5 09:36:38 2016.
