 Gaussian 09, Revision E.01,
 Gaussian 09:  EM64L-G09RevE.01 30-Nov-2015

 ---------------------------------------------
 #p b3lyp/6-311++G(3df,2p) freq symmetry=Loose
 ---------------------------------------------

 ---------
 b3lyp opt
 ---------
 Symbolic Z-matrix:
 Charge =  1 Multiplicity = 3

                         Standard orientation:
 ---------------------------------------------------------------------
 Center     Atomic      Atomic             Coordinates (Angstroms)
 Number     Number       Type             X           Y           Z
 ---------------------------------------------------------------------
      1          7           0       -0.000000    0.404295    0.000000
      2          6           0       -0.004785    2.970691    0.000000
      3          6           0        0.650214   -2.103379   -0.000000
      4          6           0       -0.644653   -2.104824   -0.000000
      5          6           0       -0.002832    1.616103    0.000000
      6          6           0        0.002056   -0.850268   -0.000000
 ---------------------------------------------------------------------

 SCF Done:  E(UB3LYP) =  -244.595685000     A.U. after   23 cycles

 The electronic state is 3-A".
 Alpha  occ. eigenvalues --  -14.69611 -10.60806 -10.55692 -10.52718 -10.50299
 Alpha  occ. eigenvalues --  -10.50179  -1.30928  -1.21682  -1.09127  -1.00492
 Alpha  occ. eigenvalues --   -0.79301  -0.76117  -0.73697  -0.68820  -0.64757
 Alpha  occ. eigenvalues --   -0.57070  -0.54892  -0.53996  -0.53365
 Alpha virt. eigenvalues --   -0.40922  -0.31789  -0.24856  -0.22524  -0.17675
 Alpha virt. eigenvalues --   -0.17304  -0.11721  -0.11324  -0.11314  -0.11114
 Alpha virt. eigenvalues --   -0.07394  -0.06529  -0.06234  -0.05286  -0.04371

  Beta  occ. eigenvalues --  -14.69159 -10.60716 -10.54948 -10.51444 -10.49831
  Beta  occ. eigenvalues --  -10.49712  -1.29665  -1.21333  -1.06739  -0.96452
  Beta  occ. eigenvalues --   -0.77897  -0.73895  -0.72770  -0.66299  -0.62201
  Beta  occ. eigenvalues --   -0.54404  -0.52831
  Beta virt. eigenvalues --   -0.44846  -0.42857  -0.36817  -0.28286  -0.23172
  Beta virt. eigenvalues --   -0.18220  -0.17171  -0.13536  -0.11328  -0.11136
  Beta virt. eigenvalues --   -0.11124  -0.10045  -0.07197  -0.06096  -0.05815

 Mulliken charges and spin densities:
               1          2
     1  N   -0.909984   0.217091
     2  C   -0.333034   0.795119
     3  C    0.119706   0.238017
     4  C    0.118646   0.242512
     5  C    1.167623   0.570634
     6  C    0.837042  -0.063373
 Sum of Mulliken charges =   1.00000   2.00000

 Dipole moment (field-independent basis, Debye):
    X=              0.0001    Y=             -0.4165    Z=             -0.0000  Tot=              0.4165
 Quadrupole moment (field-independent basis, Debye-Ang):
   XX=            -30.5285   YY=            -17.1775   ZZ=            -29.3386
   XY=             -0.0242   XZ=             -0.0000   YZ=             -0.0000

  Exact polarizability:  28.678  -0.474 146.243  -0.000  -0.000  32.769
 Approx polarizability:  98.546  -0.441 332.547   0.000   0.000  46.637

 ******    1 imaginary frequencies (negative Signs) ******

                      1                      2                      3
                     A'                     A"                     A'
 Frequencies --   -179.1915                91.6835               103.6557
 Red. masses --     12.0249                12.7473                12.7700
 Frc consts  --      0.2275                 0.0631                 0.0808
 IR Inten    --     25.8333                 3.0043                 0.6149

                      4                      5                      6
                     A"                     A"                     A'
 Frequencies --    210.8266               467.2829               484.0840
 Red. masses --     12.4169                12.2760                12.6618
 Frc consts  --      0.3252                 1.5793                 1.7482
 IR Inten    --     22.9926                 7.3709                10.1037

                      7                      8                      9
                     A'                     A'                     A'
 Frequencies --    678.5949               789.4871              1176.2517
 Red. masses --     12.0330                12.0013                12.3666
 Frc consts  --      3.2647                 4.4073                10.0810
 IR Inten    --     17.3795                24.5713                61.2061

                     10                     11                     12
                     A'                     A'                     A'
 Frequencies --   1568.1395              1746.7550              2052.4287
 Red. masses --     12.1675                12.0332                12.8625
 Frc consts  --     17.6287                21.6320                31.9236
 IR Inten    --    122.0012               435.6658                 1.7149

 - Thermochemistry -
 -------------------
 Temperature   298.150 Kelvin.  Pressure   1.00000 Atm.
 Atom     1 has atomic number  7 and mass  14.00307

 Molecular mass:    74.00307 amu.
 Principal axes and moments of inertia in atomic units:
                           1         2         3
     Eigenvalues --    35.92533 908.69433 944.61966
           X           -0.00154   1.00000  -0.00000
           Y            1.00000   0.00154  -0.00000
           Z            0.00000   0.00000   1.00000
 This molecule is an asymmetric top.
 Rotational symmetry number  1.
 Rotational temperatures (Kelvin)      2.41094     0.09532     0.09169
 Rotational constants (GHZ):          50.23590     1.98608     1.91055
    1 imaginary frequencies ignored.
 Zero-point vibrational energy      56040.2 (Joules/Mol)
                                   13.39393 (Kcal/Mol)
 Warning -- explicit consideration of   5 degrees of freedom as
           vibrations may cause significant error
 Vibrational temperatures:    131.91   149.14   303.33   672.32   696.49
          (Kelvin)            976.35  1135.89  1692.36  2256.20  2513.19
                             2952.98

 Zero-point correction=                           0.021345 (Hartree/Particle)
 Thermal correction to Energy=                    0.026912
 Thermal correction to Enthalpy=                  0.027857
 Thermal correction to Gibbs Free Energy=        -0.008747
 Sum of electronic and zero-point Energies=           -244.574340
 Sum of electronic and thermal Energies=              -244.568773
 Sum of electronic and thermal Enthalpies=            -244.567828
 Sum of electronic and thermal Free Energies=         -244.604432

                     E (Thermal)             CV                S
                      KCal/Mol        Cal/Mol-Kelvin    Cal/Mol-Kelvin
 Total                   16.888             16.155             77.038
 Electronic               0.000              0.000              2.183
 Translational            0.889              2.981             38.821
 Rotational               0.889              2.981             24.937
 Vibrational             15.110             10.193             11.097
 Vibration     1          0.602              1.955              3.624
 Vibration     2          0.605              1.946              3.384
 Vibration     3          0.643              1.824              2.037
 Vibration     4          0.825              1.323              0.745
 Vibration     5          0.840              1.285              0.699

 Optimization completed.
    -- Stationary point found.
 Normal termination of Gaussian 09 at Fri Aug  5 09:11:06 2016.
