 Gaussian 09, Revision E.01,
 Gaussian 09:  EM64L-G09RevE.01 30-Nov-2015

 ---------------------------------------------
 #p b3lyp/6-311++G(3df,2p) freq symmetry=Loose
 ---------------------------------------------

 ---------
 b3lyp opt
 ---------
 Symbolic Z-matrix:
 Charge =  0 Multiplicity = 2

                         Standard orientation:
 ---------------------------------------------------------------------
 Center     Atomic      Atomic             Coordinates (Angstroms)
 Number     Number       Type             X           Y           Z
 ---------------------------------------------------------------------
      1          7           0       -2.127220   -0.000089    0.000505
      2          6           0       -1.011716    0.772210   -0.000367
      3          6           0       -1.011666   -0.772192   -0.000367
      4          6           0        1.516462    0.000102    0.000032
      5          6           0        0.196002    0.000104   -0.000056
      6          6           0        2.792674   -0.000121    0.000169
 ---------------------------------------------------------------------

 SCF Done:  E(UB3LYP) =  -244.977268265     A.U. after   18 cycles

 The electronic state is 2-A.
 Alpha  occ. eigenvalues --  -14.44569 -10.36822 -10.36799 -10.32152 -10.22551
 Alpha  occ. eigenvalues --  -10.21369  -1.15915  -0.89235  -0.79458  -0.67623
 Alpha  occ. eigenvalues --   -0.65241  -0.54466  -0.53098  -0.47184  -0.38960
 Alpha  occ. eigenvalues --   -0.37329  -0.31682  -0.30545  -0.27862
 Alpha virt. eigenvalues --   -0.15509  -0.12938  -0.07504  -0.00216   0.00310
 Alpha virt. eigenvalues --    0.02714   0.02765   0.04371   0.05980   0.06617
 Alpha virt. eigenvalues --    0.06987   0.07112   0.08798   0.09596   0.09918

  Beta  occ. eigenvalues --  -14.43809 -10.36858 -10.36835 -10.31946 -10.21964
  Beta  occ. eigenvalues --  -10.21159  -1.15151  -0.88182  -0.77782  -0.66557
  Beta  occ. eigenvalues --   -0.65064  -0.52763  -0.52500  -0.46352  -0.37142
  Beta  occ. eigenvalues --   -0.35325  -0.31170  -0.29422
  Beta virt. eigenvalues --   -0.18670  -0.15428  -0.12618  -0.04100   0.00045
  Beta virt. eigenvalues --    0.00372   0.02827   0.02921   0.04426   0.06062
  Beta virt. eigenvalues --    0.06650   0.07080   0.07795   0.08798   0.10031

 Mulliken charges and spin densities:
               1          2
     1  N   -0.526192   0.339949
     2  C    0.082018  -0.044880
     3  C    0.081707  -0.045009
     4  C    0.474695   0.258292
     5  C    0.266115   0.177852
     6  C   -0.378342   0.313797
 Sum of Mulliken charges =  -0.00000   1.00000

 Dipole moment (field-independent basis, Debye):
    X=             -3.5466    Y=              0.0002    Z=             -0.0014  Tot=              3.5466
 Quadrupole moment (field-independent basis, Debye-Ang):
   XX=            -50.4676   YY=            -33.7409   ZZ=            -32.2879
   XY=              0.0007   XZ=              0.0013   YZ=              0.0000

  Exact polarizability: 120.255  -0.002  49.340   0.005   0.000  37.638
 Approx polarizability: 252.043  -0.009 103.291   0.009   0.000  56.087

 ******    1 imaginary frequencies (negative Signs) ******

                      1                      2                      3
                      A                      A                      A
 Frequencies --   -590.8957               146.6989               160.8445
 Red. masses --     12.2692                12.3661                12.1359
 Frc consts  --      2.5240                 0.1568                 0.1850
 IR Inten    --      6.5162                15.4951                 7.2903

                      4                      5                      6
                      A                      A                      A
 Frequencies --    352.1513               475.0196               570.2664
 Red. masses --     12.2053                12.2522                12.3242
 Frc consts  --      0.8918                 1.6289                 2.3614
 IR Inten    --      2.1490                 0.2039                 7.6965

                      7                      8                      9
                      A                      A                      A
 Frequencies --    685.4858               687.3207               985.8378
 Red. masses --     12.4385                12.2671                12.1406
 Frc consts  --      3.4436                 3.4144                 6.9519
 IR Inten    --      2.8206                52.9326                 3.0546

                     10                     11                     12
                      A                      A                      A
 Frequencies --   1418.0030              1491.1825              2015.5747
 Red. masses --     12.7549                12.1160                12.0047
 Frc consts  --     15.1106                15.8734                28.7341
 IR Inten    --      7.3859                16.2057               424.8531

 - Thermochemistry -
 -------------------
 Temperature   298.150 Kelvin.  Pressure   1.00000 Atm.
 Atom     1 has atomic number  7 and mass  14.00307

 Molecular mass:    74.00307 amu.
 Principal axes and moments of inertia in atomic units:
                           1         2         3
     Eigenvalues --    51.10579 748.40431 799.51005
           X            1.00000  -0.00000   0.00000
           Y            0.00000   1.00000   0.00000
           Z           -0.00000  -0.00000   1.00000
 This molecule is an asymmetric top.
 Rotational symmetry number  1.
 Rotational temperatures (Kelvin)      1.69479     0.11573     0.10833
 Rotational constants (GHZ):          35.31383     2.41145     2.25731
    1 imaginary frequencies ignored.
 Zero-point vibrational energy      53762.5 (Joules/Mol)
                                   12.84954 (Kcal/Mol)
 Warning -- explicit consideration of   5 degrees of freedom as
           vibrations may cause significant error
 Vibrational temperatures:    211.07   231.42   506.67   683.45   820.49
          (Kelvin)            986.26   988.90  1418.40  2040.19  2145.48
                             2899.96

 Zero-point correction=                           0.020477 (Hartree/Particle)
 Thermal correction to Energy=                    0.025651
 Thermal correction to Enthalpy=                  0.026595
 Thermal correction to Gibbs Free Energy=        -0.008346
 Sum of electronic and zero-point Energies=           -244.956791
 Sum of electronic and thermal Energies=              -244.951618
 Sum of electronic and thermal Enthalpies=            -244.950674
 Sum of electronic and thermal Free Energies=         -244.985614

                     E (Thermal)             CV                S
                      KCal/Mol        Cal/Mol-Kelvin    Cal/Mol-Kelvin
 Total                   16.096             16.022             73.539
 Electronic               0.000              0.000              1.377
 Translational            0.889              2.981             38.821
 Rotational               0.889              2.981             24.928
 Vibrational             14.319             10.060              8.413
 Vibration     1          0.617              1.906              2.715
 Vibration     2          0.622              1.890              2.540
 Vibration     3          0.729              1.571              1.157
 Vibration     4          0.832              1.305              0.724
 Vibration     5          0.926              1.096              0.504

 Optimization completed.
    -- Stationary point found.
 Normal termination of Gaussian 09 at Fri Aug 12 00:25:34 2016.
