 Gaussian 09, Revision E.01,
 Gaussian 09:  EM64L-G09RevE.01 30-Nov-2015

 ---------------------------------------------
 #p b3lyp/6-311++G(3df,2p) freq symmetry=Loose
 ---------------------------------------------

 ---------
 b3lyp opt
 ---------
 Symbolic Z-matrix:
 Charge =  0 Multiplicity = 4

                         Standard orientation:
 ---------------------------------------------------------------------
 Center     Atomic      Atomic             Coordinates (Angstroms)
 Number     Number       Type             X           Y           Z
 ---------------------------------------------------------------------
      1          7           0        0.420434   -0.000554    0.000069
      2          6           0        2.963664    0.000424   -0.000061
      3          6           0       -2.088123    0.682993   -0.000032
      4          6           0       -2.088484   -0.682767   -0.000032
      5          6           0        1.619754   -0.000304    0.000022
      6          6           0       -0.897317    0.000299    0.000023
 ---------------------------------------------------------------------

 SCF Done:  E(UB3LYP) =  -244.931715887     A.U. after   15 cycles

 The electronic state is 4-A.
 Alpha  occ. eigenvalues --  -14.45552 -10.34445 -10.32119 -10.26853 -10.26022
 Alpha  occ. eigenvalues --  -10.25954  -1.07054  -0.98465  -0.84392  -0.76735
 Alpha  occ. eigenvalues --   -0.57922  -0.52946  -0.49266  -0.47974  -0.42403
 Alpha  occ. eigenvalues --   -0.35431  -0.33235  -0.33003  -0.30513  -0.26255
 Alpha virt. eigenvalues --   -0.08414  -0.05338  -0.01118  -0.00727   0.02748
 Alpha virt. eigenvalues --    0.03034   0.03149   0.04265   0.04966   0.06580
 Alpha virt. eigenvalues --    0.06957   0.07100   0.08115   0.09819   0.10594

  Beta  occ. eigenvalues --  -14.44445 -10.34042 -10.31800 -10.25188 -10.25090
  Beta  occ. eigenvalues --  -10.25019  -1.04782  -0.97266  -0.81538  -0.72597
  Beta  occ. eigenvalues --   -0.54481  -0.50153  -0.45525  -0.43738  -0.39949
  Beta  occ. eigenvalues --   -0.32092  -0.29502
  Beta virt. eigenvalues --   -0.21150  -0.19672  -0.13794  -0.05152  -0.03192
  Beta virt. eigenvalues --   -0.00744   0.02505   0.03200   0.03537   0.04448
  Beta virt. eigenvalues --    0.05315   0.06993   0.07255   0.07328   0.07719

 Mulliken charges and spin densities:
               1          2
     1  N   -0.955250   0.507020
     2  C   -0.715864   1.153572
     3  C   -0.103849   0.502173
     4  C   -0.106314   0.499403
     5  C    1.194959   0.280499
     6  C    0.686317   0.057333
 Sum of Mulliken charges =  -0.00000   3.00000

 Dipole moment (field-independent basis, Debye):
    X=             -0.6379    Y=              0.0036    Z=              0.0002  Tot=              0.6379
 Quadrupole moment (field-independent basis, Debye-Ang):
   XX=            -48.9331   YY=            -36.3398   ZZ=            -32.3111
   XY=             -0.0160   XZ=              0.0004   YZ=             -0.0000

  Exact polarizability: 126.971  -0.013  69.892  -0.000   0.000  40.145
 Approx polarizability: 205.474  -0.037 104.347  -0.001   0.000  57.425

 ******    1 imaginary frequencies (negative Signs) ******

                      1                      2                      3
                      A                      A                      A
 Frequencies --   -134.6497                39.6879               289.6085
 Red. masses --     13.1922                13.0981                12.0556
 Frc consts  --      0.1409                 0.0122                 0.5957
 IR Inten    --      2.5245                 4.8544                82.8536

                      4                      5                      6
                      A                      A                      A
 Frequencies --    315.6606               429.3286               454.6224
 Red. masses --     12.1953                12.2275                12.1794
 Frc consts  --      0.7160                 1.3279                 1.4831
 IR Inten    --     26.2576                41.7569                12.7651

                      7                      8                      9
                      A                      A                      A
 Frequencies --    637.9346               651.0884              1188.8176
 Red. masses --     12.0127                12.0690                12.3378
 Frc consts  --      2.8803                 3.0144                10.2735
 IR Inten    --    678.2280                 1.3893                 3.2438

                     10                     11                     12
                      A                      A                      A
 Frequencies --   1350.5419              1686.8543              2122.9586
 Red. masses --     12.1841                12.0093                12.8616
 Frc consts  --     13.0936                20.1337                34.1530
 IR Inten    --    220.6310               166.6786               462.9970

 - Thermochemistry -
 -------------------
 Temperature   298.150 Kelvin.  Pressure   1.00000 Atm.
 Atom     1 has atomic number  7 and mass  14.00307

 Molecular mass:    74.00307 amu.
 Principal axes and moments of inertia in atomic units:
                           1         2         3
     Eigenvalues --    39.96665 905.92382 945.89047
           X            1.00000   0.00000  -0.00000
           Y           -0.00000   1.00000   0.00000
           Z            0.00000  -0.00000   1.00000
 This molecule is an asymmetric top.
 Rotational symmetry number  1.
 Rotational temperatures (Kelvin)      2.16715     0.09561     0.09157
 Rotational constants (GHZ):          45.15618     1.99216     1.90798
    1 imaginary frequencies ignored.
 Zero-point vibrational energy      54831.5 (Joules/Mol)
                                   13.10503 (Kcal/Mol)
 Warning -- explicit consideration of   5 degrees of freedom as
           vibrations may cause significant error
 Vibrational temperatures:     57.10   416.68   454.16   617.71   654.10
          (Kelvin)            917.84   936.77  1710.44  1943.13  2427.00
                             3054.46

 Zero-point correction=                           0.020884 (Hartree/Particle)
 Thermal correction to Energy=                    0.026253
 Thermal correction to Enthalpy=                  0.027197
 Thermal correction to Gibbs Free Energy=        -0.009470
 Sum of electronic and zero-point Energies=           -244.910832
 Sum of electronic and thermal Energies=              -244.905463
 Sum of electronic and thermal Enthalpies=            -244.904519
 Sum of electronic and thermal Free Energies=         -244.941186

                     E (Thermal)             CV                S
                      KCal/Mol        Cal/Mol-Kelvin    Cal/Mol-Kelvin
 Total                   16.474             16.298             77.173
 Electronic               0.000              0.000              2.755
 Translational            0.889              2.981             38.821
 Rotational               0.889              2.981             25.041
 Vibrational             14.696             10.336             10.556
 Vibration     1          0.594              1.981              5.275
 Vibration     2          0.686              1.693              1.476
 Vibration     3          0.703              1.644              1.332
 Vibration     4          0.791              1.406              0.861
 Vibration     5          0.813              1.351              0.782

 Optimization completed.
    -- Stationary point found.
 Normal termination of Gaussian 09 at Fri Aug 12 08:28:12 2016.
