 Gaussian 09, Revision E.01,
 Gaussian 09:  EM64L-G09RevE.01 30-Nov-2015

 ---------------------------------------------
 #p b3lyp/6-311++G(3df,2p) freq symmetry=Loose
 ---------------------------------------------

 ---------
 b3lyp opt
 ---------
 Symbolic Z-matrix:
 Charge =  1 Multiplicity = 1

                         Standard orientation:
 ---------------------------------------------------------------------
 Center     Atomic      Atomic             Coordinates (Angstroms)
 Number     Number       Type             X           Y           Z
 ---------------------------------------------------------------------
      1          7           0        0.001713    0.405466    0.000000
      2          6           0       -0.001525    2.966174    0.000000
      3          6           0        0.665300   -2.101776   -0.000000
      4          6           0       -0.667197   -2.100999   -0.000000
      5          6           0       -0.000000    1.612626    0.000000
      6          6           0        0.001423   -0.849069   -0.000000
 ---------------------------------------------------------------------

 SCF Done:  E(RB3LYP) =  -244.580129797     A.U. after   16 cycles

 The electronic state is 1-A'.
 Alpha  occ. eigenvalues --  -14.71105 -10.59320 -10.54792 -10.54245 -10.50120
 Alpha  occ. eigenvalues --  -10.50030  -1.30837  -1.20798  -1.08167  -0.99496
 Alpha  occ. eigenvalues --   -0.78698  -0.75348  -0.71983  -0.67919  -0.62853
 Alpha  occ. eigenvalues --   -0.57015  -0.53096  -0.52066
 Alpha virt. eigenvalues --   -0.46135  -0.39832  -0.30009  -0.24451  -0.20987
 Alpha virt. eigenvalues --   -0.17678  -0.15763  -0.11406  -0.11405  -0.11130
 Alpha virt. eigenvalues --   -0.10600  -0.07072  -0.06439  -0.06035  -0.05177

 Mulliken charges:
               1
     1  N   -0.904058
     2  C   -0.280106
     3  C    0.103960
     4  C    0.101793
     5  C    1.146138
     6  C    0.832273
 Sum of Mulliken charges =   1.00000

 Dipole moment (field-independent basis, Debye):
    X=              0.0068    Y=              0.4345    Z=              0.0000  Tot=              0.4346
 Quadrupole moment (field-independent basis, Debye-Ang):
   XX=            -32.4640   YY=            -16.9922   ZZ=            -27.9653
   XY=             -0.0077   XZ=             -0.0000   YZ=             -0.0000

  Exact polarizability:  42.866  -0.031 150.442  -0.000  -0.000  33.052
 Approx polarizability:  79.863  -0.295 506.742   0.000   0.000  51.063

 ******    1 imaginary frequencies (negative Signs) ******

                      1                      2                      3
                     A'                     A"                     A'
 Frequencies --    -37.7166               110.4606               252.6795
 Red. masses --     12.6105                12.4503                12.0651
 Frc consts  --      0.0106                 0.0895                 0.4539
 IR Inten    --     18.3620                10.1346                29.7324

                      4                      5                      6
                     A"                     A'                     A'
 Frequencies --    266.1393               396.3306               502.8799
 Red. masses --     12.3136                12.7123                12.0590
 Frc consts  --      0.5139                 1.1765                 1.7968
 IR Inten    --     11.4836                27.9287                19.3718

                      7                      8                      9
                     A"                     A'                     A'
 Frequencies --    563.3117               673.7550              1164.7699
 Red. masses --     12.6722                12.0397                12.3269
 Frc consts  --      2.3692                 3.2201                 9.8534
 IR Inten    --     14.9420                 8.9279               144.8248

                     10                     11                     12
                     A'                     A'                     A'
 Frequencies --   1441.7637              1681.8837              2074.4380
 Red. masses --     12.0531                12.1971                12.8424
 Frc consts  --     14.7617                20.3282                32.5610
 IR Inten    --      1.2734               258.8170               260.1392

 - Thermochemistry -
 -------------------
 Temperature   298.150 Kelvin.  Pressure   1.00000 Atm.
 Atom     1 has atomic number  7 and mass  14.00307

 Molecular mass:    74.00307 amu.
 Principal axes and moments of inertia in atomic units:
                           1         2         3
     Eigenvalues --    38.04400 906.04395 944.08795
           X           -0.00007   1.00000  -0.00000
           Y            1.00000   0.00007  -0.00000
           Z            0.00000   0.00000   1.00000
 This molecule is an asymmetric top.
 Rotational symmetry number  1.
 Rotational temperatures (Kelvin)      2.27667     0.09560     0.09174
 Rotational constants (GHZ):          47.43826     1.99189     1.91162
    1 imaginary frequencies ignored.
 Zero-point vibrational energy      54600.0 (Joules/Mol)
                                   13.04972 (Kcal/Mol)
 Warning -- explicit consideration of   6 degrees of freedom as
           vibrations may cause significant error
 Vibrational temperatures:    158.93   363.55   382.91   570.23   723.53
          (Kelvin)            810.48   969.38  1675.84  2074.37  2419.85
                             2984.65

 Zero-point correction=                           0.020796 (Hartree/Particle)
 Thermal correction to Energy=                    0.026159
 Thermal correction to Enthalpy=                  0.027103
 Thermal correction to Gibbs Free Energy=        -0.007562
 Sum of electronic and zero-point Energies=           -244.559334
 Sum of electronic and thermal Energies=              -244.553971
 Sum of electronic and thermal Enthalpies=            -244.553027
 Sum of electronic and thermal Free Energies=         -244.587691

                     E (Thermal)             CV                S
                      KCal/Mol        Cal/Mol-Kelvin    Cal/Mol-Kelvin
 Total                   16.415             16.477             72.957
 Electronic               0.000              0.000              0.000
 Translational            0.889              2.981             38.821
 Rotational               0.889              2.981             24.990
 Vibrational             14.637             10.516              9.146
 Vibration     1          0.606              1.941              3.261
 Vibration     2          0.664              1.758              1.712
 Vibration     3          0.672              1.735              1.621
 Vibration     4          0.763              1.478              0.976
 Vibration     5          0.858              1.244              0.651
 Vibration     6          0.919              1.111              0.517

 Normal termination of Gaussian 09 at Fri Aug  5 09:26:45 2016.
