 Gaussian 09, Revision E.01,
 Gaussian 09:  EM64L-G09RevE.01 30-Nov-2015

 ---------------------------------------------
 #p b3lyp/6-311++G(3df,2p) freq symmetry=Loose
 ---------------------------------------------

 ---------
 b3lyp opt
 ---------
 Symbolic Z-matrix:
 Charge =  1 Multiplicity = 1

                         Standard orientation:
 ---------------------------------------------------------------------
 Center     Atomic      Atomic             Coordinates (Angstroms)
 Number     Number       Type             X           Y           Z
 ---------------------------------------------------------------------
      1          7           0        0.000933    0.405670    0.000000
      2          6           0       -0.001293    2.965702    0.000000
      3          6           0        0.665901   -2.101579   -0.000000
      4          6           0       -0.666753   -2.101040   -0.000000
      5          6           0       -0.000000    1.612783    0.000000
      6          6           0        0.001057   -0.849149   -0.000000
 ---------------------------------------------------------------------

 SCF Done:  E(RB3LYP) =  -244.580130026     A.U. after   16 cycles

 The electronic state is 1-A'.
 Alpha  occ. eigenvalues --  -14.71111 -10.59324 -10.54783 -10.54229 -10.50128
 Alpha  occ. eigenvalues --  -10.50038  -1.30834  -1.20804  -1.08168  -0.99509
 Alpha  occ. eigenvalues --   -0.78701  -0.75348  -0.71982  -0.67928  -0.62860
 Alpha  occ. eigenvalues --   -0.57004  -0.53101  -0.52071
 Alpha virt. eigenvalues --   -0.46139  -0.39839  -0.30003  -0.24459  -0.20972
 Alpha virt. eigenvalues --   -0.17677  -0.15756  -0.11411  -0.11407  -0.11132
 Alpha virt. eigenvalues --   -0.10597  -0.07075  -0.06440  -0.06036  -0.05176

 Mulliken charges:
               1
     1  N   -0.903968
     2  C   -0.281609
     3  C    0.103609
     4  C    0.102245
     5  C    1.147819
     6  C    0.831904
 Sum of Mulliken charges =   1.00000

 Dipole moment (field-independent basis, Debye):
    X=              0.0045    Y=              0.4289    Z=             -0.0000  Tot=              0.4289
 Quadrupole moment (field-independent basis, Debye-Ang):
   XX=            -32.4615   YY=            -17.0050   ZZ=            -27.9647
   XY=             -0.0060   XZ=             -0.0000   YZ=             -0.0000

  Exact polarizability:  42.866  -0.031 150.416  -0.000  -0.000  33.055
 Approx polarizability:  79.874  -0.232 506.713   0.000   0.000  51.065

 ******    1 imaginary frequencies (negative Signs) ******

                      1                      2                      3
                     A'                     A"                     A'
 Frequencies --    -39.2225               107.9565               252.4880
 Red. masses --     12.6118                12.4436                12.0607
 Frc consts  --      0.0114                 0.0854                 0.4530
 IR Inten    --     18.1833                10.3556                29.3544

                      4                      5                      6
                     A"                     A'                     A'
 Frequencies --    265.1453               396.4241               503.4094
 Red. masses --     12.3197                12.7169                12.0580
 Frc consts  --      0.5103                 1.1775                 1.8004
 IR Inten    --     11.3868                28.2868                19.5835

                      7                      8                      9
                     A"                     A'                     A'
 Frequencies --    563.6388               673.8513              1166.0039
 Red. masses --     12.6727                12.0401                12.3263
 Frc consts  --      2.3720                 3.2211                 9.8738
 IR Inten    --     14.9180                 8.7765               144.2766

                     10                     11                     12
                     A'                     A'                     A'
 Frequencies --   1441.0885              1681.6041              2075.1552
 Red. masses --     12.0538                12.2000                12.8386
 Frc consts  --     14.7488                20.3263                32.5738
 IR Inten    --      1.2826               257.8745               263.1348

 - Thermochemistry -
 -------------------
 Temperature   298.150 Kelvin.  Pressure   1.00000 Atm.
 Atom     1 has atomic number  7 and mass  14.00307

 Molecular mass:    74.00307 amu.
 Principal axes and moments of inertia in atomic units:
                           1         2         3
     Eigenvalues --    38.05271 905.93141 943.98412
           X           -0.00014   1.00000  -0.00000
           Y            1.00000   0.00014  -0.00000
           Z            0.00000   0.00000   1.00000
 This molecule is an asymmetric top.
 Rotational symmetry number  1.
 Rotational temperatures (Kelvin)      2.27615     0.09561     0.09175
 Rotational constants (GHZ):          47.42741     1.99214     1.91183
    1 imaginary frequencies ignored.
 Zero-point vibrational energy      54590.2 (Joules/Mol)
                                   13.04737 (Kcal/Mol)
 Warning -- explicit consideration of   6 degrees of freedom as
           vibrations may cause significant error
 Vibrational temperatures:    155.33   363.27   381.48   570.37   724.29
          (Kelvin)            810.95   969.52  1677.62  2073.40  2419.45
                             2985.68

 Zero-point correction=                           0.020792 (Hartree/Particle)
 Thermal correction to Energy=                    0.026160
 Thermal correction to Enthalpy=                  0.027104
 Thermal correction to Gibbs Free Energy=        -0.007583
 Sum of electronic and zero-point Energies=           -244.559338
 Sum of electronic and thermal Energies=              -244.553970
 Sum of electronic and thermal Enthalpies=            -244.553026
 Sum of electronic and thermal Free Energies=         -244.587714

                     E (Thermal)             CV                S
                      KCal/Mol        Cal/Mol-Kelvin    Cal/Mol-Kelvin
 Total                   16.416             16.478             73.007
 Electronic               0.000              0.000              0.000
 Translational            0.889              2.981             38.821
 Rotational               0.889              2.981             24.990
 Vibrational             14.638             10.517              9.196
 Vibration     1          0.606              1.943              3.305
 Vibration     2          0.664              1.759              1.713
 Vibration     3          0.671              1.737              1.628
 Vibration     4          0.763              1.478              0.976
 Vibration     5          0.859              1.242              0.650
 Vibration     6          0.919              1.110              0.517

 Normal termination of Gaussian 09 at Fri Aug  5 08:35:52 2016.
