 Gaussian 09, Revision E.01,
 Gaussian 09:  EM64L-G09RevE.01 30-Nov-2015

 ------------------------------------------------------
 #p b3lyp/6-311++G(3df,2p) freq IOp(2/17=3) IOp(2/18=3)
 ------------------------------------------------------

 ---------
 b3lyp opt
 ---------
 Symbolic Z-matrix:
 Charge = -1 Multiplicity = 4

                         Standard orientation:
 ---------------------------------------------------------------------
 Center     Atomic      Atomic             Coordinates (Angstroms)
 Number     Number       Type             X           Y           Z
 ---------------------------------------------------------------------
      1          6           0        0.000000    0.000000    0.510717
      2          6           0       -0.000000    0.000000   -0.760151
      3          6           0       -0.000000    0.000000   -2.067401
      4          8           0        0.000000   -0.000000    1.737626
 ---------------------------------------------------------------------

 SCF Done:  E(UB3LYP) =  -189.393224437     A.U. after   16 cycles

 The electronic state is 4-SG.
 Alpha  occ. eigenvalues --  -18.92970 -10.02881 -10.02136  -9.97908  -0.84052
 Alpha  occ. eigenvalues --   -0.57702  -0.46637  -0.27509  -0.21609  -0.21609
 Alpha  occ. eigenvalues --   -0.19961  -0.11140  -0.11140   0.03787   0.03787
 Alpha virt. eigenvalues --    0.15492   0.16050   0.19222   0.19222   0.19954
 Alpha virt. eigenvalues --    0.23011   0.23011   0.23939   0.28387   0.28387
 Alpha virt. eigenvalues --    0.33086   0.33599   0.33599   0.35691   0.38875

  Beta  occ. eigenvalues --  -18.91994 -10.01901  -9.98710  -9.97813  -0.82201
  Beta  occ. eigenvalues --   -0.54711  -0.41193  -0.25968  -0.18239  -0.18239
  Beta  occ. eigenvalues --   -0.06522  -0.06522
  Beta virt. eigenvalues --    0.01754   0.15180   0.15180   0.15964   0.17169
  Beta virt. eigenvalues --    0.20064   0.20064   0.20106   0.23971   0.23971
  Beta virt. eigenvalues --    0.24684   0.28509   0.28509   0.33294   0.36599

 Mulliken charges and spin densities:
               1          2
     1  C   -0.622976   0.506421
     2  C    0.708688  -0.208191
     3  C   -0.273915   2.405855
     4  O   -0.811797   0.295916
 Sum of Mulliken charges =  -1.00000   3.00000

 Dipole moment (field-independent basis, Debye):
    X=              0.0000    Y=              0.0000    Z=              0.6983  Tot=              0.6983
 Quadrupole moment (field-independent basis, Debye-Ang):
   XX=            -26.7584   YY=            -26.7584   ZZ=            -42.4031
   XY=              0.0000   XZ=             -0.0000   YZ=             -0.0000

  Exact polarizability:  43.864   0.000  43.864   0.000   0.000 103.294
 Approx polarizability:  47.035   0.000  47.035   0.000  -0.000 163.896

 ******    2 imaginary frequencies (negative Signs) ******

                      1                      2                      3
                     PI                     PI                     PI
 Frequencies --    -53.5906               -53.5905               283.6932
 Red. masses --     12.0024                12.0024                12.8027
 Frc consts  --      0.0203                 0.0203                 0.6071
 IR Inten    --     15.4446                15.4446                 0.0137

                      4                      5                      6
                     PI                     SG                     SG
 Frequencies --    283.6932               939.7592              1520.4378
 Red. masses --     12.8027                13.4988                12.4776
 Frc consts  --      0.6071                 7.0239                16.9949
 IR Inten    --      0.0137                37.9230               296.1336

                      7
                     SG
 Frequencies --   2119.5316
 Red. masses --     12.2902
 Frc consts  --     32.5305
 IR Inten    --    662.5702

 - Thermochemistry -
 -------------------
 Temperature   298.150 Kelvin.  Pressure   1.00000 Atm.
 Atom     1 has atomic number  6 and mass  12.00000

 Molecular mass:    51.99491 amu.
 Principal axes and moments of inertia in atomic units:
                           1         2         3
     Eigenvalues --     0.00000 391.55961 391.55961
           X            0.00000  -0.38256   0.92393
           Y           -0.00000   0.92393   0.38256
           Z            1.00000   0.00000  -0.00000
 This molecule is a prolate symmetric top.
 Rotational symmetry number  1.
 Rotational temperature (Kelvin)      0.22120
 Rotational constant (GHZ):           4.609110
    2 imaginary frequencies ignored.
 Zero-point vibrational energy      30786.6 (Joules/Mol)
                                    7.35817 (Kcal/Mol)
 Warning -- explicit consideration of   2 degrees of freedom as
           vibrations may cause significant error
 Vibrational temperatures:    408.17   408.17  1352.10  2187.57  3049.53
          (Kelvin)

 Zero-point correction=                           0.011726 (Hartree/Particle)
 Thermal correction to Energy=                    0.015020
 Thermal correction to Enthalpy=                  0.015964
 Thermal correction to Gibbs Free Energy=        -0.012537
 Sum of electronic and zero-point Energies=           -189.381498
 Sum of electronic and thermal Energies=              -189.378205
 Sum of electronic and thermal Enthalpies=            -189.377261
 Sum of electronic and thermal Free Energies=         -189.405761

                     E (Thermal)             CV                S
                      KCal/Mol        Cal/Mol-Kelvin    Cal/Mol-Kelvin
 Total                    9.425              8.901             59.984
 Electronic               0.000              0.000              2.755
 Translational            0.889              2.981             37.769
 Rotational               0.592              1.987             16.308
 Vibrational              7.944              3.933              3.153
 Vibration     1          0.682              1.704              1.511
 Vibration     2          0.682              1.704              1.511

 Optimization completed.
    -- Stationary point found.
 Normal termination of Gaussian 09 at Thu Mar  7 08:41:00 2019.
