 Gaussian 09, Revision E.01,
 Gaussian 09:  EM64L-G09RevE.01 30-Nov-2015

 ------------------------------------------------------
 #p b3lyp/6-311++G(3df,2p) freq IOp(2/17=3) IOp(2/18=3)
 ------------------------------------------------------

 ---------
 b3lyp opt
 ---------
 Symbolic Z-matrix:
 Charge = -1 Multiplicity = 4

                         Standard orientation:
 ---------------------------------------------------------------------
 Center     Atomic      Atomic             Coordinates (Angstroms)
 Number     Number       Type             X           Y           Z
 ---------------------------------------------------------------------
      1          6           0       -0.000000    0.000000    1.945522
      2          6           0       -0.000000    0.000000    0.719142
      3          6           0        0.000000   -0.000000   -1.973697
      4          8           0        0.000000   -0.000000   -0.518225
 ---------------------------------------------------------------------

 SCF Done:  E(UB3LYP) =  -189.272625560     A.U. after   15 cycles

 Unable to determine electronic state:  partially filled degenerate orbitals.
 Alpha  occ. eigenvalues --  -19.04844 -10.09229 -10.03736 -10.00282  -0.96417
 Alpha  occ. eigenvalues --   -0.62697  -0.54912  -0.32614  -0.30942  -0.21175
 Alpha  occ. eigenvalues --   -0.13608  -0.12302  -0.11054   0.00204   0.00899
 Alpha virt. eigenvalues --    0.14794   0.16736   0.18421   0.18531   0.18695
 Alpha virt. eigenvalues --    0.19072   0.19695   0.22652   0.24725   0.25256
 Alpha virt. eigenvalues --    0.27420   0.27605   0.28897   0.30579   0.35160

  Beta  occ. eigenvalues --  -19.03966 -10.08808 -10.01210  -9.99415  -0.94358
  Beta  occ. eigenvalues --   -0.59235  -0.51699  -0.29174  -0.27696  -0.14123
  Beta  occ. eigenvalues --   -0.10441  -0.08720
  Beta virt. eigenvalues --   -0.00638   0.13599   0.13843   0.15060   0.17186
  Beta virt. eigenvalues --    0.18715   0.19819   0.20121   0.20753   0.21154
  Beta virt. eigenvalues --    0.22951   0.26447   0.26454   0.29328   0.30329

 Mulliken charges and spin densities:
               1          2
     1  C   -1.417405   0.691621
     2  C    1.310454   0.232161
     3  C   -0.497977   1.962755
     4  O   -0.395072   0.113463
 Sum of Mulliken charges =  -1.00000   3.00000

 Dipole moment (field-independent basis, Debye):
    X=             -0.0000    Y=             -0.0000    Z=              0.5966  Tot=              0.5966
 Quadrupole moment (field-independent basis, Debye-Ang):
   XX=            -26.6608   YY=            -28.6559   ZZ=            -57.4254
   XY=             -0.0000   XZ=              0.0000   YZ=             -0.0000

  Exact polarizability:  52.916  -0.000  50.218  -0.000  -0.000 101.975
 Approx polarizability:  57.903  -0.000  58.395  -0.000   0.000 128.858

 ******    4 imaginary frequencies (negative Signs) ******

                      1                      2                      3
                     ?A                     ?A                     ?A
 Frequencies --   -388.1079              -365.1764              -320.7070
 Red. masses --     14.2400                14.0194                12.2254
 Frc consts  --      1.2638                 1.1015                 0.7408
 IR Inten    --     30.3514                 2.9317               140.2420

                      4                      5                      6
                     ?A                     SG                     SG
 Frequencies --    -50.2047               581.8761              1275.6668
 Red. masses --     12.0624                12.1041                14.0312
 Frc consts  --      0.0179                 2.4146                13.4530
 IR Inten    --     11.7937               115.8701               397.1692

                      7
                     SG
 Frequencies --   2255.2064
 Red. masses --     12.2394
 Frc consts  --     36.6762
 IR Inten    --    566.5675

 - Thermochemistry -
 -------------------
 Temperature   298.150 Kelvin.  Pressure   1.00000 Atm.
 Atom     1 has atomic number  6 and mass  12.00000

 Molecular mass:    51.99491 amu.
 Principal axes and moments of inertia in atomic units:
                           1         2         3
     Eigenvalues --     0.00000 366.63406 366.63406
           X           -0.00000  -0.39391   0.91915
           Y            0.00000   0.91915   0.39391
           Z            1.00000  -0.00000   0.00000
 This molecule is a prolate symmetric top.
 Rotational symmetry number  1.
 Rotational temperature (Kelvin)      0.23624
 Rotational constant (GHZ):           4.922459
    4 imaginary frequencies ignored.
 Zero-point vibrational energy      24599.7 (Joules/Mol)
                                    5.87947 (Kcal/Mol)
 Warning -- explicit consideration of   1 degrees of freedom as
           vibrations may cause significant error
 Vibrational temperatures:    837.19  1835.40  3244.73
          (Kelvin)

 Zero-point correction=                           0.009370 (Hartree/Particle)
 Thermal correction to Energy=                    0.011913
 Thermal correction to Enthalpy=                  0.012857
 Thermal correction to Gibbs Free Energy=        -0.014327
 Sum of electronic and zero-point Energies=           -189.263256
 Sum of electronic and thermal Energies=              -189.260713
 Sum of electronic and thermal Enthalpies=            -189.259769
 Sum of electronic and thermal Free Energies=         -189.286952

                     E (Thermal)             CV                S
                      KCal/Mol        Cal/Mol-Kelvin    Cal/Mol-Kelvin
 Total                    7.475              6.203             57.213
 Electronic               0.000              0.000              2.755
 Translational            0.889              2.981             37.769
 Rotational               0.592              1.987             16.177
 Vibrational              5.994              1.235              0.513
 Vibration     1          0.939              1.071              0.482

 Normal termination of Gaussian 09 at Thu Mar  7 08:48:29 2019.
