 Gaussian 09, Revision E.01,
 Gaussian 09:  EM64L-G09RevE.01 30-Nov-2015

 ------------------------------------------------------
 #p b3lyp/6-311++G(3df,2p) freq IOp(2/17=3) IOp(2/18=3)
 ------------------------------------------------------

 ---------
 b3lyp opt
 ---------
 Symbolic Z-matrix:
 Charge = -1 Multiplicity = 2

                         Standard orientation:
 ---------------------------------------------------------------------
 Center     Atomic      Atomic             Coordinates (Angstroms)
 Number     Number       Type             X           Y           Z
 ---------------------------------------------------------------------
      1          6           0       -0.000000   -0.000000   -1.948912
      2          6           0       -0.000000   -0.000000   -0.702900
      3          6           0        0.000000    0.000000    1.852275
      4          8           0        0.000000    0.000000    0.599653
 ---------------------------------------------------------------------

 SCF Done:  E(UB3LYP) =  -189.356745631     A.U. after   18 cycles

 Unable to determine electronic state:  an orbital has unidentified symmetry.
 Alpha  occ. eigenvalues --  -19.09015 -10.09364 -10.02472  -9.96227  -1.00201
 Alpha  occ. eigenvalues --   -0.64876  -0.50389  -0.34456  -0.33428  -0.21935
 Alpha  occ. eigenvalues --   -0.08668  -0.07920  -0.07555   0.01351
 Alpha virt. eigenvalues --    0.08838   0.15031   0.16610   0.17946   0.18833
 Alpha virt. eigenvalues --    0.19371   0.21143   0.21217   0.22640   0.25446
 Alpha virt. eigenvalues --    0.25838   0.29432   0.30925   0.31334   0.31941

  Beta  occ. eigenvalues --  -19.08584 -10.08182 -10.02577  -9.96070  -0.99215
  Beta  occ. eigenvalues --   -0.63997  -0.49996  -0.33158  -0.31576  -0.18667
  Beta  occ. eigenvalues --   -0.07611  -0.07474  -0.06758
  Beta virt. eigenvalues --    0.09846   0.12113   0.15170   0.16622   0.18973
  Beta virt. eigenvalues --    0.19345   0.19682   0.21185   0.21344   0.22708
  Beta virt. eigenvalues --    0.25804   0.26132   0.29692   0.31332   0.31840

 Mulliken charges and spin densities:
               1          2
     1  C   -1.415591   0.164549
     2  C    1.003830  -0.105647
     3  C   -0.308023   0.945307
     4  O   -0.280215  -0.004209
 Sum of Mulliken charges =  -1.00000   1.00000

 Dipole moment (field-independent basis, Debye):
    X=              0.0000    Y=             -0.0000    Z=              3.3220  Tot=              3.3220
 Quadrupole moment (field-independent basis, Debye-Ang):
   XX=            -28.8785   YY=            -26.0637   ZZ=            -54.6889
   XY=             -0.0000   XZ=              0.0000   YZ=             -0.0000

  Exact polarizability:  54.988   0.000  39.538   0.000   0.000 118.000
 Approx polarizability:  63.089   0.000  55.515   0.000   0.000 187.763

 ******    1 imaginary frequencies (negative Signs) ******

                      1                      2                      3
                     ?A                     ?A                     ?A
 Frequencies --   -423.1508               170.2366               261.4232
 Red. masses --     14.2006                13.0753                12.0405
 Frc consts  --      1.4981                 0.2233                 0.4848
 IR Inten    --     31.1550                25.5970                 6.6422

                      4                      5                      6
                     ?A                     SG                     SG
 Frequencies --    329.6989               827.1443              1527.2878
 Red. masses --     12.9884                12.3316                13.8299
 Frc consts  --      0.8318                 4.9709                19.0069
 IR Inten    --      2.9079                 3.6439               174.2077

                      7
                     SG
 Frequencies --   2004.0661
 Red. masses --     12.1670
 Frc consts  --     28.7910
 IR Inten    --     21.3247

 - Thermochemistry -
 -------------------
 Temperature   298.150 Kelvin.  Pressure   1.00000 Atm.
 Atom     1 has atomic number  6 and mass  12.00000

 Molecular mass:    51.99491 amu.
 Principal axes and moments of inertia in atomic units:
                           1         2         3
     Eigenvalues --     0.00000 351.50161 351.50161
           X            0.00000   0.70708   0.70713
           Y            0.00000   0.70713  -0.70708
           Z            1.00000  -0.00000   0.00000
 This molecule is a prolate symmetric top.
 Rotational symmetry number  1.
 Rotational temperature (Kelvin)      0.24641
 Rotational constant (GHZ):           5.134375
    1 imaginary frequencies ignored.
 Zero-point vibrational energy      30623.5 (Joules/Mol)
                                    7.31920 (Kcal/Mol)
 Warning -- explicit consideration of   3 degrees of freedom as
           vibrations may cause significant error
 Vibrational temperatures:    244.93   376.13   474.36  1190.07  2197.42
          (Kelvin)           2883.40

 Zero-point correction=                           0.011664 (Hartree/Particle)
 Thermal correction to Energy=                    0.015564
 Thermal correction to Enthalpy=                  0.016508
 Thermal correction to Gibbs Free Energy=        -0.012372
 Sum of electronic and zero-point Energies=           -189.345082
 Sum of electronic and thermal Energies=              -189.341182
 Sum of electronic and thermal Enthalpies=            -189.340237
 Sum of electronic and thermal Free Energies=         -189.369118

                     E (Thermal)             CV                S
                      KCal/Mol        Cal/Mol-Kelvin    Cal/Mol-Kelvin
 Total                    9.767             10.894             60.784
 Electronic               0.000              0.000              1.377
 Translational            0.889              2.981             37.769
 Rotational               0.592              1.987             16.093
 Vibrational              8.285              5.925              5.545
 Vibration     1          0.625              1.879              2.433
 Vibration     2          0.669              1.743              1.652
 Vibration     3          0.712              1.616              1.262

 Optimization completed.
    -- Stationary point found.
 Normal termination of Gaussian 09 at Thu Mar  7 08:29:23 2019.
