 Gaussian 09, Revision E.01,
 Gaussian 09:  EM64L-G09RevE.01 30-Nov-2015

 ------------------------------------------------------
 #p b3lyp/6-311++G(3df,2p) freq IOp(2/17=3) IOp(2/18=3)
 ------------------------------------------------------

 ---------
 b3lyp opt
 ---------
 Symbolic Z-matrix:
 Charge = -1 Multiplicity = 2

                         Standard orientation:
 ---------------------------------------------------------------------
 Center     Atomic      Atomic             Coordinates (Angstroms)
 Number     Number       Type             X           Y           Z
 ---------------------------------------------------------------------
      1          6           0        1.839709    0.208740   -0.000320
      2          6           0       -0.608706   -0.687551    0.000047
      3          6           0        0.660962   -0.189086   -0.000058
      4          1           0       -1.219378    1.181820   -0.000329
      5          1           0        2.874560    0.437674    0.001622
      6          8           0       -1.625872    0.298485    0.000087
 ---------------------------------------------------------------------

 SCF Done:  E(UB3LYP) =  -190.675068902     A.U. after   19 cycles

 The electronic state is 2-A.
 Alpha  occ. eigenvalues --  -18.95830  -9.98850  -9.97655  -9.97474  -0.84275
 Alpha  occ. eigenvalues --   -0.56722  -0.46256  -0.35957  -0.31893  -0.20807
 Alpha  occ. eigenvalues --   -0.19456  -0.11246  -0.10100  -0.01190   0.03997
 Alpha virt. eigenvalues --    0.10868   0.13116   0.17048   0.18623   0.19396
 Alpha virt. eigenvalues --    0.19709   0.22293   0.22756   0.23269   0.24521
 Alpha virt. eigenvalues --    0.25623   0.26543   0.28350   0.30759   0.32080

  Beta  occ. eigenvalues --  -18.95517  -9.97998  -9.97769  -9.96914  -0.83553
  Beta  occ. eigenvalues --   -0.55869  -0.44309  -0.35430  -0.31406  -0.20432
  Beta  occ. eigenvalues --   -0.16875  -0.09773  -0.08815   0.00211
  Beta virt. eigenvalues --    0.10897   0.13181   0.13532   0.17032   0.19183
  Beta virt. eigenvalues --    0.19436   0.19749   0.22420   0.22948   0.24300
  Beta virt. eigenvalues --    0.24666   0.25799   0.27226   0.28495   0.30793

 Mulliken charges and spin densities:
               1          2
     1  C   -0.542342   0.458856
     2  C   -0.384728   0.693740
     3  C    0.087160  -0.169383
     4  H    0.104184  -0.020522
     5  H    0.260742  -0.021756
     6  O   -0.525016   0.059065
 Sum of Mulliken charges =  -1.00000   1.00000

 Dipole moment (field-independent basis, Debye):
    X=              1.0247    Y=              3.0681    Z=              0.0026  Tot=              3.2347
 Quadrupole moment (field-independent basis, Debye-Ang):
   XX=            -37.2963   YY=            -32.3791   ZZ=            -30.1170
   XY=             -3.1544   XZ=              0.0107   YZ=              0.0017

  Exact polarizability: 109.393  12.289  75.425  -0.013  -0.013  54.706
 Approx polarizability: 163.162  24.838  97.599  -0.034  -0.021  65.351

 ******    1 imaginary frequencies (negative Signs) ******

                      1                      2                      3
                      A                      A                      A
 Frequencies --   -452.2793               219.0733               375.0296
 Red. masses --      1.3194                 4.5197                 2.9033
 Frc consts  --      0.1590                 0.1278                 0.2406
 IR Inten    --    112.7517                18.0057                11.9532

                      4                      5                      6
                      A                      A                      A
 Frequencies --    438.4037               515.4579               644.1514
 Red. masses --      1.3193                 1.4708                 4.8200
 Frc consts  --      0.1494                 0.2302                 1.1784
 IR Inten    --    105.7288                43.4779                 5.6411

                      7                      8                      9
                      A                      A                      A
 Frequencies --    836.1454              1148.3547              1267.7363
 Red. masses --     10.3381                 6.6278                 1.2445
 Frc consts  --      4.2585                 5.1496                 1.1785
 IR Inten    --    155.0188                44.3237                17.9491

                     10                     11                     12
                      A                      A                      A
 Frequencies --   1907.2860              3455.8878              3575.8080
 Red. masses --      7.2531                 1.1261                 1.0658
 Frc consts  --     15.5454                 7.9238                 8.0296
 IR Inten    --    295.6652                39.1025               219.8169

 - Thermochemistry -
 -------------------
 Temperature   298.150 Kelvin.  Pressure   1.00000 Atm.
 Atom     1 has atomic number  6 and mass  12.00000

 Molecular mass:    54.01056 amu.
 Principal axes and moments of inertia in atomic units:
                           1         2         3
     Eigenvalues --    34.29033 365.54153 399.83183
           X            1.00000  -0.00146   0.00005
           Y            0.00146   1.00000   0.00004
           Z           -0.00005  -0.00004   1.00000
 This molecule is an asymmetric top.
 Rotational symmetry number  1.
 Rotational temperatures (Kelvin)      2.52590     0.23695     0.21663
 Rotational constants (GHZ):          52.63120     4.93717     4.51375
    1 imaginary frequencies ignored.
 Zero-point vibrational energy      86031.4 (Joules/Mol)
                                   20.56201 (Kcal/Mol)
 Warning -- explicit consideration of   4 degrees of freedom as
           vibrations may cause significant error
 Vibrational temperatures:    315.20   539.58   630.76   741.63   926.79
          (Kelvin)           1203.03  1652.22  1823.99  2744.16  4972.25
                             5144.78

 Zero-point correction=                           0.032768 (Hartree/Particle)
 Thermal correction to Energy=                    0.037193
 Thermal correction to Enthalpy=                  0.038137
 Thermal correction to Gibbs Free Energy=         0.006060
 Sum of electronic and zero-point Energies=           -190.642301
 Sum of electronic and thermal Energies=              -190.637876
 Sum of electronic and thermal Enthalpies=            -190.636932
 Sum of electronic and thermal Free Energies=         -190.669009

                     E (Thermal)             CV                S
                      KCal/Mol        Cal/Mol-Kelvin    Cal/Mol-Kelvin
 Total                   23.339             13.855             67.513
 Electronic               0.000              0.000              1.377
 Translational            0.889              2.981             37.882
 Rotational               0.889              2.981             23.132
 Vibrational             21.561              7.893              5.122
 Vibration     1          0.647              1.812              1.967
 Vibration     2          0.746              1.523              1.059
 Vibration     3          0.799              1.386              0.832
 Vibration     4          0.870              1.216              0.621

 Optimization completed.
    -- Stationary point found.
 Normal termination of Gaussian 09 at Thu Mar  7 10:30:16 2019.
