 Gaussian 09, Revision E.01,
 Gaussian 09:  EM64L-G09RevE.01 30-Nov-2015

 ------------------------------------------------------
 #p b3lyp/6-311++G(3df,2p) freq IOp(2/17=3) IOp(2/18=3)
 ------------------------------------------------------

 ---------
 b3lyp opt
 ---------
 Symbolic Z-matrix:
 Charge = -1 Multiplicity = 4

                         Standard orientation:
 ---------------------------------------------------------------------
 Center     Atomic      Atomic             Coordinates (Angstroms)
 Number     Number       Type             X           Y           Z
 ---------------------------------------------------------------------
      1          6           0        1.107265    0.250539   -0.000181
      2          6           0       -1.108578    0.244636   -0.000681
      3          8           0       -0.003125    1.158262    0.000128
      4          6           0       -0.651949   -1.142927    0.000179
      5          6           0        0.658069   -1.139466    0.000082
      6          1           0        2.071771    0.734091    0.000580
      7          1           0       -2.075610    0.723112    0.001999
 ---------------------------------------------------------------------

 SCF Done:  E(UB3LYP) =  -228.677192602     A.U. after   21 cycles

 The electronic state is 4-A.
 Alpha  occ. eigenvalues --  -18.96887 -10.05040 -10.05037  -9.95872  -9.95779
 Alpha  occ. eigenvalues --   -0.87439  -0.59277  -0.53386  -0.39632  -0.33977
 Alpha  occ. eigenvalues --   -0.29802  -0.25273  -0.24208  -0.18329  -0.10075
 Alpha  occ. eigenvalues --   -0.07841  -0.07120  -0.01091   0.07802
 Alpha virt. eigenvalues --    0.11680   0.12115   0.17806   0.18396   0.18722
 Alpha virt. eigenvalues --    0.19404   0.21808   0.22926   0.23197   0.23441
 Alpha virt. eigenvalues --    0.23707   0.24094   0.24913   0.26071   0.28079

  Beta  occ. eigenvalues --  -18.96307 -10.03511 -10.03509  -9.94909  -9.94812
  Beta  occ. eigenvalues --   -0.85880  -0.57063  -0.49739  -0.37024  -0.31686
  Beta  occ. eigenvalues --   -0.27800  -0.23025  -0.20293  -0.17135  -0.06145
  Beta  occ. eigenvalues --   -0.02760
  Beta virt. eigenvalues --    0.06962   0.10295   0.11681   0.12626   0.17687
  Beta virt. eigenvalues --    0.17927   0.18799   0.19079   0.21968   0.23049
  Beta virt. eigenvalues --    0.23154   0.23614   0.24559   0.24752   0.25246

 Mulliken charges and spin densities:
               1          2
     1  C   -0.195394   0.981847
     2  C   -0.195428   0.981784
     3  O   -0.609829   0.062293
     4  C   -0.140467   0.516607
     5  C   -0.140673   0.516387
     6  H    0.140891  -0.029456
     7  H    0.140901  -0.029462
 Sum of Mulliken charges =  -1.00000   3.00000

 Dipole moment (field-independent basis, Debye):
    X=             -0.0105    Y=              3.8958    Z=              0.0047  Tot=              3.8959
 Quadrupole moment (field-independent basis, Debye-Ang):
   XX=            -36.5579   YY=            -46.6332   ZZ=            -36.2060
   XY=              0.0276   XZ=             -0.0012   YZ=              0.0064

  Exact polarizability: 109.765  -0.143  77.393  -0.166  -1.283 103.616
 Approx polarizability: 166.010   0.176  98.780  -0.094  -0.028  89.432

 ******    3 imaginary frequencies (negative Signs) ******

                      1                      2                      3
                      A                      A                      A
 Frequencies --   -541.5195              -486.3405              -112.2203
 Red. masses --      1.2419                 1.2175                 4.6180
 Frc consts  --      0.2146                 0.1697                 0.0343
 IR Inten    --     60.4306                 0.0401                51.5093

                      4                      5                      6
                      A                      A                      A
 Frequencies --    291.2596               462.0036               679.9106
 Red. masses --     10.9294                10.7741                 8.8888
 Frc consts  --      0.5463                 1.3549                 2.4210
 IR Inten    --      0.0102               117.2165                72.5006

                      7                      8                      9
                      A                      A                      A
 Frequencies --    762.8756               878.7457               920.3452
 Red. masses --      9.6454                 8.0450                 4.0555
 Frc consts  --      3.3073                 3.6602                 2.0239
 IR Inten    --      5.1026               109.8479                53.1250

                     10                     11                     12
                      A                      A                      A
 Frequencies --   1040.8935              1220.6262              1316.2078
 Red. masses --      3.5247                 1.1642                 1.5703
 Frc consts  --      2.2500                 1.0220                 1.6028
 IR Inten    --     23.6110                 0.3770                65.9916

                     13                     14                     15
                      A                      A                      A
 Frequencies --   1632.9429              3204.3050              3209.6467
 Red. masses --     11.3244                 1.0859                 1.0927
 Frc consts  --     17.7913                 6.5690                 6.6320
 IR Inten    --      0.0152               115.8235                41.1657

 - Thermochemistry -
 -------------------
 Temperature   298.150 Kelvin.  Pressure   1.00000 Atm.
 Atom     1 has atomic number  6 and mass  12.00000

 Molecular mass:    66.01056 amu.
 Principal axes and moments of inertia in atomic units:
                           1         2         3
     Eigenvalues --   172.92771 197.20822 370.13585
           X           -0.00290   1.00000  -0.00006
           Y            1.00000   0.00290   0.00003
           Z           -0.00003   0.00006   1.00000
 This molecule is an asymmetric top.
 Rotational symmetry number  1.
 Rotational temperatures (Kelvin)      0.50087     0.43920     0.23401
 Rotational constants (GHZ):          10.43639     9.15145     4.87589
    3 imaginary frequencies ignored.
 Zero-point vibrational energy      93426.9 (Joules/Mol)
                                   22.32957 (Kcal/Mol)
 Warning -- explicit consideration of   2 degrees of freedom as
           vibrations may cause significant error
 Vibrational temperatures:    419.06   664.72   978.24  1097.61  1264.32
          (Kelvin)           1324.17  1497.61  1756.21  1893.73  2349.44
                             4610.27  4617.96

 Zero-point correction=                           0.035584 (Hartree/Particle)
 Thermal correction to Energy=                    0.039481
 Thermal correction to Enthalpy=                  0.040426
 Thermal correction to Gibbs Free Energy=         0.007873
 Sum of electronic and zero-point Energies=           -228.641608
 Sum of electronic and thermal Energies=              -228.637711
 Sum of electronic and thermal Enthalpies=            -228.636767
 Sum of electronic and thermal Free Energies=         -228.669319

                     E (Thermal)             CV                S
                      KCal/Mol        Cal/Mol-Kelvin    Cal/Mol-Kelvin
 Total                   24.775             12.284             68.512
 Electronic               0.000              0.000              2.755
 Translational            0.889              2.981             38.480
 Rotational               0.889              2.981             24.049
 Vibrational             22.998              6.322              3.228
 Vibration     1          0.687              1.690              1.467
 Vibration     2          0.820              1.334              0.760

 Normal termination of Gaussian 09 at Thu Mar  7 13:19:38 2019.
