 Gaussian 09, Revision E.01,
 Gaussian 09:  EM64L-G09RevE.01 30-Nov-2015

 ------------------------------------------------------
 #p b3lyp/6-311++G(3df,2p) freq IOp(2/17=3) IOp(2/18=3)
 ------------------------------------------------------

 ---------
 b3lyp opt
 ---------
 Symbolic Z-matrix:
 Charge = -1 Multiplicity = 4

                         Standard orientation:
 ---------------------------------------------------------------------
 Center     Atomic      Atomic             Coordinates (Angstroms)
 Number     Number       Type             X           Y           Z
 ---------------------------------------------------------------------
      1          6           0        1.380626    0.334186    0.021416
      2          6           0       -1.097459    0.142024   -0.016713
      3          6           0        0.044834    0.899345   -0.003026
      4          6           0       -2.147720   -0.480760    0.005157
      5          1           0       -3.094955   -0.971862    0.033772
      6          1           0       -0.034875    1.986214   -0.008745
      7          8           0        1.756018   -0.797890   -0.008255
 ---------------------------------------------------------------------

 SCF Done:  E(UB3LYP) =  -228.745860985     A.U. after   32 cycles

 The electronic state is 4-A.
 Alpha  occ. eigenvalues --  -19.05778 -10.15095 -10.12168 -10.09137 -10.08732
 Alpha  occ. eigenvalues --   -0.98067  -0.71280  -0.63613  -0.49003  -0.42755
 Alpha  occ. eigenvalues --   -0.39488  -0.37831  -0.33148  -0.30169  -0.24747
 Alpha  occ. eigenvalues --   -0.19331  -0.13825  -0.09538   0.05286
 Alpha virt. eigenvalues --    0.07900   0.08267   0.11881   0.12752   0.14243
 Alpha virt. eigenvalues --    0.14623   0.16425   0.16926   0.17563   0.19064
 Alpha virt. eigenvalues --    0.19541   0.20288   0.21275   0.21535   0.21633

  Beta  occ. eigenvalues --  -19.04491 -10.14087 -10.11014 -10.08933 -10.08295
  Beta  occ. eigenvalues --   -0.95671  -0.69357  -0.60893  -0.46714  -0.41574
  Beta  occ. eigenvalues --   -0.38282  -0.35283  -0.30014  -0.25421  -0.21432
  Beta  occ. eigenvalues --   -0.18446
  Beta virt. eigenvalues --   -0.03415   0.03960   0.09050   0.10012   0.11217
  Beta virt. eigenvalues --    0.12857   0.13166   0.15014   0.15493   0.17030
  Beta virt. eigenvalues --    0.17518   0.18548   0.19795   0.20252   0.20903

 Mulliken charges and spin densities:
               1          2
     1  C    1.002726  -0.051933
     2  C   10.269316 -10.499002
     3  C    2.051147  -1.715552
     4  C   -8.902633   9.526008
     5  H   -3.462492   3.787605
     6  H   -1.434136   1.578141
     7  O   -0.523928   0.374733
 Sum of Mulliken charges =  -1.00000   3.00000

 Dipole moment (field-independent basis, Debye):
    X=              8.4949    Y=             -0.8354    Z=             -0.4880  Tot=              8.5498
 Quadrupole moment (field-independent basis, Debye-Ang):
   XX=            -92.9034   YY=            -63.9433   ZZ=            -47.3108
   XY=             -6.8220   XZ=              1.3396   YZ=              0.3099

  Exact polarizability:1150.316 906.9861390.851  60.469 -89.783 363.756
 Approx polarizability:1444.8991216.6751566.520  -6.468 -36.252 224.928

 ******    1 imaginary frequencies (negative Signs) ******

                      1                      2                      3
                      A                      A                      A
 Frequencies --   -144.8391                63.2706               323.9436
 Red. masses --      4.7878                 4.8732                 9.3282
 Frc consts  --      0.0592                 0.0115                 0.5768
 IR Inten    --    300.8637               539.7002                93.6454

                      4                      5                      6
                      A                      A                      A
 Frequencies --    397.1508               661.2184               691.2919
 Red. masses --      2.4598                 1.2613                 7.8127
 Frc consts  --      0.2286                 0.3249                 2.1998
 IR Inten    --    362.4769              1262.1354               303.6724

                      7                      8                      9
                      A                      A                      A
 Frequencies --    740.9014               765.0763               911.0582
 Red. masses --      1.8261                 1.4053                 7.1075
 Frc consts  --      0.5906                 0.4847                 3.4758
 IR Inten    --    490.7626              1685.3584                86.6515

                     10                     11                     12
                      A                      A                      A
 Frequencies --   1116.3731              1337.3054              1761.2237
 Red. masses --      2.1362                 1.8189                11.2338
 Frc consts  --      1.5686                 1.9165                20.5308
 IR Inten    --     97.0508                73.5059              1931.9942

                     13                     14                     15
                      A                      A                      A
 Frequencies --   1953.7687              3026.1246              3344.2171
 Red. masses --      6.5566                 1.0884                 1.1463
 Frc consts  --     14.7459                 5.8723                 7.5535
 IR Inten    --    501.2514              4347.6955              2999.3484

 - Thermochemistry -
 -------------------
 Temperature   298.150 Kelvin.  Pressure   1.00000 Atm.
 Atom     1 has atomic number  6 and mass  12.00000

 Molecular mass:    66.01056 amu.
 Principal axes and moments of inertia in atomic units:
                           1         2         3
     Eigenvalues --   103.92402 541.41993 645.26232
           X            0.99973   0.02336  -0.00072
           Y           -0.02336   0.99973  -0.00177
           Z            0.00068   0.00178   1.00000
 This molecule is an asymmetric top.
 Rotational symmetry number  1.
 Rotational temperatures (Kelvin)      0.83343     0.15998     0.13423
 Rotational constants (GHZ):          17.36597     3.33335     2.79691
    1 imaginary frequencies ignored.
 Zero-point vibrational energy     102238.4 (Joules/Mol)
                                   24.43556 (Kcal/Mol)
 Warning -- explicit consideration of   3 degrees of freedom as
           vibrations may cause significant error
 Vibrational temperatures:     91.03   466.08   571.41   951.34   994.61
          (Kelvin)           1065.99  1100.77  1310.81  1606.21  1924.08
                             2534.00  2811.03  4353.91  4811.58

 Zero-point correction=                           0.038941 (Hartree/Particle)
 Thermal correction to Energy=                    0.043803
 Thermal correction to Enthalpy=                  0.044747
 Thermal correction to Gibbs Free Energy=         0.009425
 Sum of electronic and zero-point Energies=           -228.706920
 Sum of electronic and thermal Energies=              -228.702058
 Sum of electronic and thermal Enthalpies=            -228.701114
 Sum of electronic and thermal Free Energies=         -228.736436

                     E (Thermal)             CV                S
                      KCal/Mol        Cal/Mol-Kelvin    Cal/Mol-Kelvin
 Total                   27.487             15.177             74.341
 Electronic               0.000              0.000              2.755
 Translational            0.889              2.981             38.480
 Rotational               0.889              2.981             25.099
 Vibrational             25.709              9.216              8.008
 Vibration     1          0.597              1.972              4.352
 Vibration     2          0.708              1.628              1.290
 Vibration     3          0.764              1.476              0.973

 Normal termination of Gaussian 09 at Thu Mar  7 12:39:19 2019.
