 Gaussian 09, Revision E.01,
 Gaussian 09:  EM64L-G09RevE.01 30-Nov-2015

 ------------------------------------------------------
 #p b3lyp/6-311++G(3df,2p) freq IOp(2/17=3) IOp(2/18=3)
 ------------------------------------------------------

 ---------
 b3lyp opt
 ---------
 Symbolic Z-matrix:
 Charge = -1 Multiplicity = 2

                         Standard orientation:
 ---------------------------------------------------------------------
 Center     Atomic      Atomic             Coordinates (Angstroms)
 Number     Number       Type             X           Y           Z
 ---------------------------------------------------------------------
      1          6           0        0.000000    1.304989    0.000000
      2          6           0       -0.318242   -1.309974   -0.000000
      3          6           0       -0.634949   -2.518608   -0.000000
      4          6           0        0.067757   -0.060969    0.000000
      5          1           0       -0.851588   -3.554912   -0.000000
      6          1           0       -1.064305    1.661935   -0.000000
      7          8           0        0.903562    2.175043    0.000000
 ---------------------------------------------------------------------

 SCF Done:  E(UB3LYP) =  -228.829343860     A.U. after   19 cycles

 The electronic state is 2-A'.
 Alpha  occ. eigenvalues --  -18.89535 -10.05745 -10.01726  -9.99858  -9.98971
 Alpha  occ. eigenvalues --   -0.81236  -0.61271  -0.53858  -0.43718  -0.35109
 Alpha  occ. eigenvalues --   -0.30824  -0.23945  -0.19752  -0.16192  -0.14182
 Alpha  occ. eigenvalues --   -0.06465  -0.02352  -0.01768
 Alpha virt. eigenvalues --    0.10149   0.12873   0.15369   0.16670   0.17688
 Alpha virt. eigenvalues --    0.18791   0.19368   0.19945   0.20953   0.22361
 Alpha virt. eigenvalues --    0.23644   0.24427   0.26299   0.26584   0.28511

  Beta  occ. eigenvalues --  -18.89546 -10.05836 -10.02022  -9.99102  -9.98002
  Beta  occ. eigenvalues --   -0.81165  -0.60117  -0.52218  -0.42840  -0.34427
  Beta  occ. eigenvalues --   -0.30107  -0.23546  -0.19713  -0.14040  -0.13458
  Beta  occ. eigenvalues --   -0.06187  -0.00853
  Beta virt. eigenvalues --    0.08200   0.10195   0.13030   0.15208   0.16857
  Beta virt. eigenvalues --    0.17711   0.19216   0.19534   0.19924   0.21112
  Beta virt. eigenvalues --    0.22498   0.24150   0.24870   0.26351   0.27811

 Mulliken charges and spin densities:
               1          2
     1  C    0.092136  -0.125445
     2  C   -0.558079  -0.185080
     3  C   -0.013442   0.584439
     4  C   -0.010764   0.681727
     5  H    0.271866  -0.017088
     6  H    0.004575   0.073381
     7  O   -0.786292  -0.011933
 Sum of Mulliken charges =  -1.00000   1.00000

 Dipole moment (field-independent basis, Debye):
    X=             -1.7162    Y=             -1.7832    Z=             -0.0000  Tot=              2.4749
 Quadrupole moment (field-independent basis, Debye-Ang):
   XX=            -36.7827   YY=            -52.0273   ZZ=            -34.4837
   XY=             -7.7132   XZ=             -0.0000   YZ=             -0.0000

  Exact polarizability:  59.604  22.357 146.641  -0.002   0.001  47.174
 Approx polarizability:  86.386  49.960 257.149   0.000   0.000  62.378

 ******    2 imaginary frequencies (negative Signs) ******

                      1                      2                      3
                     A"                     A"                     A'
 Frequencies --   -341.9627               -41.0445                90.0487
 Red. masses --      1.3227                 6.9523                 4.6761
 Frc consts  --      0.0911                 0.0069                 0.0223
 IR Inten    --    133.4056                 2.9908                 3.4543

                      4                      5                      6
                     A'                     A'                     A"
 Frequencies --    224.0122               430.3251               492.8739
 Red. masses --      1.3893                 5.2106                 5.0081
 Frc consts  --      0.0411                 0.5685                 0.7168
 IR Inten    --     70.0125                 6.4178                 0.0133

                      7                      8                      9
                     A'                     A'                     A"
 Frequencies --    544.0038               874.4168               908.1665
 Red. masses --      9.8238                 6.0382                 1.7959
 Frc consts  --      1.7129                 2.7202                 0.8727
 IR Inten    --      2.3140                21.4458                 0.3092

                     10                     11                     12
                     A'                     A'                     A'
 Frequencies --   1344.6780              1447.7331              1666.6465
 Red. masses --      1.1902                 9.1859                 8.2934
 Frc consts  --      1.2679                11.3435                13.5728
 IR Inten    --     30.3714               429.7137               713.9745

                     13                     14                     15
                     A'                     A'                     A'
 Frequencies --   1881.5095              2688.8155              3469.0397
 Red. masses --      8.7781                 1.0701                 1.1208
 Frc consts  --     18.3090                 4.5583                 7.9472
 IR Inten    --    888.5518               291.3724                75.5450

 - Thermochemistry -
 -------------------
 Temperature   298.150 Kelvin.  Pressure   1.00000 Atm.
 Atom     1 has atomic number  6 and mass  12.00000

 Molecular mass:    66.01056 amu.
 Principal axes and moments of inertia in atomic units:
                           1         2         3
     Eigenvalues --    18.25964 800.63777 818.89742
           X            0.26916   0.96310  -0.00000
           Y            0.96310  -0.26916  -0.00000
           Z            0.00000   0.00000   1.00000
 This molecule is an asymmetric top.
 Rotational symmetry number  1.
 Rotational temperatures (Kelvin)      4.74346     0.10818     0.10577
 Rotational constants (GHZ):          98.83771     2.25413     2.20387
    2 imaginary frequencies ignored.
 Zero-point vibrational energy      96073.7 (Joules/Mol)
                                   22.96217 (Kcal/Mol)
 Warning -- explicit consideration of   5 degrees of freedom as
           vibrations may cause significant error
 Vibrational temperatures:    129.56   322.30   619.14   709.13   782.70
          (Kelvin)           1258.09  1306.65  1934.69  2082.96  2397.93
                             2707.07  3868.60  4991.17

 Zero-point correction=                           0.036593 (Hartree/Particle)
 Thermal correction to Energy=                    0.041538
 Thermal correction to Enthalpy=                  0.042482
 Thermal correction to Gibbs Free Energy=         0.008336
 Sum of electronic and zero-point Energies=           -228.792751
 Sum of electronic and thermal Energies=              -228.787806
 Sum of electronic and thermal Enthalpies=            -228.786862
 Sum of electronic and thermal Free Energies=         -228.821008

                     E (Thermal)             CV                S
                      KCal/Mol        Cal/Mol-Kelvin    Cal/Mol-Kelvin
 Total                   26.065             14.848             71.865
 Electronic               0.000              0.000              1.377
 Translational            0.889              2.981             38.480
 Rotational               0.889              2.981             23.997
 Vibrational             24.288              8.887              8.011
 Vibration     1          0.602              1.956              3.659
 Vibration     2          0.649              1.804              1.926
 Vibration     3          0.792              1.404              0.858
 Vibration     4          0.849              1.266              0.676
 Vibration     5          0.899              1.153              0.557

 Normal termination of Gaussian 09 at Thu Mar  7 11:45:17 2019.
