 Gaussian 09, Revision E.01,
 Gaussian 09:  EM64L-G09RevE.01 30-Nov-2015

 ------------------------------------------------------
 #p b3lyp/6-311++G(3df,2p) freq IOp(2/17=3) IOp(2/18=3)
 ------------------------------------------------------

 ---------
 b3lyp opt
 ---------
 Symbolic Z-matrix:
 Charge = -1 Multiplicity = 4

                         Standard orientation:
 ---------------------------------------------------------------------
 Center     Atomic      Atomic             Coordinates (Angstroms)
 Number     Number       Type             X           Y           Z
 ---------------------------------------------------------------------
      1          6           0        0.000000   -0.000000   -0.585005
      2          1           0       -0.000000    0.953472   -1.118530
      3          1           0        0.000000   -0.953472   -1.118530
      4          8           0        0.000000    0.000000    0.718404
 ---------------------------------------------------------------------

 SCF Done:  E(UB3LYP) =  -114.408999621     A.U. after   15 cycles

 The electronic state is 4-A2.
 Alpha  occ. eigenvalues --  -19.07518 -10.07171  -0.94003  -0.51245  -0.37641
 Alpha  occ. eigenvalues --   -0.33753  -0.29267  -0.22161  -0.02932   0.07200
 Alpha virt. eigenvalues --    0.11141   0.14258   0.17678   0.20795   0.22393
 Alpha virt. eigenvalues --    0.26069   0.29639   0.31253   0.32536   0.33610
 Alpha virt. eigenvalues --    0.38754   0.42902   0.45769   0.48670   0.52224

  Beta  occ. eigenvalues --  -19.04569 -10.05903  -0.87430  -0.45918  -0.31240
  Beta  occ. eigenvalues --   -0.30640  -0.22802
  Beta virt. eigenvalues --   -0.03754   0.10826   0.11961   0.14374   0.15320
  Beta virt. eigenvalues --    0.20059   0.22321   0.23518   0.28213   0.29975
  Beta virt. eigenvalues --    0.32945   0.33141   0.35114   0.39836   0.44275

 Mulliken charges and spin densities:
               1          2
     1  C    2.276698  -1.528678
     2  H   -1.432940   1.715386
     3  H   -1.432940   1.715386
     4  O   -0.410819   1.097906
 Sum of Mulliken charges =  -1.00000   3.00000

 Dipole moment (field-independent basis, Debye):
    X=              0.0000    Y=              0.0000    Z=              6.7192  Tot=              6.7192
 Quadrupole moment (field-independent basis, Debye-Ang):
   XX=            -28.1611   YY=            -42.4597   ZZ=            -41.3626
   XY=              0.0000   XZ=             -0.0000   YZ=             -0.0000

  Exact polarizability: 173.739   0.000 977.452   0.000  -0.000 305.457
 Approx polarizability: 143.099  -0.0001133.493  -0.000   0.000 234.576

 ******    1 imaginary frequencies (negative Signs) ******

                      1                      2                      3
                     B1                     B2                     A1
 Frequencies --   -664.7955               828.9156              1237.9189
 Red. masses --      1.3264                 1.3058                 1.0578
 Frc consts  --      0.3454                 0.5286                 0.9551
 IR Inten    --    412.3767                 7.8782               926.5162

                      4                      5                      6
                     A1                     A1                     B2
 Frequencies --   1259.1605              2914.1265              3087.4224
 Red. masses --     11.0390                 1.0404                 1.1133
 Frc consts  --     10.3120                 5.2058                 6.2524
 IR Inten    --      3.9001                14.4242               156.8300

 - Thermochemistry -
 -------------------
 Temperature   298.150 Kelvin.  Pressure   1.00000 Atm.
 Atom     1 has atomic number  6 and mass  12.00000

 Molecular mass:    30.01056 amu.
 Principal axes and moments of inertia in atomic units:
                           1         2         3
     Eigenvalues --     6.54378  52.56590  59.10968
           X           -0.00000  -0.00000   1.00000
           Y            0.00000   1.00000   0.00000
           Z            1.00000  -0.00000   0.00000
 This molecule is an asymmetric top.
 Rotational symmetry number  2.
 Rotational temperatures (Kelvin)     13.23605     1.64772     1.46531
 Rotational constants (GHZ):         275.79488    34.33292    30.53207
    1 imaginary frequencies ignored.
 Zero-point vibrational energy      55791.1 (Joules/Mol)
                                   13.33439 (Kcal/Mol)
 Vibrational temperatures:   1192.62  1781.09  1811.65  4192.77  4442.11
          (Kelvin)

 Zero-point correction=                           0.021250 (Hartree/Particle)
 Thermal correction to Energy=                    0.024180
 Thermal correction to Enthalpy=                  0.025125
 Thermal correction to Gibbs Free Energy=        -0.001207
 Sum of electronic and zero-point Energies=           -114.387750
 Sum of electronic and thermal Energies=              -114.384819
 Sum of electronic and thermal Enthalpies=            -114.383875
 Sum of electronic and thermal Free Energies=         -114.410207

                     E (Thermal)             CV                S
                      KCal/Mol        Cal/Mol-Kelvin    Cal/Mol-Kelvin
 Total                   15.173              6.917             55.420
 Electronic               0.000              0.000              2.755
 Translational            0.889              2.981             36.130
 Rotational               0.889              2.981             16.282
 Vibrational             13.396              0.955              0.253

 Optimization completed.
    -- Stationary point found.
 Normal termination of Gaussian 09 at Thu Mar  7 13:25:35 2019.
