 Gaussian 09, Revision E.01,
 Gaussian 09:  EM64L-G09RevE.01 30-Nov-2015

 ------------------------------------------------------
 #p b3lyp/6-311++G(3df,2p) freq IOp(2/17=3) IOp(2/18=3)
 ------------------------------------------------------

 ---------
 b3lyp opt
 ---------
 Symbolic Z-matrix:
 Charge = -1 Multiplicity = 4

                         Standard orientation:
 ---------------------------------------------------------------------
 Center     Atomic      Atomic             Coordinates (Angstroms)
 Number     Number       Type             X           Y           Z
 ---------------------------------------------------------------------
      1          6           0       -0.111627    0.726652    0.000000
      2          1           0        0.752821    1.386074    0.000000
      3          1           0        0.809958   -0.967177   -0.000000
      4          8           0       -0.111627   -0.597351   -0.000000
 ---------------------------------------------------------------------

 SCF Done:  E(UB3LYP) =  -114.399403554     A.U. after   15 cycles

 The electronic state is 4-A".
 Alpha  occ. eigenvalues --  -19.01613 -10.08161  -0.92258  -0.50633  -0.39802
 Alpha  occ. eigenvalues --   -0.26991  -0.26344  -0.12044  -0.01890   0.06918
 Alpha virt. eigenvalues --    0.11316   0.16546   0.18344   0.18718   0.22615
 Alpha virt. eigenvalues --    0.26566   0.28930   0.31878   0.33043   0.38164
 Alpha virt. eigenvalues --    0.40161   0.45143   0.45831   0.51736   0.53537

  Beta  occ. eigenvalues --  -19.00713 -10.05413  -0.90143  -0.45698  -0.36568
  Beta  occ. eigenvalues --   -0.24452  -0.21533
  Beta virt. eigenvalues --    0.05585   0.12038   0.12649   0.13852   0.18030
  Beta virt. eigenvalues --    0.20420   0.21175   0.24056   0.28511   0.30593
  Beta virt. eigenvalues --    0.32371   0.33490   0.38928   0.42098   0.47355

 Mulliken charges and spin densities:
               1          2
     1  C    1.586825   0.093757
     2  H   -1.192263   1.433169
     3  H   -0.939479   1.294772
     4  O   -0.455083   0.178303
 Sum of Mulliken charges =  -1.00000   3.00000

 Dipole moment (field-independent basis, Debye):
    X=             -5.4125    Y=              0.9315    Z=              0.0000  Tot=              5.4921
 Quadrupole moment (field-independent basis, Debye-Ang):
   XX=            -36.9825   YY=            -37.4024   ZZ=            -26.8404
   XY=              0.8313   XZ=              0.0000   YZ=             -0.0000

  Exact polarizability: 133.517  58.764 808.089   0.000   0.000 103.932
 Approx polarizability: 118.171  47.346 748.591  -0.000   0.000  92.322

 ******    1 imaginary frequencies (negative Signs) ******

                      1                      2                      3
                     A"                     A'                     A'
 Frequencies --   -463.9422               974.5766              1153.2453
 Red. masses --      1.2230                 1.0457                 1.7141
 Frc consts  --      0.1551                 0.5852                 1.3432
 IR Inten    --     44.1521               615.4901               720.4121

                      4                      5                      6
                     A'                     A'                     A'
 Frequencies --   1329.6413              3071.0877              3165.3864
 Red. masses --      3.5677                 1.0839                 1.0665
 Frc consts  --      3.7162                 6.0233                 6.2962
 IR Inten    --      0.7020               381.4904              3162.5567

 - Thermochemistry -
 -------------------
 Temperature   298.150 Kelvin.  Pressure   1.00000 Atm.
 Atom     1 has atomic number  6 and mass  12.00000

 Molecular mass:    30.01056 amu.
 Principal axes and moments of inertia in atomic units:
                           1         2         3
     Eigenvalues --     5.33092  53.29939  58.63030
           X            0.02487   0.99969   0.00000
           Y            0.99969  -0.02487  -0.00000
           Z            0.00000  -0.00000   1.00000
 This molecule is an asymmetric top.
 Rotational symmetry number  1.
 Rotational temperatures (Kelvin)     16.24745     1.62504     1.47729
 Rotational constants (GHZ):         338.54241    33.86045    30.78171
    1 imaginary frequencies ignored.
 Zero-point vibrational energy      57982.6 (Joules/Mol)
                                   13.85818 (Kcal/Mol)
 Vibrational temperatures:   1402.20  1659.26  1913.05  4418.60  4554.28
          (Kelvin)

 Zero-point correction=                           0.022084 (Hartree/Particle)
 Thermal correction to Energy=                    0.024988
 Thermal correction to Enthalpy=                  0.025932
 Thermal correction to Gibbs Free Energy=        -0.000925
 Sum of electronic and zero-point Energies=           -114.377319
 Sum of electronic and thermal Energies=              -114.374416
 Sum of electronic and thermal Enthalpies=            -114.373472
 Sum of electronic and thermal Free Energies=         -114.400328

                     E (Thermal)             CV                S
                      KCal/Mol        Cal/Mol-Kelvin    Cal/Mol-Kelvin
 Total                   15.680              6.739             56.524
 Electronic               0.000              0.000              2.755
 Translational            0.889              2.981             36.130
 Rotational               0.889              2.981             17.461
 Vibrational             13.903              0.778              0.178

 Optimization completed.
    -- Stationary point found.
 Normal termination of Gaussian 09 at Thu Mar  7 13:28:35 2019.
