 Gaussian 09, Revision E.01,
 Gaussian 09:  EM64L-G09RevE.01 30-Nov-2015

 ------------------------------------------------------
 #p b3lyp/6-311++G(3df,2p) freq IOp(2/17=3) IOp(2/18=3)
 ------------------------------------------------------

 ---------
 b3lyp opt
 ---------
 Symbolic Z-matrix:
 Charge = -1 Multiplicity = 4

                         Standard orientation:
 ---------------------------------------------------------------------
 Center     Atomic      Atomic             Coordinates (Angstroms)
 Number     Number       Type             X           Y           Z
 ---------------------------------------------------------------------
      1          6           0       -0.000333   -0.735036   -0.000000
      2          1           0        0.914403   -1.312554   -0.000000
      3          1           0       -0.909741    0.975964    0.000000
      4          8           0       -0.000333    0.593351    0.000000
 ---------------------------------------------------------------------

 SCF Done:  E(UB3LYP) =  -114.398893098     A.U. after   17 cycles

 The electronic state is 4-A".
 Alpha  occ. eigenvalues --  -19.02008 -10.08184  -0.92438  -0.51930  -0.35768
 Alpha  occ. eigenvalues --   -0.31600  -0.26396  -0.11153  -0.02022   0.07248
 Alpha virt. eigenvalues --    0.09813   0.16635   0.18135   0.19036   0.22300
 Alpha virt. eigenvalues --    0.26841   0.28511   0.33058   0.33274   0.35582
 Alpha virt. eigenvalues --    0.38204   0.45064   0.45686   0.52306   0.55801

  Beta  occ. eigenvalues --  -19.00983 -10.05520  -0.90058  -0.47735  -0.32355
  Beta  occ. eigenvalues --   -0.27505  -0.21613
  Beta virt. eigenvalues --    0.05752   0.11267   0.12484   0.13284   0.17731
  Beta virt. eigenvalues --    0.21062   0.21447   0.23666   0.28724   0.30254
  Beta virt. eigenvalues --    0.33547   0.33794   0.36080   0.40256   0.47372

 Mulliken charges and spin densities:
               1          2
     1  C    1.232028   0.458551
     2  H   -0.829396   1.028321
     3  H   -1.073201   1.383049
     4  O   -0.329432   0.130079
 Sum of Mulliken charges =  -1.00000   3.00000

 Dipole moment (field-independent basis, Debye):
    X=              2.8166    Y=             -1.9425    Z=             -0.0000  Tot=              3.4215
 Quadrupole moment (field-independent basis, Debye-Ang):
   XX=            -36.1789   YY=            -37.7479   ZZ=            -27.1992
   XY=              8.8661   XZ=             -0.0000   YZ=             -0.0000

  Exact polarizability: 731.371-677.364 997.913  -0.000   0.000 126.424
 Approx polarizability: 772.666-737.1271010.500   0.000  -0.000 108.241

 ******    1 imaginary frequencies (negative Signs) ******

                      1                      2                      3
                     A"                     A'                     A'
 Frequencies --   -433.5810               953.2410              1196.8678
 Red. masses --      1.0798                 1.0999                 1.4587
 Frc consts  --      0.1196                 0.5888                 1.2312
 IR Inten    --    668.7754              1254.1953              1488.0304

                      4                      5                      6
                     A'                     A'                     A'
 Frequencies --   1288.2196              3157.3725              3194.2121
 Red. masses --      4.4759                 1.0870                 1.0662
 Frc consts  --      4.3764                 6.3845                 6.4092
 IR Inten    --    732.9272              1929.4261             23332.7877

 - Thermochemistry -
 -------------------
 Temperature   298.150 Kelvin.  Pressure   1.00000 Atm.
 Atom     1 has atomic number  6 and mass  12.00000

 Molecular mass:    30.01056 amu.
 Principal axes and moments of inertia in atomic units:
                           1         2         3
     Eigenvalues --     4.81272  54.05254  58.86526
           X           -0.15449   0.98799   0.00000
           Y            0.98799   0.15449   0.00000
           Z           -0.00000  -0.00000   1.00000
 This molecule is an asymmetric top.
 Rotational symmetry number  1.
 Rotational temperatures (Kelvin)     17.99685     1.60240     1.47139
 Rotational constants (GHZ):         374.99403    33.38865    30.65885
    1 imaginary frequencies ignored.
 Zero-point vibrational energy      58556.7 (Joules/Mol)
                                   13.99538 (Kcal/Mol)
 Vibrational temperatures:   1371.50  1722.02  1853.46  4542.75  4595.75
          (Kelvin)

 Zero-point correction=                           0.022303 (Hartree/Particle)
 Thermal correction to Energy=                    0.025208
 Thermal correction to Enthalpy=                  0.026153
 Thermal correction to Gibbs Free Energy=        -0.000667
 Sum of electronic and zero-point Energies=           -114.376590
 Sum of electronic and thermal Energies=              -114.373685
 Sum of electronic and thermal Enthalpies=            -114.372740
 Sum of electronic and thermal Free Energies=         -114.399560

                     E (Thermal)             CV                S
                      KCal/Mol        Cal/Mol-Kelvin    Cal/Mol-Kelvin
 Total                   15.819              6.754             56.446
 Electronic               0.000              0.000              2.755
 Translational            0.889              2.981             36.130
 Rotational               0.889              2.981             17.378
 Vibrational             14.041              0.792              0.183

 Optimization completed.
    -- Stationary point found.
 Normal termination of Gaussian 09 at Thu Mar  7 13:28:44 2019.
