 Gaussian 09, Revision E.01,
 Gaussian 09:  EM64L-G09RevE.01 30-Nov-2015

 ------------------------------------------------------
 #p b3lyp/6-311++G(3df,2p) freq IOp(2/17=3) IOp(2/18=3)
 ------------------------------------------------------

 ---------
 b3lyp opt
 ---------
 Symbolic Z-matrix:
 Charge = -1 Multiplicity = 4

                         Standard orientation:
 ---------------------------------------------------------------------
 Center     Atomic      Atomic             Coordinates (Angstroms)
 Number     Number       Type             X           Y           Z
 ---------------------------------------------------------------------
      1          1           0        1.251031   -0.793261    0.000000
      2          1           0       -1.251031   -0.794911   -0.000000
      3          8           0        0.000000    0.198522   -0.000000
 ---------------------------------------------------------------------

 SCF Done:  E(UB3LYP) =  -76.2120477119     A.U. after   12 cycles

 The electronic state is 4-A".
 Alpha  occ. eigenvalues --  -18.96400  -0.73153  -0.18855  -0.17810  -0.16212
 Alpha  occ. eigenvalues --    0.00703   0.04309
 Alpha virt. eigenvalues --    0.18962   0.19257   0.30740   0.31395   0.37159
 Alpha virt. eigenvalues --    0.40593   0.58144   0.58285   0.76238   0.76280
 Alpha virt. eigenvalues --    0.81463   0.92913   1.02373   1.10006   1.10941

  Beta  occ. eigenvalues --  -18.92154  -0.61452  -0.10642  -0.09218
  Beta virt. eigenvalues --    0.07027   0.11890   0.15434   0.23238   0.23724
  Beta virt. eigenvalues --    0.31777   0.34549   0.38477   0.42429   0.62309
  Beta virt. eigenvalues --    0.62668   0.78826   0.79956   0.84956   0.97496

 Mulliken charges and spin densities:
               1          2
     1  H   -0.427040   0.967911
     2  H   -0.426024   0.967288
     3  O   -0.146937   1.064801
 Sum of Mulliken charges =  -1.00000   3.00000

 Dipole moment (field-independent basis, Debye):
    X=             -0.0059    Y=              2.9128    Z=             -0.0000  Tot=              2.9128
 Quadrupole moment (field-independent basis, Debye-Ang):
   XX=            -24.0533   YY=            -17.6826   ZZ=            -12.4410
   XY=              0.0010   XZ=             -0.0000   YZ=              0.0000

  Exact polarizability:  72.916   0.015  33.270  -0.000   0.000  15.105
 Approx polarizability:  50.457   0.004  36.578   0.000  -0.000  17.038

 ******    1 imaginary frequencies (negative Signs) ******

                      1                      2                      3
                     A'                     A'                     A'
 Frequencies --   -564.6160               439.8650               511.9967
 Red. masses --      1.0805                 1.1027                 1.0272
 Frc consts  --      0.2029                 0.1257                 0.1586
 IR Inten    --   1735.2850                86.1497               124.0633

 - Thermochemistry -
 -------------------
 Temperature   298.150 Kelvin.  Pressure   1.00000 Atm.
 Atom     1 has atomic number  1 and mass   1.00783

 Molecular mass:    18.01056 amu.
 Principal axes and moments of inertia in atomic units:
                           1         2         3
     Eigenvalues --     6.29829  11.26547  17.56375
           X            1.00000  -0.00150   0.00000
           Y            0.00150   1.00000   0.00000
           Z            0.00000  -0.00000   1.00000
 This molecule is an asymmetric top.
 Rotational symmetry number  1.
 Rotational temperatures (Kelvin)     13.75197     7.68843     4.93140
 Rotational constants (GHZ):         286.54482   160.20118   102.75373
    1 imaginary frequencies ignored.
 Zero-point vibrational energy       5693.4 (Joules/Mol)
                                    1.36075 (Kcal/Mol)
 Warning -- explicit consideration of   2 degrees of freedom as
           vibrations may cause significant error
 Vibrational temperatures:    632.87   736.65
          (Kelvin)

 Zero-point correction=                           0.002169 (Hartree/Particle)
 Thermal correction to Energy=                    0.005489
 Thermal correction to Enthalpy=                  0.006433
 Thermal correction to Gibbs Free Energy=        -0.019083
 Sum of electronic and zero-point Energies=            -76.209879
 Sum of electronic and thermal Energies=               -76.206559
 Sum of electronic and thermal Enthalpies=             -76.205615
 Sum of electronic and thermal Free Energies=          -76.231131

                     E (Thermal)             CV                S
                      KCal/Mol        Cal/Mol-Kelvin    Cal/Mol-Kelvin
 Total                    3.444              8.568             53.704
 Electronic               0.000              0.000              2.755
 Translational            0.889              2.981             34.608
 Rotational               0.889              2.981             14.885
 Vibrational              1.667              2.607              1.456
 Vibration     1          0.800              1.383              0.827
 Vibration     2          0.867              1.223              0.629

 Optimization completed.
    -- Stationary point found.
 Normal termination of Gaussian 09 at Thu Mar  7 13:31:08 2019.
