 Gaussian 09, Revision E.01,
 Gaussian 09:  EM64L-G09RevE.01 30-Nov-2015

 ------------------------------------------------------
 #p b3lyp/6-311++G(3df,2p) freq IOp(2/17=3) IOp(2/18=3)
 ------------------------------------------------------

 ---------
 b3lyp opt
 ---------
 Symbolic Z-matrix:
 Charge = -1 Multiplicity = 3

                         Standard orientation:
 ---------------------------------------------------------------------
 Center     Atomic      Atomic             Coordinates (Angstroms)
 Number     Number       Type             X           Y           Z
 ---------------------------------------------------------------------
      1          6           0        0.934066    0.773143   -0.000411
      2          6           0        1.007834   -0.718071   -0.000213
      3          6           0       -0.163499   -0.022763   -0.000464
      4          1           0        1.403037    1.731137    0.002361
      5          1           0       -1.894902    0.761860    0.000470
      6          1           0        1.566882   -1.628677    0.002024
      7          8           0       -1.468177   -0.132272    0.000209
 ---------------------------------------------------------------------

 SCF Done:  E(UB3LYP) =  -191.230507012     A.U. after   24 cycles

 The electronic state is 3-A.
 Alpha  occ. eigenvalues --  -19.04307 -10.13236 -10.05193 -10.05051  -0.95391
 Alpha  occ. eigenvalues --   -0.75716  -0.49018  -0.46133  -0.40606  -0.33412
 Alpha  occ. eigenvalues --   -0.30393  -0.21532  -0.20303  -0.19150   0.00635
 Alpha  occ. eigenvalues --    0.06096
 Alpha virt. eigenvalues --    0.09163   0.09713   0.13921   0.15368   0.16897
 Alpha virt. eigenvalues --    0.17363   0.17829   0.20297   0.20412   0.21157
 Alpha virt. eigenvalues --    0.21205   0.21805   0.22934   0.26131   0.26387

  Beta  occ. eigenvalues --  -19.04229 -10.13444 -10.04339 -10.04218  -0.95258
  Beta  occ. eigenvalues --   -0.74730  -0.48495  -0.44178  -0.39461  -0.33226
  Beta  occ. eigenvalues --   -0.29832  -0.20985  -0.19677  -0.16198
  Beta virt. eigenvalues --    0.09154   0.10511   0.11334   0.11952   0.14316
  Beta virt. eigenvalues --    0.15700   0.17098   0.18442   0.18716   0.21040
  Beta virt. eigenvalues --    0.21808   0.21844   0.22135   0.22622   0.23813

 Mulliken charges and spin densities:
               1          2
     1  C   -1.613962   1.975444
     2  C    1.639034  -1.278397
     3  C    2.234283  -2.081071
     4  H   -1.392757   1.595459
     5  H   -1.313806   1.654349
     6  H    0.079665   0.101625
     7  O   -0.632458   0.032591
 Sum of Mulliken charges =  -1.00000   2.00000

 Dipole moment (field-independent basis, Debye):
    X=              4.6749    Y=             -5.7724    Z=             -0.0103  Tot=              7.4280
 Quadrupole moment (field-independent basis, Debye-Ang):
   XX=            -60.7508   YY=            -52.0884   ZZ=            -41.1718
   XY=              4.7279   XZ=              0.0034   YZ=             -0.0288

  Exact polarizability:1232.692  56.2731078.046   1.851   0.029 159.983
 Approx polarizability:1212.496 123.595 512.022   1.753   0.198 153.472

 ******    2 imaginary frequencies (negative Signs) ******

                      1                      2                      3
                      A                      A                      A
 Frequencies --   -700.5880              -460.4701               448.3130
 Red. masses --      1.3592                 1.1458                 3.0464
 Frc consts  --      0.3931                 0.1431                 0.3608
 IR Inten    --    224.4147               373.9383                39.5175

                      4                      5                      6
                      A                      A                      A
 Frequencies --    494.5802               555.5227               759.2748
 Red. masses --      1.3043                 4.4185                 2.2043
 Frc consts  --      0.1880                 0.8034                 0.7487
 IR Inten    --    864.0603                97.7916                94.8347

                      7                      8                      9
                      A                      A                      A
 Frequencies --    888.2775               946.8717              1021.2517
 Red. masses --      1.5247                 1.6886                 2.8737
 Frc consts  --      0.7088                 0.8920                 1.7659
 IR Inten    --    137.5718                53.3871                96.7198

                     10                     11                     12
                      A                      A                      A
 Frequencies --   1082.9316              1288.7808              1753.8379
 Red. masses --      6.5461                 1.4656                 7.4582
 Frc consts  --      4.5231                 1.4343                13.5165
 IR Inten    --    666.5122              1480.9418               896.7293

                     13                     14                     15
                      A                      A                      A
 Frequencies --   3170.2733              3319.8101              3357.9647
 Red. masses --      1.0670                 1.0903                 1.1187
 Frc consts  --      6.3183                 7.0801                 7.4319
 IR Inten    --   6943.6743               559.1283               172.0653

 - Thermochemistry -
 -------------------
 Temperature   298.150 Kelvin.  Pressure   1.00000 Atm.
 Atom     1 has atomic number  6 and mass  12.00000

 Molecular mass:    55.01839 amu.
 Principal axes and moments of inertia in atomic units:
                           1         2         3
     Eigenvalues --    70.92168 234.13832 305.05989
           X            0.99943  -0.03365   0.00008
           Y            0.03365   0.99943   0.00005
           Z           -0.00009  -0.00005   1.00000
 This molecule is an asymmetric top.
 Rotational symmetry number  1.
 Rotational temperatures (Kelvin)      1.22126     0.36993     0.28392
 Rotational constants (GHZ):          25.44696     7.70801     5.91602
    2 imaginary frequencies ignored.
 Zero-point vibrational energy     114169.7 (Joules/Mol)
                                   27.28722 (Kcal/Mol)
 Warning -- explicit consideration of   3 degrees of freedom as
           vibrations may cause significant error
 Vibrational temperatures:    645.02   711.59   799.27  1092.43  1278.03
          (Kelvin)           1362.34  1469.35  1558.10  1854.27  2523.38
                             4561.31  4776.46  4831.36

 Zero-point correction=                           0.043485 (Hartree/Particle)
 Thermal correction to Energy=                    0.047264
 Thermal correction to Enthalpy=                  0.048208
 Thermal correction to Gibbs Free Energy=         0.016869
 Sum of electronic and zero-point Energies=           -191.187022
 Sum of electronic and thermal Energies=              -191.183243
 Sum of electronic and thermal Enthalpies=            -191.182299
 Sum of electronic and thermal Free Energies=         -191.213638

                     E (Thermal)             CV                S
                      KCal/Mol        Cal/Mol-Kelvin    Cal/Mol-Kelvin
 Total                   29.658             12.225             65.958
 Electronic               0.000              0.000              2.183
 Translational            0.889              2.981             37.937
 Rotational               0.889              2.981             23.142
 Vibrational             27.881              6.263              2.696
 Vibration     1          0.807              1.365              0.801
 Vibration     2          0.850              1.262              0.672
 Vibration     3          0.911              1.128              0.533

 Normal termination of Gaussian 09 at Thu Mar  7 08:47:23 2019.
