 Gaussian 09, Revision E.01,
 Gaussian 09:  EM64L-G09RevE.01 30-Nov-2015

 ------------------------------------------------------
 #p b3lyp/6-311++G(3df,2p) freq IOp(2/17=3) IOp(2/18=3)
 ------------------------------------------------------

 ---------
 b3lyp opt
 ---------
 Symbolic Z-matrix:
 Charge = -1 Multiplicity = 4

                         Standard orientation:
 ---------------------------------------------------------------------
 Center     Atomic      Atomic             Coordinates (Angstroms)
 Number     Number       Type             X           Y           Z
 ---------------------------------------------------------------------
      1          6           0        0.049987    0.501608    0.000273
      2          6           0       -1.295747   -0.183909   -0.000139
      3          1           0       -2.213359    0.389328   -0.000810
      4          1           0        1.948861    0.166633    0.000306
      5          1           0       -1.338881   -1.261550    0.001254
      6          1           0        0.212353    1.564806    0.000176
      7          8           0        1.108198   -0.345676   -0.000216
 ---------------------------------------------------------------------

 SCF Done:  E(UB3LYP) =  -153.725517468     A.U. after   20 cycles

 The electronic state is 4-A.
 Alpha  occ. eigenvalues --  -19.02127 -10.06900 -10.05705  -0.92033  -0.60500
 Alpha  occ. eigenvalues --   -0.47014  -0.40144  -0.30082  -0.28785  -0.27348
 Alpha  occ. eigenvalues --   -0.22449  -0.13673   0.02511   0.06396
 Alpha virt. eigenvalues --    0.09332   0.11018   0.12623   0.17325   0.18150
 Alpha virt. eigenvalues --    0.18860   0.20085   0.20873   0.23028   0.24658
 Alpha virt. eigenvalues --    0.24950   0.26458   0.28806   0.29561   0.32268

  Beta  occ. eigenvalues --  -19.01335 -10.05579 -10.04314  -0.90288  -0.56518
  Beta  occ. eigenvalues --   -0.44302  -0.38750  -0.28824  -0.27774  -0.21801
  Beta  occ. eigenvalues --   -0.21428
  Beta virt. eigenvalues --    0.01580   0.09892   0.11605   0.11851   0.14274
  Beta virt. eigenvalues --    0.15762   0.18501   0.18734   0.20214   0.21703
  Beta virt. eigenvalues --    0.23615   0.23758   0.25184   0.25839   0.27554

 Mulliken charges and spin densities:
               1          2
     1  C    1.370357  -0.410984
     2  C    0.331574   0.376845
     3  H   -0.453516   0.566005
     4  H   -0.923122   1.214181
     5  H    0.219623  -0.114429
     6  H   -0.926719   1.053415
     7  O   -0.618197   0.314966
 Sum of Mulliken charges =  -1.00000   3.00000

 Dipole moment (field-independent basis, Debye):
    X=             -4.4723    Y=             -3.8567    Z=              0.0003  Tot=              5.9056
 Quadrupole moment (field-independent basis, Debye-Ang):
   XX=            -57.5933   YY=            -43.6095   ZZ=            -35.3745
   XY=             -0.1881   XZ=             -0.0035   YZ=             -0.0017

  Exact polarizability:1599.902 -24.110 695.959   0.474  -0.143 137.746
 Approx polarizability:1570.349-229.765 507.875   0.369  -0.116 128.348

 ******    3 imaginary frequencies (negative Signs) ******

                      1                      2                      3
                      A                      A                      A
 Frequencies --   -679.5666              -468.0006              -271.8000
 Red. masses --      1.2396                 1.3061                 1.2261
 Frc consts  --      0.3373                 0.1685                 0.0534
 IR Inten    --    173.2144               111.5175                44.9757

                      4                      5                      6
                      A                      A                      A
 Frequencies --    405.2314               455.6748               880.9015
 Red. masses --      2.5988                 1.1306                 1.7301
 Frc consts  --      0.2514                 0.1383                 0.7910
 IR Inten    --     12.0934               374.4763               383.1766

                      7                      8                      9
                      A                      A                      A
 Frequencies --   1033.8026              1203.2231              1260.2067
 Red. masses --      1.9007                 1.1696                 3.0496
 Frc consts  --      1.1968                 0.9977                 2.8535
 IR Inten    --    266.0678               663.7737               662.8106

                     10                     11                     12
                      A                      A                      A
 Frequencies --   1388.6886              1461.2526              3126.6010
 Red. masses --      1.2450                 1.6670                 1.0542
 Frc consts  --      1.4146                 2.0972                 6.0718
 IR Inten    --     88.0462                44.1759               238.2880

                     13                     14                     15
                      A                      A                      A
 Frequencies --   3225.2082              3253.5987              3327.4881
 Red. masses --      1.0915                 1.1149                 1.0660
 Frc consts  --      6.6892                 6.9536                 6.9541
 IR Inten    --    170.1925                68.5771              6837.7998

 - Thermochemistry -
 -------------------
 Temperature   298.150 Kelvin.  Pressure   1.00000 Atm.
 Atom     1 has atomic number  6 and mass  12.00000

 Molecular mass:    44.02621 amu.
 Principal axes and moments of inertia in atomic units:
                           1         2         3
     Eigenvalues --    34.00180 180.14663 214.14840
           X            0.99938   0.03531   0.00001
           Y           -0.03531   0.99938  -0.00016
           Z           -0.00002   0.00016   1.00000
 This molecule is an asymmetric top.
 Rotational symmetry number  1.
 Rotational temperatures (Kelvin)      2.54733     0.48080     0.40446
 Rotational constants (GHZ):          53.07782    10.01818     8.42753
    3 imaginary frequencies ignored.
 Zero-point vibrational energy     125738.7 (Joules/Mol)
                                   30.05228 (Kcal/Mol)
 Warning -- explicit consideration of   2 degrees of freedom as
           vibrations may cause significant error
 Vibrational temperatures:    583.04   655.61  1267.42  1487.41  1731.17
          (Kelvin)           1813.15  1998.01  2102.41  4498.48  4640.35
                             4681.20  4787.51

 Zero-point correction=                           0.047891 (Hartree/Particle)
 Thermal correction to Energy=                    0.051421
 Thermal correction to Enthalpy=                  0.052365
 Thermal correction to Gibbs Free Energy=         0.022010
 Sum of electronic and zero-point Energies=           -153.677626
 Sum of electronic and thermal Energies=              -153.674097
 Sum of electronic and thermal Enthalpies=            -153.673152
 Sum of electronic and thermal Free Energies=         -153.703507

                     E (Thermal)             CV                S
                      KCal/Mol        Cal/Mol-Kelvin    Cal/Mol-Kelvin
 Total                   32.267             10.205             63.888
 Electronic               0.000              0.000              2.755
 Translational            0.889              2.981             37.273
 Rotational               0.889              2.981             21.800
 Vibrational             30.490              4.243              2.060
 Vibration     1          0.770              1.459              0.944
 Vibration     2          0.814              1.348              0.779

 Normal termination of Gaussian 09 at Thu Mar  7 10:44:52 2019.
