 Gaussian 09, Revision E.01,
 Gaussian 09:  EM64L-G09RevE.01 30-Nov-2015

 ------------------------------------------------------
 #p b3lyp/6-311++G(3df,2p) freq IOp(2/17=3) IOp(2/18=3)
 ------------------------------------------------------

 ---------
 b3lyp opt
 ---------
 Symbolic Z-matrix:
 Charge = -1 Multiplicity = 4

                         Standard orientation:
 ---------------------------------------------------------------------
 Center     Atomic      Atomic             Coordinates (Angstroms)
 Number     Number       Type             X           Y           Z
 ---------------------------------------------------------------------
      1          6           0       -0.092626    0.500676   -0.000272
      2          6           0        1.253687   -0.108364    0.000078
      3          1           0        1.848717    0.160697    0.886694
      4          1           0        1.168659   -1.199122   -0.000588
      5          1           0        1.849304    0.161662   -0.885802
      6          1           0       -1.270249   -1.029784   -0.000948
      7          8           0       -1.320350   -0.055915    0.000226
 ---------------------------------------------------------------------

 SCF Done:  E(UB3LYP) =  -153.734870647     A.U. after   17 cycles

 The electronic state is 4-A.
 Alpha  occ. eigenvalues --  -19.02314 -10.08762 -10.03940  -0.92708  -0.61480
 Alpha  occ. eigenvalues --   -0.48381  -0.36091  -0.30612  -0.30071  -0.24737
 Alpha  occ. eigenvalues --   -0.24425  -0.11547  -0.01458   0.06257
 Alpha virt. eigenvalues --    0.09867   0.11683   0.12515   0.16542   0.18509
 Alpha virt. eigenvalues --    0.19358   0.19814   0.21005   0.21822   0.23785
 Alpha virt. eigenvalues --    0.24967   0.25644   0.28834   0.29414   0.33115

  Beta  occ. eigenvalues --  -19.01581 -10.05945 -10.03785  -0.90831  -0.59329
  Beta  occ. eigenvalues --   -0.45161  -0.33539  -0.28458  -0.27544  -0.23653
  Beta  occ. eigenvalues --   -0.21397
  Beta virt. eigenvalues --    0.05333   0.10675   0.12378   0.13027   0.13756
  Beta virt. eigenvalues --    0.14066   0.17793   0.18902   0.19837   0.20909
  Beta virt. eigenvalues --    0.22030   0.22471   0.24343   0.25964   0.26926

 Mulliken charges and spin densities:
               1          2
     1  C    0.137147   1.816096
     2  C    2.203017  -2.600480
     3  H   -0.749581   0.920463
     4  H   -0.855421   1.052302
     5  H   -0.749213   0.919993
     6  H   -0.464428   0.795388
     7  O   -0.521520   0.096238
 Sum of Mulliken charges =  -1.00000   3.00000

 Dipole moment (field-independent basis, Debye):
    X=             -2.2477    Y=              3.7676    Z=              0.0020  Tot=              4.3871
 Quadrupole moment (field-independent basis, Debye-Ang):
   XX=            -50.1668   YY=            -45.9112   ZZ=            -40.0796
   XY=             -1.6214   XZ=             -0.0024   YZ=             -0.0043

  Exact polarizability:1020.871 325.459 618.960   0.175   0.097 654.260
 Approx polarizability:1014.657 414.617 547.419   0.352   0.211 410.475

 ******    2 imaginary frequencies (negative Signs) ******

                      1                      2                      3
                      A                      A                      A
 Frequencies --   -417.4339              -172.4563               392.2861
 Red. masses --      1.5699                 1.1925                 2.6245
 Frc consts  --      0.1612                 0.0209                 0.2380
 IR Inten    --    124.7667                84.1677                97.5454

                      4                      5                      6
                      A                      A                      A
 Frequencies --    870.7899               988.9310               992.1509
 Red. masses --      4.4662                 1.2467                 1.2905
 Frc consts  --      1.9953                 0.7184                 0.7484
 IR Inten    --    167.3536                 0.0792               166.9173

                      7                      8                      9
                      A                      A                      A
 Frequencies --   1174.0748              1351.4779              1383.9868
 Red. masses --      1.6493                 2.7024                 1.4107
 Frc consts  --      1.3395                 2.9082                 1.5920
 IR Inten    --    831.1942               102.6479               376.2639

                     10                     11                     12
                      A                      A                      A
 Frequencies --   1427.8132              1462.9195              2887.4602
 Red. masses --      1.0454                 1.0702                 1.0408
 Frc consts  --      1.2556                 1.3494                 5.1125
 IR Inten    --    958.8683               188.7721                49.9467

                     13                     14                     15
                      A                      A                      A
 Frequencies --   2930.7067              3023.4291              3521.9000
 Red. masses --      1.0999                 1.0899                 1.0646
 Frc consts  --      5.5660                 5.8701                 7.7799
 IR Inten    --     15.9855               164.2960              4598.1273

 - Thermochemistry -
 -------------------
 Temperature   298.150 Kelvin.  Pressure   1.00000 Atm.
 Atom     1 has atomic number  6 and mass  12.00000

 Molecular mass:    44.02621 amu.
 Principal axes and moments of inertia in atomic units:
                           1         2         3
     Eigenvalues --    25.95739 207.26182 221.91203
           X            0.99998   0.00682   0.00003
           Y           -0.00682   0.99998   0.00024
           Z           -0.00003  -0.00024   1.00000
 This molecule is an asymmetric top.
 Rotational symmetry number  1.
 Rotational temperatures (Kelvin)      3.33677     0.41790     0.39031
 Rotational constants (GHZ):          69.52707     8.70754     8.13269
    2 imaginary frequencies ignored.
 Zero-point vibrational energy     134029.2 (Joules/Mol)
                                   32.03374 (Kcal/Mol)
 Warning -- explicit consideration of   1 degrees of freedom as
           vibrations may cause significant error
 Vibrational temperatures:    564.41  1252.87  1422.85  1427.48  1689.23
          (Kelvin)           1944.47  1991.25  2054.30  2104.81  4154.41
                             4216.63  4350.03  5067.22

 Zero-point correction=                           0.051049 (Hartree/Particle)
 Thermal correction to Energy=                    0.054383
 Thermal correction to Enthalpy=                  0.055327
 Thermal correction to Gibbs Free Energy=         0.025302
 Sum of electronic and zero-point Energies=           -153.683822
 Sum of electronic and thermal Energies=              -153.680487
 Sum of electronic and thermal Enthalpies=            -153.679543
 Sum of electronic and thermal Free Energies=         -153.709568

                     E (Thermal)             CV                S
                      KCal/Mol        Cal/Mol-Kelvin    Cal/Mol-Kelvin
 Total                   34.126              9.406             63.193
 Electronic               0.000              0.000              2.755
 Translational            0.889              2.981             37.273
 Rotational               0.889              2.981             21.706
 Vibrational             32.349              3.444              1.460
 Vibration     1          0.760              1.487              0.991

 Optimization completed.
    -- Stationary point found.
 Normal termination of Gaussian 09 at Thu Mar  7 10:44:41 2019.
