 Gaussian 09, Revision E.01,
 Gaussian 09:  EM64L-G09RevE.01 30-Nov-2015

 ------------------------------------------------------
 #p b3lyp/6-311++G(3df,2p) freq IOp(2/17=3) IOp(2/18=3)
 ------------------------------------------------------

 ---------
 b3lyp opt
 ---------
 Symbolic Z-matrix:
 Charge = -1 Multiplicity = 2

                         Standard orientation:
 ---------------------------------------------------------------------
 Center     Atomic      Atomic             Coordinates (Angstroms)
 Number     Number       Type             X           Y           Z
 ---------------------------------------------------------------------
      1          6           0        0.784055    0.097818    0.000687
      2          6           0       -0.600108    0.568082    0.034142
      3          6           0        1.946740   -0.209822   -0.013866
      4          1           0       -1.600187   -0.977227    0.693550
      5          1           0       -0.769127    1.115694    0.971311
      6          1           0       -0.765041    1.270225   -0.786531
      7          1           0        2.970947   -0.491830   -0.010394
      8          8           0       -1.577589   -0.456666   -0.124215
 ---------------------------------------------------------------------

 SCF Done:  E(UB3LYP) =  -191.919877763     A.U. after   28 cycles

 The electronic state is 2-A.
 Alpha  occ. eigenvalues --  -19.00128 -10.11216 -10.04921 -10.03998  -0.89979
 Alpha  occ. eigenvalues --   -0.64642  -0.56993  -0.42241  -0.38969  -0.35039
 Alpha  occ. eigenvalues --   -0.32544  -0.23612  -0.17364  -0.15800  -0.14979
 Alpha  occ. eigenvalues --    0.05532
 Alpha virt. eigenvalues --    0.08111   0.10013   0.11279   0.13296   0.14916
 Alpha virt. eigenvalues --    0.15320   0.17042   0.18137   0.19195   0.20328
 Alpha virt. eigenvalues --    0.20701   0.20850   0.22150   0.24034   0.24998

  Beta  occ. eigenvalues --  -19.00065 -10.11157 -10.04924 -10.03935  -0.89843
  Beta  occ. eigenvalues --   -0.64535  -0.56835  -0.42113  -0.38821  -0.34948
  Beta  occ. eigenvalues --   -0.32454  -0.23532  -0.17279  -0.15659  -0.14920
  Beta virt. eigenvalues --    0.08659   0.09719   0.11089   0.12362   0.13627
  Beta virt. eigenvalues --    0.15118   0.15812   0.17426   0.18849   0.19347
  Beta virt. eigenvalues --    0.20437   0.21047   0.21444   0.22244   0.24337

 Mulliken charges and spin densities:
               1          2
     1  C    7.631784  -7.857844
     2  C    7.517725  -7.769355
     3  C  -11.645101  11.865849
     4  H   -0.436249   0.679387
     5  H   -0.964378   1.117720
     6  H   -0.386950   0.533784
     7  H   -2.020906   2.319125
     8  O   -0.695925   0.111334
 Sum of Mulliken charges =  -1.00000   1.00000

 Dipole moment (field-independent basis, Debye):
    X=             -1.6563    Y=              0.3517    Z=             -2.2554  Tot=              2.8203
 Quadrupole moment (field-independent basis, Debye-Ang):
   XX=            -68.4501   YY=            -47.8423   ZZ=            -48.5165
   XY=              0.0546   XZ=              2.1426   YZ=             -1.0203

  Exact polarizability:2572.894-510.179 992.978-370.586 -53.604 663.348
 Approx polarizability:2319.681-215.163 648.656-462.716 -16.728 495.803

 ******    1 imaginary frequencies (negative Signs) ******

                      1                      2                      3
                      A                      A                      A
 Frequencies --   -300.0923               201.6223               291.1070
 Red. masses --      4.4419                 1.1440                 2.3825
 Frc consts  --      0.2357                 0.0274                 0.1190
 IR Inten    --     19.1357              1398.9058               262.0701

                      4                      5                      6
                      A                      A                      A
 Frequencies --    527.4580               714.9194               719.4744
 Red. masses --      6.9557                 1.3185                 1.2701
 Frc consts  --      1.1402                 0.3970                 0.3874
 IR Inten    --    114.2287               971.6272               798.0549

                      7                      8                      9
                      A                      A                      A
 Frequencies --    927.7903               968.6690              1024.9405
 Red. masses --      4.5897                 1.5938                 5.8697
 Frc consts  --      2.3278                 0.8811                 3.6330
 IR Inten    --     27.6279                94.8310               195.2368

                     10                     11                     12
                      A                      A                      A
 Frequencies --   1213.5849              1364.5762              1387.2155
 Red. masses --      1.0998                 1.2271                 1.1783
 Frc consts  --      0.9543                 1.3463                 1.3360
 IR Inten    --     67.3712                95.0309                94.6148

                     13                     14                     15
                      A                      A                      A
 Frequencies --   1462.6304              2216.8384              2942.6648
 Red. masses --      1.0881                 5.4024                 1.0727
 Frc consts  --      1.3714                15.6424                 5.4729
 IR Inten    --    485.9856                90.1307               256.2977

                     16                     17                     18
                      A                      A                      A
 Frequencies --   3028.8555              3469.5178              3623.5167
 Red. masses --      1.0868                 1.1826                 1.0662
 Frc consts  --      5.8745                 8.3876                 8.2484
 IR Inten    --    284.7899              2379.1575              6497.2750

 - Thermochemistry -
 -------------------
 Temperature   298.150 Kelvin.  Pressure   1.00000 Atm.
 Atom     1 has atomic number  6 and mass  12.00000

 Molecular mass:    56.02621 amu.
 Principal axes and moments of inertia in atomic units:
                           1         2         3
     Eigenvalues --    50.66318 399.79409 434.29755
           X            0.99977  -0.01824  -0.01097
           Y            0.01759   0.99823  -0.05687
           Z            0.01199   0.05667   0.99832
 This molecule is an asymmetric top.
 Rotational symmetry number  1.
 Rotational temperatures (Kelvin)      1.70960     0.21665     0.19943
 Rotational constants (GHZ):          35.62234     4.51418     4.15554
    1 imaginary frequencies ignored.
 Zero-point vibrational energy     156025.2 (Joules/Mol)
                                   37.29092 (Kcal/Mol)
 Warning -- explicit consideration of   3 degrees of freedom as
           vibrations may cause significant error
 Vibrational temperatures:    290.09   418.84   758.89  1028.61  1035.16
          (Kelvin)           1334.88  1393.70  1474.66  1746.08  1963.32
                             1995.89  2104.40  3189.53  4233.83  4357.84
                             4991.86  5213.43

 Zero-point correction=                           0.059427 (Hartree/Particle)
 Thermal correction to Energy=                    0.063827
 Thermal correction to Enthalpy=                  0.064772
 Thermal correction to Gibbs Free Energy=         0.032358
 Sum of electronic and zero-point Energies=           -191.860451
 Sum of electronic and thermal Energies=              -191.856050
 Sum of electronic and thermal Enthalpies=            -191.855106
 Sum of electronic and thermal Free Energies=         -191.887519

                     E (Thermal)             CV                S
                      KCal/Mol        Cal/Mol-Kelvin    Cal/Mol-Kelvin
 Total                   40.052             14.016             68.219
 Electronic               0.000              0.000              1.377
 Translational            0.889              2.981             37.991
 Rotational               0.889              2.981             23.691
 Vibrational             38.275              8.054              5.160
 Vibration     1          0.639              1.838              2.118
 Vibration     2          0.687              1.690              1.468
 Vibration     3          0.882              1.189              0.593

 Optimization completed.
    -- Stationary point found.
 Normal termination of Gaussian 09 at Thu Mar  7 11:00:03 2019.
