 Gaussian 09, Revision E.01,
 Gaussian 09:  EM64L-G09RevE.01 30-Nov-2015

 ------------------------------------------------------
 #p b3lyp/6-311++G(3df,2p) freq IOp(2/17=3) IOp(2/18=3)
 ------------------------------------------------------

 ---------
 b3lyp opt
 ---------
 Symbolic Z-matrix:
 Charge = -1 Multiplicity = 2

                         Standard orientation:
 ---------------------------------------------------------------------
 Center     Atomic      Atomic             Coordinates (Angstroms)
 Number     Number       Type             X           Y           Z
 ---------------------------------------------------------------------
      1          8           0        1.351582    0.824184    0.000000
      2          6           0        0.000000    0.388481   -0.000000
      3          6           0       -1.008612    1.356372   -0.000000
      4          6           0       -0.153825   -0.979227   -0.000000
      5          6           0       -0.313389   -2.201343   -0.000000
      6          1           0       -0.766866    2.412856   -0.000000
      7          1           0       -2.050096    1.076022   -0.000000
      8          1           0        1.310715    1.783789    0.000000
      9          1           0       -0.451451   -3.251843   -0.000000
 ---------------------------------------------------------------------

 SCF Done:  E(UB3LYP) =  -230.022051124     A.U. after   17 cycles

 The electronic state is 2-A".
 Alpha  occ. eigenvalues --  -18.97146 -10.03864  -9.98557  -9.97801  -9.96365
 Alpha  occ. eigenvalues --   -0.86759  -0.59635  -0.53191  -0.45551  -0.35716
 Alpha  occ. eigenvalues --   -0.31818  -0.29677  -0.23038  -0.21953  -0.19019
 Alpha  occ. eigenvalues --   -0.12180  -0.09799  -0.04783   0.08237
 Alpha virt. eigenvalues --    0.10723   0.11333   0.13417   0.14518   0.17266
 Alpha virt. eigenvalues --    0.19050   0.19487   0.20452   0.21268   0.21657
 Alpha virt. eigenvalues --    0.23299   0.24345   0.24495   0.25818   0.26585

  Beta  occ. eigenvalues --  -18.97099 -10.03479  -9.98494  -9.97458  -9.96006
  Beta  occ. eigenvalues --   -0.86568  -0.58799  -0.52506  -0.44587  -0.35274
  Beta  occ. eigenvalues --   -0.31438  -0.29376  -0.22714  -0.20680  -0.18871
  Beta  occ. eigenvalues --   -0.10591  -0.09588  -0.02221
  Beta virt. eigenvalues --    0.10727   0.11312   0.13358   0.14405   0.14502
  Beta virt. eigenvalues --    0.17257   0.19407   0.19852   0.21276   0.21539
  Beta virt. eigenvalues --    0.21672   0.23456   0.24569   0.24664   0.25838

 Mulliken charges and spin densities:
               1          2
     1  O   -0.700180   0.019197
     2  C    0.345554   0.146827
     3  C   -0.896970   0.538897
     4  C   -0.131901  -0.172519
     5  C   -0.319100   0.516494
     6  H    0.073711  -0.023547
     7  H    0.117416  -0.010098
     8  H    0.239458  -0.001143
     9  H    0.272012  -0.014109
 Sum of Mulliken charges =  -1.00000   1.00000

 Dipole moment (field-independent basis, Debye):
    X=              1.4588    Y=              1.5900    Z=              0.0000  Tot=              2.1578
 Quadrupole moment (field-independent basis, Debye-Ang):
   XX=            -40.8231   YY=            -43.7408   ZZ=            -41.7446
   XY=              3.5530   XZ=             -0.0000   YZ=              0.0000

  Exact polarizability:  72.099 -21.743 203.196   0.000  -0.0012557.185
 Approx polarizability:  92.830 -18.059 248.286   0.000   0.000 177.256

 ******    3 imaginary frequencies (negative Signs) ******

                      1                      2                      3
                     A"                     A"                     A"
 Frequencies --  -6659.5901              -588.7923              -261.0872
 Red. masses --      1.1158                 1.3649                 1.2369
 Frc consts  --     29.1572                 0.2788                 0.0497
 IR Inten    --4479177.2985               936.3454                 7.9255

                      4                      5                      6
                     A'                     A"                     A"
 Frequencies --    196.1349               278.9897               384.7806
 Red. masses --      3.8844                 3.0732                 1.1344
 Frc consts  --      0.0880                 0.1409                 0.0990
 IR Inten    --      1.4084               142.9787                 0.0007

                      7                      8                      9
                     A'                     A"                     A'
 Frequencies --    431.2226               480.3001               599.3808
 Red. masses --      2.7701                 6.7377                 5.4876
 Frc consts  --      0.3035                 0.9158                 1.1616
 IR Inten    --     19.5575                66.6238                 0.1633

                     10                     11                     12
                     A'                     A'                     A'
 Frequencies --    660.8568               778.3124               944.0014
 Red. masses --      1.3000                 5.6947                 1.6808
 Frc consts  --      0.3345                 2.0325                 0.8825
 IR Inten    --     49.8462                32.1480                27.0697

                     13                     14                     15
                     A'                     A'                     A'
 Frequencies --   1165.4652              1248.5891              1429.0577
 Red. masses --      1.6496                 2.6164                 1.3152
 Frc consts  --      1.3202                 2.4032                 1.5824
 IR Inten    --    253.9287                52.1409                14.2346

                     16                     17                     18
                     A'                     A'                     A'
 Frequencies --   1517.1031              2046.0914              3124.0196
 Red. masses --      2.8746                 7.2923                 1.0599
 Frc consts  --      3.8981                17.9872                 6.0946
 IR Inten    --    137.1261               251.6791                17.6105

                     19                     20                     21
                     A'                     A'                     A'
 Frequencies --   3224.3000              3469.0343              3843.7876
 Red. masses --      1.1095                 1.1319                 1.0652
 Frc consts  --      6.7961                 8.0253                 9.2724
 IR Inten    --     24.2189                44.9416                11.8877

 - Thermochemistry -
 -------------------
 Temperature   298.150 Kelvin.  Pressure   1.00000 Atm.
 Atom     1 has atomic number  8 and mass  15.99491

 Molecular mass:    68.02621 amu.
 Principal axes and moments of inertia in atomic units:
                           1         2         3
     Eigenvalues --   171.23191 453.16487 624.39678
           X            0.14455   0.98950   0.00000
           Y            0.98950  -0.14455   0.00000
           Z           -0.00000  -0.00000   1.00000
 This molecule is an asymmetric top.
 Rotational symmetry number  1.
 Rotational temperatures (Kelvin)      0.50583     0.19113     0.13872
 Rotational constants (GHZ):          10.53975     3.98253     2.89038
    3 imaginary frequencies ignored.
 Zero-point vibrational energy     154446.4 (Joules/Mol)
                                   36.91358 (Kcal/Mol)
 Warning -- explicit consideration of   6 degrees of freedom as
           vibrations may cause significant error
 Vibrational temperatures:    282.19   401.40   553.61   620.43   691.04
          (Kelvin)            862.37   950.82  1119.82  1358.21  1676.84
                             1796.44  2056.09  2182.77  2943.87  4494.76
                             4639.04  4991.16  5530.35

 Zero-point correction=                           0.058826 (Hartree/Particle)
 Thermal correction to Energy=                    0.063981
 Thermal correction to Enthalpy=                  0.064925
 Thermal correction to Gibbs Free Energy=         0.030295
 Sum of electronic and zero-point Energies=           -229.963226
 Sum of electronic and thermal Energies=              -229.958070
 Sum of electronic and thermal Enthalpies=            -229.957126
 Sum of electronic and thermal Free Energies=         -229.991756

                     E (Thermal)             CV                S
                      KCal/Mol        Cal/Mol-Kelvin    Cal/Mol-Kelvin
 Total                   40.149             17.367             72.885
 Electronic               0.000              0.000              1.377
 Translational            0.889              2.981             38.570
 Rotational               0.889              2.981             25.386
 Vibrational             38.371             11.406              7.552
 Vibration     1          0.636              1.845              2.169
 Vibration     2          0.679              1.712              1.540
 Vibration     3          0.754              1.503              1.020
 Vibration     4          0.792              1.402              0.855
 Vibration     5          0.837              1.294              0.709
 Vibration     6          0.957              1.033              0.451

 Normal termination of Gaussian 09 at Thu Mar  7 15:46:06 2019.
