 Gaussian 09, Revision E.01,
 Gaussian 09:  EM64L-G09RevE.01 30-Nov-2015

 ------------------------------------------------------
 #p b3lyp/6-311++G(3df,2p) freq IOp(2/17=3) IOp(2/18=3)
 ------------------------------------------------------

 ---------
 b3lyp opt
 ---------
 Symbolic Z-matrix:
 Charge = -1 Multiplicity = 4

                         Standard orientation:
 ---------------------------------------------------------------------
 Center     Atomic      Atomic             Coordinates (Angstroms)
 Number     Number       Type             X           Y           Z
 ---------------------------------------------------------------------
      1          6           0       -1.136264    0.317403   -0.439843
      2          6           0        1.307988    0.106495    0.054964
      3          8           0       -2.021129   -0.582566    0.099989
      4          6           0        2.406580   -0.396720   -0.124875
      5          6           0        0.083648    0.676359    0.290782
      6          1           0       -1.634170    1.032976   -1.080119
      7          1           0       -1.556266   -1.154486    0.731967
      8          1           0        3.364790   -0.845023   -0.239949
      9          1           0        0.022967    1.405837    1.102023
 ---------------------------------------------------------------------

 SCF Done:  E(UB3LYP) =  -229.940947104     A.U. after   33 cycles

 The electronic state is 4-A.
 Alpha  occ. eigenvalues --  -19.04697 -10.11170 -10.09133 -10.06927 -10.06661
 Alpha  occ. eigenvalues --   -0.94874  -0.69187  -0.62020  -0.53658  -0.43453
 Alpha  occ. eigenvalues --   -0.40007  -0.37043  -0.35809  -0.28510  -0.26503
 Alpha  occ. eigenvalues --   -0.22809  -0.16962  -0.10308  -0.06725   0.05410
 Alpha virt. eigenvalues --    0.07972   0.08835   0.10107   0.13086   0.14466
 Alpha virt. eigenvalues --    0.15407   0.16668   0.16962   0.17896   0.18437
 Alpha virt. eigenvalues --    0.19251   0.19565   0.20322   0.21408   0.21751

  Beta  occ. eigenvalues --  -19.04013 -10.09880 -10.08142 -10.07134 -10.05905
  Beta  occ. eigenvalues --   -0.93297  -0.67338  -0.59479  -0.51525  -0.42398
  Beta  occ. eigenvalues --   -0.38892  -0.35256  -0.34214  -0.26100  -0.23949
  Beta  occ. eigenvalues --   -0.19610  -0.16328
  Beta virt. eigenvalues --    0.00905   0.06915   0.08780   0.09672   0.10191
  Beta virt. eigenvalues --    0.10849   0.13465   0.15155   0.16171   0.17196
  Beta virt. eigenvalues --    0.17474   0.18684   0.19258   0.20170   0.21184

 Mulliken charges and spin densities:
               1          2
     1  C    1.618834  -0.679804
     2  C   10.160567 -10.503809
     3  O   -0.581973   0.200305
     4  C  -15.219576  16.028928
     5  C    7.219642  -7.117330
     6  H   -0.011462   0.145681
     7  H   -0.245433   0.511231
     8  H   -3.080940   3.388832
     9  H   -0.859661   1.025965
 Sum of Mulliken charges =  -1.00000   3.00000

 Dipole moment (field-independent basis, Debye):
    X=             -6.3689    Y=              2.4619    Z=             -2.0229  Tot=              7.1215
 Quadrupole moment (field-independent basis, Debye-Ang):
   XX=            -90.6326   YY=            -58.3798   ZZ=            -54.0090
   XY=              6.7061   XZ=              2.1825   YZ=             -1.4708

  Exact polarizability:2229.141-523.1611578.998-493.484 180.376 723.154
 Approx polarizability:2578.238-461.3661006.384-646.935 163.215 570.105

 ******    1 imaginary frequencies (negative Signs) ******

                      1                      2                      3
                      A                      A                      A
 Frequencies --   -403.2452               187.2486               323.3596
 Red. masses --      4.7509                 2.4661                 1.6237
 Frc consts  --      0.4552                 0.0509                 0.1000
 IR Inten    --      1.7148                24.6461               138.7053

                      4                      5                      6
                      A                      A                      A
 Frequencies --    374.1008               413.0505               481.8047
 Red. masses --      3.3911                 1.4874                 1.5923
 Frc consts  --      0.2796                 0.1495                 0.2178
 IR Inten    --    212.6163               479.0242               604.1508

                      7                      8                      9
                      A                      A                      A
 Frequencies --    604.7672               695.9736               698.9337
 Red. masses --      1.8125                 1.6069                 1.4016
 Frc consts  --      0.3906                 0.4586                 0.4034
 IR Inten    --    326.2419               204.9057              1497.1672

                     10                     11                     12
                      A                      A                      A
 Frequencies --    735.9541               921.5402              1101.6591
 Red. masses --      2.2604                 5.2973                 2.7859
 Frc consts  --      0.7214                 2.6506                 1.9921
 IR Inten    --   1218.9907               394.0907               533.6824

                     13                     14                     15
                      A                      A                      A
 Frequencies --   1168.9717              1248.8773              1358.4990
 Red. masses --      1.4464                 1.7037                 1.6108
 Frc consts  --      1.1646                 1.5656                 1.7515
 IR Inten    --    391.6873                58.1031               265.9572

                     16                     17                     18
                      A                      A                      A
 Frequencies --   1392.2386              1994.2029              3016.2288
 Red. masses --      1.7317                 6.9485                 1.0816
 Frc consts  --      1.9776                16.2811                 5.7975
 IR Inten    --   1095.7061               247.0534               308.1237

                     19                     20                     21
                      A                      A                      A
 Frequencies --   3163.6502              3395.2742              3596.4470
 Red. masses --      1.0853                 1.1340                 1.0662
 Frc consts  --      6.4001                 7.7024                 8.1249
 IR Inten    --    135.5667              3804.2603             10161.3831

 - Thermochemistry -
 -------------------
 Temperature   298.150 Kelvin.  Pressure   1.00000 Atm.
 Atom     1 has atomic number  6 and mass  12.00000

 Molecular mass:    68.02621 amu.
 Principal axes and moments of inertia in atomic units:
                           1         2         3
     Eigenvalues --    92.66827 693.64605 738.39056
           X            0.99987  -0.01590  -0.00062
           Y            0.01589   0.99974  -0.01611
           Z            0.00087   0.01610   0.99987
 This molecule is an asymmetric top.
 Rotational symmetry number  1.
 Rotational temperatures (Kelvin)      0.93467     0.12487     0.11730
 Rotational constants (GHZ):          19.47529     2.60182     2.44416
    1 imaginary frequencies ignored.
 Zero-point vibrational energy     160734.9 (Joules/Mol)
                                   38.41657 (Kcal/Mol)
 Warning -- explicit consideration of   6 degrees of freedom as
           vibrations may cause significant error
 Vibrational temperatures:    269.41   465.24   538.25   594.29   693.21
          (Kelvin)            870.12  1001.35  1005.61  1058.87  1325.89
                             1585.04  1681.89  1796.85  1954.57  2003.12
                             2869.21  4339.68  4551.78  4885.04  5174.48

 Zero-point correction=                           0.061221 (Hartree/Particle)
 Thermal correction to Energy=                    0.066504
 Thermal correction to Enthalpy=                  0.067449
 Thermal correction to Gibbs Free Energy=         0.032023
 Sum of electronic and zero-point Energies=           -229.879726
 Sum of electronic and thermal Energies=              -229.874443
 Sum of electronic and thermal Enthalpies=            -229.873499
 Sum of electronic and thermal Free Energies=         -229.908924

                     E (Thermal)             CV                S
                      KCal/Mol        Cal/Mol-Kelvin    Cal/Mol-Kelvin
 Total                   41.732             18.551             74.560
 Electronic               0.000              0.000              2.755
 Translational            0.889              2.981             38.570
 Rotational               0.889              2.981             25.365
 Vibrational             39.955             12.589              7.870
 Vibration     1          0.632              1.857              2.255
 Vibration     2          0.708              1.629              1.293
 Vibration     3          0.745              1.525              1.063
 Vibration     4          0.777              1.442              0.916
 Vibration     5          0.838              1.290              0.705
 Vibration     6          0.963              1.022              0.442

 Normal termination of Gaussian 09 at Fri Mar  8 00:01:28 2019.
