 Gaussian 09, Revision E.01,
 Gaussian 09:  EM64L-G09RevE.01 30-Nov-2015

 ------------------------------------------------------
 #p b3lyp/6-311++G(3df,2p) freq IOp(2/17=3) IOp(2/18=3)
 ------------------------------------------------------

 ---------
 b3lyp opt
 ---------
 Symbolic Z-matrix:
 Charge = -1 Multiplicity = 2

                         Standard orientation:
 ---------------------------------------------------------------------
 Center     Atomic      Atomic             Coordinates (Angstroms)
 Number     Number       Type             X           Y           Z
 ---------------------------------------------------------------------
      1          6           0        0.000000    1.137186    0.000000
      2          6           0       -0.894881   -1.001745    0.000000
      3          8           0       -1.157196    0.454802    0.000000
      4          6           0        0.650003   -1.068065    0.000000
      5          6           0        1.103159    0.375349    0.000000
      6          1           0       -0.078563    2.219821    0.000000
      7          1           0        1.034737   -1.634189    0.873847
      8          1           0        1.034737   -1.634189   -0.873847
      9          1           0        2.116973    0.753797    0.000000
 ---------------------------------------------------------------------

 SCF Done:  E(UB3LYP) =  -230.006080046     A.U. after   19 cycles

 The electronic state is 2-A".
 Alpha  occ. eigenvalues --  -18.95700 -10.03843  -9.98264  -9.98192  -9.96529
 Alpha  occ. eigenvalues --   -0.86497  -0.59424  -0.52150  -0.39836  -0.35038
 Alpha  occ. eigenvalues --   -0.32168  -0.25441  -0.21962  -0.19478  -0.19313
 Alpha  occ. eigenvalues --   -0.14885  -0.06077  -0.00992   0.06847
 Alpha virt. eigenvalues --    0.10627   0.12187   0.13575   0.14315   0.17921
 Alpha virt. eigenvalues --    0.18935   0.19410   0.20635   0.21201   0.22821
 Alpha virt. eigenvalues --    0.23254   0.24226   0.24302   0.25120   0.25948

  Beta  occ. eigenvalues --  -18.95588 -10.03836  -9.98362  -9.98089  -9.95289
  Beta  occ. eigenvalues --   -0.86101  -0.59197  -0.51334  -0.39375  -0.34196
  Beta  occ. eigenvalues --   -0.31757  -0.24305  -0.21201  -0.19302  -0.18468
  Beta  occ. eigenvalues --   -0.14531  -0.04825   0.00912
  Beta virt. eigenvalues --    0.10624   0.12189   0.13638   0.14387   0.17303
  Beta virt. eigenvalues --    0.18747   0.18964   0.19431   0.20824   0.21260
  Beta virt. eigenvalues --    0.22799   0.23250   0.24220   0.25114   0.25895

 Mulliken charges and spin densities:
               1          2
     1  C    0.016763  -0.062287
     2  C   -0.593693   1.034056
     3  O   -0.569839  -0.027899
     4  C    0.070951  -0.187193
     5  C   -0.156060   0.135423
     6  H    0.103872  -0.001078
     7  H    0.003607   0.056164
     8  H    0.003607   0.056164
     9  H    0.120791  -0.003350
 Sum of Mulliken charges =  -1.00000   1.00000

 Dipole moment (field-independent basis, Debye):
    X=              4.1044    Y=              3.7514    Z=             -0.0000  Tot=              5.5605
 Quadrupole moment (field-independent basis, Debye-Ang):
   XX=            -44.9037   YY=            -41.9782   ZZ=            -37.1921
   XY=             -5.6770   XZ=              0.0000   YZ=              0.0000

  Exact polarizability:  98.209   7.214  95.046  -0.000   0.000  68.621
 Approx polarizability: 134.340   0.471 121.021   0.000  -0.000  87.247

 ******    1 imaginary frequencies (negative Signs) ******

                      1                      2                      3
                     A"                     A"                     A'
 Frequencies --    -31.4456               493.7095               641.6546
 Red. masses --      2.9241                 2.7451                 7.1128
 Frc consts  --      0.0017                 0.3942                 1.7254
 IR Inten    --     22.4558                 8.6077                38.7706

                      4                      5                      6
                     A"                     A'                     A'
 Frequencies --    653.1641               751.4183               797.5756
 Red. masses --      1.1832                 8.4378                 6.3183
 Frc consts  --      0.2974                 2.8070                 2.3681
 IR Inten    --     33.5606                 7.5311                 4.5329

                      7                      8                      9
                     A"                     A"                     A'
 Frequencies --    859.2710               887.1591               895.6573
 Red. masses --      1.3902                 1.4301                 5.1607
 Frc consts  --      0.6048                 0.6631                 2.4392
 IR Inten    --      4.5496                 4.2107                14.8252

                     10                     11                     12
                     A'                     A"                     A'
 Frequencies --    941.1898              1065.1367              1068.1786
 Red. masses --      2.0621                 1.1530                 2.6150
 Frc consts  --      1.0763                 0.7707                 1.7579
 IR Inten    --     14.8303                 5.9498                27.2586

                     13                     14                     15
                     A'                     A'                     A'
 Frequencies --   1143.5010              1217.6166              1345.5264
 Red. masses --      1.5515                 1.5304                 1.7261
 Frc consts  --      1.1953                 1.3368                 1.8412
 IR Inten    --     46.1325                 4.1455                 2.9314

                     16                     17                     18
                     A'                     A'                     A"
 Frequencies --   1452.6547              1603.9064              2617.6511
 Red. masses --      1.1086                 4.7713                 1.1079
 Frc consts  --      1.3783                 7.2317                 4.4728
 IR Inten    --     29.0275               134.1216               310.1585

                     19                     20                     21
                     A'                     A'                     A'
 Frequencies --   2784.2210              3124.2950              3165.2309
 Red. masses --      1.0504                 1.0863                 1.0996
 Frc consts  --      4.7975                 6.2474                 6.4908
 IR Inten    --    443.7666                57.6043                97.0261

 - Thermochemistry -
 -------------------
 Temperature   298.150 Kelvin.  Pressure   1.00000 Atm.
 Atom     1 has atomic number  6 and mass  12.00000

 Molecular mass:    68.02621 amu.
 Principal axes and moments of inertia in atomic units:
                           1         2         3
     Eigenvalues --   198.95142 220.24503 408.20351
           X           -0.70536   0.70885   0.00000
           Y            0.70885   0.70536   0.00000
           Z           -0.00000   0.00000   1.00000
 This molecule is an asymmetric top.
 Rotational symmetry number  1.
 Rotational temperatures (Kelvin)      0.43535     0.39326     0.21218
 Rotational constants (GHZ):           9.07127     8.19424     4.42118
    1 imaginary frequencies ignored.
 Zero-point vibrational energy     164538.7 (Joules/Mol)
                                   39.32569 (Kcal/Mol)
 Warning -- explicit consideration of   1 degrees of freedom as
           vibrations may cause significant error
 Vibrational temperatures:    710.34   923.20   939.76  1081.12  1147.53
          (Kelvin)           1236.30  1276.42  1288.65  1354.16  1532.49
                             1536.87  1645.24  1751.88  1935.91  2090.04
                             2307.66  3766.21  4005.87  4495.16  4554.06

 Zero-point correction=                           0.062669 (Hartree/Particle)
 Thermal correction to Energy=                    0.066508
 Thermal correction to Enthalpy=                  0.067452
 Thermal correction to Gibbs Free Energy=         0.035582
 Sum of electronic and zero-point Energies=           -229.943411
 Sum of electronic and thermal Energies=              -229.939572
 Sum of electronic and thermal Enthalpies=            -229.938628
 Sum of electronic and thermal Free Energies=         -229.970498

                     E (Thermal)             CV                S
                      KCal/Mol        Cal/Mol-Kelvin    Cal/Mol-Kelvin
 Total                   41.734             13.836             67.076
 Electronic               0.000              0.000              1.377
 Translational            0.889              2.981             38.570
 Rotational               0.889              2.981             24.396
 Vibrational             39.957              7.874              2.734
 Vibration     1          0.849              1.264              0.674

 Optimization completed.
    -- Stationary point found.
 Normal termination of Gaussian 09 at Thu Mar  7 12:30:47 2019.
