 Gaussian 09, Revision E.01,
 Gaussian 09:  EM64L-G09RevE.01 30-Nov-2015

 ------------------------------------------------------
 #p b3lyp/6-311++G(3df,2p) freq IOp(2/17=3) IOp(2/18=3)
 ------------------------------------------------------

 ---------
 b3lyp opt
 ---------
 Symbolic Z-matrix:
 Charge = -1 Multiplicity = 4

                         Standard orientation:
 ---------------------------------------------------------------------
 Center     Atomic      Atomic             Coordinates (Angstroms)
 Number     Number       Type             X           Y           Z
 ---------------------------------------------------------------------
      1          8           0       -1.111743    1.148705    0.000000
      2          6           0       -0.000000    0.371634    0.000000
      3          6           0        1.334907    1.049334    0.000000
      4          6           0       -0.130113   -0.978603    0.000000
      5          6           0       -0.149731   -2.209843    0.000000
      6          1           0        1.394992    2.126709    0.000000
      7          1           0        2.240049    0.457452    0.000000
      8          1           0       -0.875520    2.100187    0.000000
      9          1           0       -0.195961   -3.269114    0.000000
 ---------------------------------------------------------------------

 SCF Done:  E(UB3LYP) =  -229.928523615     A.U. after   27 cycles

 The electronic state is 4-A'.
 Alpha  occ. eigenvalues --  -19.04495 -10.13014 -10.07603 -10.05840 -10.05456
 Alpha  occ. eigenvalues --   -0.95065  -0.67688  -0.61229  -0.54198  -0.43697
 Alpha  occ. eigenvalues --   -0.39639  -0.37388  -0.31115  -0.31079  -0.25561
 Alpha  occ. eigenvalues --   -0.19991  -0.16913  -0.14660  -0.01707   0.05392
 Alpha virt. eigenvalues --    0.07697   0.09752   0.10753   0.12882   0.15326
 Alpha virt. eigenvalues --    0.15485   0.16645   0.17638   0.18126   0.19582
 Alpha virt. eigenvalues --    0.20267   0.20551   0.22245   0.22369   0.22644

  Beta  occ. eigenvalues --  -19.03904 -10.12216 -10.06181 -10.05637 -10.05046
  Beta  occ. eigenvalues --   -0.93764  -0.65906  -0.58529  -0.51796  -0.42838
  Beta  occ. eigenvalues --   -0.38734  -0.36269  -0.30090  -0.26946  -0.24696
  Beta  occ. eigenvalues --   -0.16411  -0.16397
  Beta virt. eigenvalues --   -0.01134   0.08111   0.09465   0.09745   0.11349
  Beta virt. eigenvalues --    0.11746   0.13715   0.16065   0.16650   0.17993
  Beta virt. eigenvalues --    0.18400   0.19020   0.20282   0.20787   0.21218

 Mulliken charges and spin densities:
               1          2
     1  O   -0.660287   0.205667
     2  C   -2.947311   3.708750
     3  C    0.724828  -0.149042
     4  C    8.015603  -8.292791
     5  C   -3.022934   3.551879
     6  H   -0.712292   0.847454
     7  H   -0.608083   0.746630
     8  H   -1.074189   1.392367
     9  H   -0.715335   0.989085
 Sum of Mulliken charges =  -1.00000   3.00000

 Dipole moment (field-independent basis, Debye):
    X=             -0.3919    Y=             -5.1586    Z=              0.0000  Tot=              5.1735
 Quadrupole moment (field-independent basis, Debye-Ang):
   XX=            -56.4011   YY=            -81.6291   ZZ=            -47.9623
   XY=              3.2639   XZ=              0.0000   YZ=              0.0000

  Exact polarizability: 999.337 240.4823277.766  -0.038  -0.246 169.400
 Approx polarizability: 769.707-301.5302625.845  -0.000  -0.000 169.632

 ******    2 imaginary frequencies (negative Signs) ******

                      1                      2                      3
                     A"                     A"                     A'
 Frequencies --   -330.3321              -291.1512               148.0312
 Red. masses --      1.1035                 1.2427                 3.7007
 Frc consts  --      0.0709                 0.0621                 0.0478
 IR Inten    --     37.8369                 0.6526                 4.0028

                      4                      5                      6
                     A"                     A"                     A"
 Frequencies --    224.2855               313.6828               348.6740
 Red. masses --      1.6901                 2.3079                 1.1239
 Frc consts  --      0.0501                 0.1338                 0.0805
 IR Inten    --      1.9978                 0.2527               509.2862

                      7                      8                      9
                     A'                     ?A                     ?A
 Frequencies --    403.4304               535.6556               580.7228
 Red. masses --      2.9473                 6.1413                 5.9347
 Frc consts  --      0.2826                 1.0382                 1.1792
 IR Inten    --     76.9115                14.4467                49.7255

                     10                     11                     12
                     A'                     A'                     A'
 Frequencies --    689.2374               770.5230               958.1143
 Red. masses --      1.2862                 5.8121                 1.4643
 Frc consts  --      0.3600                 2.0331                 0.7920
 IR Inten    --    456.7379                37.4505               104.6417

                     13                     14                     15
                     A'                     A'                     A'
 Frequencies --   1152.7441              1275.9928              1424.8136
 Red. masses --      1.4271                 6.3927                 1.1885
 Frc consts  --      1.1173                 6.1324                 1.4216
 IR Inten    --   1886.0080              1947.7174               192.4455

                     16                     17                     18
                     A'                     A'                     A'
 Frequencies --   1453.4292              1974.7177              3111.5687
 Red. masses --      3.0056                 7.4917                 1.0522
 Frc consts  --      3.7409                17.2124                 6.0023
 IR Inten    --    629.3223               185.3518               307.1802

                     19                     20                     21
                     A'                     A'                     A'
 Frequencies --   3238.7991              3350.8930              3456.3267
 Red. masses --      1.1200                 1.0684                 1.1280
 Frc consts  --      6.9223                 7.0680                 7.9394
 IR Inten    --   1367.5551             18458.8569               905.3380

 - Thermochemistry -
 -------------------
 Temperature   298.150 Kelvin.  Pressure   1.00000 Atm.
 Atom     1 has atomic number  8 and mass  15.99491

 Molecular mass:    68.02621 amu.
 Principal axes and moments of inertia in atomic units:
                           1         2         3
     Eigenvalues --   175.26709 451.04446 626.31154
           X            0.06024   0.99818   0.00000
           Y            0.99818  -0.06024   0.00000
           Z            0.00000  -0.00000   1.00000
 This molecule is an asymmetric top.
 Rotational symmetry number  1.
 Rotational temperatures (Kelvin)      0.49418     0.19203     0.13829
 Rotational constants (GHZ):          10.29709     4.00125     2.88154
    2 imaginary frequencies ignored.
 Zero-point vibrational energy     151995.4 (Joules/Mol)
                                   36.32777 (Kcal/Mol)
 Warning -- explicit consideration of   7 degrees of freedom as
           vibrations may cause significant error
 Vibrational temperatures:    212.98   322.70   451.32   501.66   580.45
          (Kelvin)            770.69   835.53   991.66  1108.61  1378.51
                             1658.54  1835.87  2049.99  2091.16  2841.17
                             4476.85  4659.90  4821.18  4972.88

 Zero-point correction=                           0.057892 (Hartree/Particle)
 Thermal correction to Energy=                    0.063631
 Thermal correction to Enthalpy=                  0.064575
 Thermal correction to Gibbs Free Energy=         0.028155
 Sum of electronic and zero-point Energies=           -229.870632
 Sum of electronic and thermal Energies=              -229.864893
 Sum of electronic and thermal Enthalpies=            -229.863949
 Sum of electronic and thermal Free Energies=         -229.900369

                     E (Thermal)             CV                S
                      KCal/Mol        Cal/Mol-Kelvin    Cal/Mol-Kelvin
 Total                   39.929             19.176             76.652
 Electronic               0.000              0.000              2.755
 Translational            0.889              2.981             38.570
 Rotational               0.889              2.981             25.407
 Vibrational             38.151             13.214              9.920
 Vibration     1          0.617              1.905              2.697
 Vibration     2          0.649              1.804              1.924
 Vibration     3          0.702              1.648              1.343
 Vibration     4          0.726              1.578              1.172
 Vibration     5          0.769              1.463              0.950
 Vibration     6          0.891              1.171              0.575
 Vibration     7          0.937              1.073              0.484

 Normal termination of Gaussian 09 at Thu Mar  7 21:57:45 2019.
