 Gaussian 09, Revision E.01,
 Gaussian 09:  EM64L-G09RevE.01 30-Nov-2015

 ------------------------------------------------------
 #p b3lyp/6-311++G(3df,2p) freq IOp(2/17=3) IOp(2/18=3)
 ------------------------------------------------------

 ---------
 b3lyp opt
 ---------
 Symbolic Z-matrix:
 Charge = -1 Multiplicity = 4

                         Standard orientation:
 ---------------------------------------------------------------------
 Center     Atomic      Atomic             Coordinates (Angstroms)
 Number     Number       Type             X           Y           Z
 ---------------------------------------------------------------------
      1          8           0       -1.110369    1.150401    0.000000
      2          6           0        0.000000    0.371868    0.000000
      3          6           0        1.336448    1.047318    0.000000
      4          6           0       -0.131483   -0.978408    0.000000
      5          6           0       -0.152120   -2.209658    0.000000
      6          1           0        1.398497    2.124534    0.000000
      7          1           0        2.239846    0.452787    0.000000
      8          1           0       -0.872950    2.101636    0.000000
      9          1           0       -0.199515   -3.268879    0.000000
 ---------------------------------------------------------------------

 SCF Done:  E(UB3LYP) =  -229.928524053     A.U. after   27 cycles

 The electronic state is 4-A'.
 Alpha  occ. eigenvalues --  -19.04495 -10.13014 -10.07602 -10.05838 -10.05455
 Alpha  occ. eigenvalues --   -0.95071  -0.67682  -0.61222  -0.54194  -0.43701
 Alpha  occ. eigenvalues --   -0.39637  -0.37381  -0.31116  -0.31084  -0.25554
 Alpha  occ. eigenvalues --   -0.19988  -0.16910  -0.14655  -0.01705   0.05393
 Alpha virt. eigenvalues --    0.07698   0.09755   0.10753   0.12884   0.15325
 Alpha virt. eigenvalues --    0.15485   0.16647   0.17643   0.18126   0.19582
 Alpha virt. eigenvalues --    0.20267   0.20550   0.22247   0.22368   0.22643

  Beta  occ. eigenvalues --  -19.03904 -10.12216 -10.06180 -10.05637 -10.05044
  Beta  occ. eigenvalues --   -0.93771  -0.65901  -0.58522  -0.51792  -0.42841
  Beta  occ. eigenvalues --   -0.38732  -0.36261  -0.30095  -0.26948  -0.24688
  Beta  occ. eigenvalues --   -0.16408  -0.16395
  Beta virt. eigenvalues --   -0.01128   0.08112   0.09466   0.09747   0.11351
  Beta virt. eigenvalues --    0.11746   0.13717   0.16065   0.16651   0.17997
  Beta virt. eigenvalues --    0.18402   0.19021   0.20281   0.20787   0.21217

 Mulliken charges and spin densities:
               1          2
     1  O   -0.660057   0.205526
     2  C   -2.947650   3.709693
     3  C    0.726642  -0.150562
     4  C    8.006682  -8.284162
     5  C   -3.017352   3.545476
     6  H   -0.713190   0.848500
     7  H   -0.605846   0.744307
     8  H   -1.075350   1.393629
     9  H   -0.713879   0.987593
 Sum of Mulliken charges =  -1.00000   3.00000

 Dipole moment (field-independent basis, Debye):
    X=             -0.3923    Y=             -5.1658    Z=              0.0000  Tot=              5.1807
 Quadrupole moment (field-independent basis, Debye-Ang):
   XX=            -56.3727   YY=            -81.6412   ZZ=            -47.9584
   XY=              3.2409   XZ=              0.0000   YZ=              0.0000

  Exact polarizability:1010.431 271.7893351.876   2.087   9.423 169.169
 Approx polarizability: 768.072-299.5042623.968  -0.000  -0.000 169.590

 ******    2 imaginary frequencies (negative Signs) ******

                      1                      2                      3
                     A"                     A"                     A"
 Frequencies --   -329.8094              -291.5669               132.2975
 Red. masses --      1.1055                 1.2438                 3.6814
 Frc consts  --      0.0708                 0.0623                 0.0380
 IR Inten    --     39.5281                 3.1080                32.5185

                      4                      5                      6
                     A"                     A"                     A"
 Frequencies --    223.5328               315.9081               349.7414
 Red. masses --      1.6654                 2.3042                 1.1324
 Frc consts  --      0.0490                 0.1355                 0.0816
 IR Inten    --      8.2197                50.7909               538.9737

                      7                      8                      9
                     A"                     A"                     A"
 Frequencies --    401.6831               536.7568               577.7355
 Red. masses --      2.9178                 6.1497                 5.7699
 Frc consts  --      0.2774                 1.0439                 1.1347
 IR Inten    --     92.4612               210.4134                10.9472

                     10                     11                     12
                     A"                     A"                     A"
 Frequencies --    688.4721               770.4293               957.9919
 Red. masses --      1.3023                 5.8109                 1.4637
 Frc consts  --      0.3637                 2.0321                 0.7915
 IR Inten    --    516.0311                32.6625                87.3774

                     13                     14                     15
                     A'                     A'                     A"
 Frequencies --   1152.2483              1275.8184              1424.1624
 Red. masses --      1.4276                 6.4193                 1.1852
 Frc consts  --      1.1168                 6.1562                 1.4164
 IR Inten    --   1945.5696              2182.0916               192.9460

                     16                     17                     18
                     A"                     A"                     A'
 Frequencies --   1452.8713              1977.3979              3111.6304
 Red. masses --      3.0221                 7.4914                 1.0522
 Frc consts  --      3.7585                17.2583                 6.0022
 IR Inten    --    688.2790               105.8378               314.0232

                     19                     20                     21
                     A'                     A'                     A"
 Frequencies --   3239.3255              3348.4657              3455.4388
 Red. masses --      1.1200                 1.0682                 1.1284
 Frc consts  --      6.9245                 7.0563                 7.9378
 IR Inten    --   1387.1483             19901.6375               803.7307

 - Thermochemistry -
 -------------------
 Temperature   298.150 Kelvin.  Pressure   1.00000 Atm.
 Atom     1 has atomic number  8 and mass  15.99491

 Molecular mass:    68.02621 amu.
 Principal axes and moments of inertia in atomic units:
                           1         2         3
     Eigenvalues --   175.30466 451.04183 626.34649
           X            0.06117   0.99813   0.00000
           Y            0.99813  -0.06117   0.00000
           Z            0.00000  -0.00000   1.00000
 This molecule is an asymmetric top.
 Rotational symmetry number  1.
 Rotational temperatures (Kelvin)      0.49408     0.19203     0.13828
 Rotational constants (GHZ):          10.29488     4.00127     2.88138
    2 imaginary frequencies ignored.
 Zero-point vibrational energy     151877.3 (Joules/Mol)
                                   36.29955 (Kcal/Mol)
 Warning -- explicit consideration of   7 degrees of freedom as
           vibrations may cause significant error
 Vibrational temperatures:    190.35   321.61   454.52   503.20   577.93
          (Kelvin)            772.27   831.23   990.56  1108.47  1378.33
                             1657.83  1835.62  2049.05  2090.36  2845.03
                             4476.94  4660.66  4817.69  4971.60

 Zero-point correction=                           0.057847 (Hartree/Particle)
 Thermal correction to Energy=                    0.063614
 Thermal correction to Enthalpy=                  0.064558
 Thermal correction to Gibbs Free Energy=         0.028036
 Sum of electronic and zero-point Energies=           -229.870677
 Sum of electronic and thermal Energies=              -229.864910
 Sum of electronic and thermal Enthalpies=            -229.863966
 Sum of electronic and thermal Free Energies=         -229.900488

                     E (Thermal)             CV                S
                      KCal/Mol        Cal/Mol-Kelvin    Cal/Mol-Kelvin
 Total                   39.918             19.197             76.868
 Electronic               0.000              0.000              2.755
 Translational            0.889              2.981             38.570
 Rotational               0.889              2.981             25.408
 Vibrational             38.141             13.235             10.136
 Vibration     1          0.612              1.921              2.912
 Vibration     2          0.649              1.805              1.930
 Vibration     3          0.703              1.643              1.331
 Vibration     4          0.727              1.576              1.167
 Vibration     5          0.767              1.466              0.956
 Vibration     6          0.892              1.169              0.572
 Vibration     7          0.934              1.079              0.490

 Normal termination of Gaussian 09 at Fri Mar  8 01:38:14 2019.
