 Gaussian 09, Revision E.01,
 Gaussian 09:  EM64L-G09RevE.01 30-Nov-2015

 ------------------------------------------------------
 #p b3lyp/6-311++G(3df,2p) freq IOp(2/17=3) IOp(2/18=3)
 ------------------------------------------------------

 ---------
 b3lyp opt
 ---------
 Symbolic Z-matrix:
 Charge = -1 Multiplicity = 4

                         Standard orientation:
 ---------------------------------------------------------------------
 Center     Atomic      Atomic             Coordinates (Angstroms)
 Number     Number       Type             X           Y           Z
 ---------------------------------------------------------------------
      1          6           0        2.251862   -0.460404   -0.084856
      2          6           0       -1.294390    0.196641   -0.394892
      3          8           0       -1.714062   -0.890717    0.171664
      4          6           0       -0.026392    0.863539    0.193965
      5          6           0        1.195561    0.104685    0.019870
      6          1           0        3.195073   -0.942083   -0.178562
      7          1           0       -2.104125    0.933645   -0.548515
      8          1           0        0.055756    1.834814   -0.310895
      9          1           0       -0.194045    1.072595    1.260132
 ---------------------------------------------------------------------

 SCF Done:  E(UB3LYP) =  -229.916719854     A.U. after   33 cycles

 The electronic state is 4-A.
 Alpha  occ. eigenvalues --  -19.08696 -10.11462 -10.10094 -10.06456 -10.05166
 Alpha  occ. eigenvalues --   -0.96261  -0.68944  -0.61364  -0.50570  -0.41981
 Alpha  occ. eigenvalues --   -0.39562  -0.36619  -0.35540  -0.32224  -0.28998
 Alpha  occ. eigenvalues --   -0.23878  -0.16622  -0.16433  -0.06950   0.05383
 Alpha virt. eigenvalues --    0.07437   0.09910   0.10456   0.13131   0.13914
 Alpha virt. eigenvalues --    0.14150   0.16434   0.17051   0.17315   0.17971
 Alpha virt. eigenvalues --    0.18651   0.19655   0.20805   0.21749   0.22865

  Beta  occ. eigenvalues --  -19.05932 -10.10239 -10.09791 -10.06430 -10.05062
  Beta  occ. eigenvalues --   -0.90330  -0.67915  -0.60352  -0.47068  -0.41291
  Beta  occ. eigenvalues --   -0.36451  -0.34159  -0.32235  -0.30150  -0.23983
  Beta  occ. eigenvalues --   -0.16661  -0.16244
  Beta virt. eigenvalues --   -0.05969   0.07047   0.08728   0.09634   0.11206
  Beta virt. eigenvalues --    0.11589   0.13545   0.14201   0.15034   0.17231
  Beta virt. eigenvalues --    0.17737   0.18366   0.18404   0.18997   0.20062

 Mulliken charges and spin densities:
               1          2
     1  C   -8.006880   8.395713
     2  C    1.149749  -0.407915
     3  O   -0.456786   1.032161
     4  C    3.522277  -3.902135
     5  C    6.606085  -6.957921
     6  H   -1.905867   2.213508
     7  H   -0.966882   1.276652
     8  H   -0.466119   0.657703
     9  H   -0.475577   0.692235
 Sum of Mulliken charges =  -1.00000   3.00000

 Dipole moment (field-independent basis, Debye):
    X=             -2.3390    Y=             -2.8211    Z=              0.3700  Tot=              3.6832
 Quadrupole moment (field-independent basis, Debye-Ang):
   XX=            -81.2250   YY=            -62.4849   ZZ=            -52.7552
   XY=             10.1019   XZ=             -0.4333   YZ=              1.4459

  Exact polarizability:2743.674********1215.933 -54.370   9.794 852.101
 Approx polarizability:3400.846********1309.341  39.965 -50.385 540.269

 ******    2 imaginary frequencies (negative Signs) ******

                      1                      2                      3
                      A                      A                      A
 Frequencies --   -243.2842               -43.1923               252.1895
 Red. masses --      4.0397                 3.1262                 2.5796
 Frc consts  --      0.1409                 0.0034                 0.0967
 IR Inten    --     31.9444               119.4357                55.2046

                      4                      5                      6
                      A                      A                      A
 Frequencies --    308.1552               488.3664               657.9280
 Red. masses --      4.4759                 3.0712                 1.8411
 Frc consts  --      0.2504                 0.4316                 0.4696
 IR Inten    --      7.2985                33.6924               109.8658

                      7                      8                      9
                      A                      A                      A
 Frequencies --    699.2992               732.1776               800.5385
 Red. masses --      1.2655                 1.3170                 6.9898
 Frc consts  --      0.3646                 0.4160                 2.6392
 IR Inten    --    507.6139               972.2885               111.5446

                     10                     11                     12
                      A                      A                      A
 Frequencies --    866.2512               955.9405              1097.1403
 Red. masses --      1.7619                 2.9377                 1.1955
 Frc consts  --      0.7790                 1.5817                 0.8479
 IR Inten    --     45.7165               241.5004               193.0770

                     13                     14                     15
                      A                      A                      A
 Frequencies --   1170.2693              1259.0011              1331.9873
 Red. masses --      1.2705                 1.7411                 2.0195
 Frc consts  --      1.0251                 1.6261                 2.1111
 IR Inten    --     48.7214               285.3082               141.2237

                     16                     17                     18
                      A                      A                      A
 Frequencies --   1425.0203              2169.0953              2856.4873
 Red. masses --      1.1261                 6.0793                 1.0721
 Frc consts  --      1.3474                16.8523                 5.1541
 IR Inten    --    600.9660                58.3082               899.4585

                     19                     20                     21
                      A                      A                      A
 Frequencies --   2928.1682              2954.4933              3424.9275
 Red. masses --      1.0572                 1.1025                 1.1564
 Frc consts  --      5.3408                 5.6699                 7.9919
 IR Inten    --    416.7233              1093.0330              4250.1911

 - Thermochemistry -
 -------------------
 Temperature   298.150 Kelvin.  Pressure   1.00000 Atm.
 Atom     1 has atomic number  6 and mass  12.00000

 Molecular mass:    68.02621 amu.
 Principal axes and moments of inertia in atomic units:
                           1         2         3
     Eigenvalues --   127.50647 589.19733 681.63752
           X            0.99925  -0.03869   0.00153
           Y            0.03866   0.99911   0.01667
           Z           -0.00218  -0.01660   0.99986
 This molecule is an asymmetric top.
 Rotational symmetry number  1.
 Rotational temperatures (Kelvin)      0.67929     0.14700     0.12707
 Rotational constants (GHZ):          14.15412     3.06305     2.64766
    2 imaginary frequencies ignored.
 Zero-point vibrational energy     157772.1 (Joules/Mol)
                                   37.70844 (Kcal/Mol)
 Warning -- explicit consideration of   3 degrees of freedom as
           vibrations may cause significant error
 Vibrational temperatures:    362.84   443.37   702.65   946.61  1006.13
          (Kelvin)           1053.44  1151.79  1246.34  1375.38  1578.54
                             1683.75  1811.42  1916.43  2050.28  3120.84
                             4109.84  4212.98  4250.85  4927.70

 Zero-point correction=                           0.060092 (Hartree/Particle)
 Thermal correction to Energy=                    0.064653
 Thermal correction to Enthalpy=                  0.065597
 Thermal correction to Gibbs Free Energy=         0.031321
 Sum of electronic and zero-point Energies=           -229.856628
 Sum of electronic and thermal Energies=              -229.852067
 Sum of electronic and thermal Enthalpies=            -229.851123
 Sum of electronic and thermal Free Energies=         -229.885399

                     E (Thermal)             CV                S
                      KCal/Mol        Cal/Mol-Kelvin    Cal/Mol-Kelvin
 Total                   40.570             15.706             72.139
 Electronic               0.000              0.000              2.755
 Translational            0.889              2.981             38.570
 Rotational               0.889              2.981             25.441
 Vibrational             38.793              9.744              5.374
 Vibration     1          0.664              1.759              1.715
 Vibration     2          0.698              1.658              1.372
 Vibration     3          0.844              1.276              0.688

 Normal termination of Gaussian 09 at Fri Mar  8 02:41:18 2019.
