 Gaussian 09, Revision E.01,
 Gaussian 09:  EM64L-G09RevE.01 30-Nov-2015

 ------------------------------------------------------
 #p b3lyp/6-311++G(3df,2p) freq IOp(2/17=3) IOp(2/18=3)
 ------------------------------------------------------

 ---------
 b3lyp opt
 ---------
 Symbolic Z-matrix:
 Charge = -1 Multiplicity = 4

                         Standard orientation:
 ---------------------------------------------------------------------
 Center     Atomic      Atomic             Coordinates (Angstroms)
 Number     Number       Type             X           Y           Z
 ---------------------------------------------------------------------
      1          6           0        0.000000    1.110546    0.370860
      2          6           0       -0.000000   -1.110546    0.370860
      3          8           0        0.000000    0.000000    1.231985
      4          6           0        0.000000   -0.671202   -1.018820
      5          6           0        0.000000    0.671202   -1.018820
      6          1           0        0.000000    2.083758    0.829220
      7          1           0       -0.000000   -2.083758    0.829220
      8          1           0        0.000000   -1.335671   -1.869397
      9          1           0        0.000000    1.335671   -1.869397
 ---------------------------------------------------------------------

 SCF Done:  E(UB3LYP) =  -229.955227168     A.U. after   18 cycles

 The electronic state is 4-B2.
 Alpha  occ. eigenvalues --  -19.04451 -10.11378 -10.11375 -10.06254 -10.06180
 Alpha  occ. eigenvalues --   -0.96162  -0.69212  -0.61705  -0.47352  -0.46611
 Alpha  occ. eigenvalues --   -0.41850  -0.33350  -0.32606  -0.30058  -0.27945
 Alpha  occ. eigenvalues --   -0.25434  -0.19034  -0.14548   0.00860   0.05698
 Alpha virt. eigenvalues --    0.07880   0.08868   0.10297   0.14287   0.14471
 Alpha virt. eigenvalues --    0.15294   0.17525   0.18363   0.18551   0.19028
 Alpha virt. eigenvalues --    0.19795   0.20584   0.21415   0.21613   0.21664

  Beta  occ. eigenvalues --  -19.03833 -10.10072 -10.10070 -10.06059 -10.05985
  Beta  occ. eigenvalues --   -0.94678  -0.68033  -0.58648  -0.45806  -0.44841
  Beta  occ. eigenvalues --   -0.41147  -0.31659  -0.29664  -0.28247  -0.27077
  Beta  occ. eigenvalues --   -0.24671  -0.15980
  Beta virt. eigenvalues --   -0.01004   0.08985   0.09827   0.10500   0.11885
  Beta virt. eigenvalues --    0.12571   0.14733   0.16679   0.17451   0.17993
  Beta virt. eigenvalues --    0.18934   0.19595   0.20349   0.20422   0.21178

 Mulliken charges and spin densities:
               1          2
     1  C    0.803381   0.043235
     2  C    0.803381   0.043235
     3  O   -0.631286   0.107692
     4  C    0.855329  -0.788727
     5  C    0.855329  -0.788727
     6  H   -0.820851   0.994743
     7  H   -0.820851   0.994743
     8  H   -1.022217   1.196903
     9  H   -1.022217   1.196903
 Sum of Mulliken charges =  -1.00000   3.00000

 Dipole moment (field-independent basis, Debye):
    X=             -0.0000    Y=             -0.0000    Z=              3.3794  Tot=              3.3794
 Quadrupole moment (field-independent basis, Debye-Ang):
   XX=            -50.1852   YY=            -75.4165   ZZ=            -66.7833
   XY=             -0.0000   XZ=              0.0000   YZ=             -0.0000

  Exact polarizability: 205.804   0.0003301.263   0.000  -0.0002006.080
 Approx polarizability: 198.461   0.0003418.601  -0.000  -0.0001457.073

 ******    2 imaginary frequencies (negative Signs) ******

                      1                      2                      3
                     B1                     A2                     B1
 Frequencies --   -470.5830              -280.3406                98.4637
 Red. masses --      1.3422                 1.2253                 3.3630
 Frc consts  --      0.1751                 0.0567                 0.0192
 IR Inten    --    367.8469                 0.0000                13.2637

                      4                      5                      6
                     A2                     B1                     B2
 Frequencies --    472.2903               673.5386               695.2693
 Red. masses --      3.8829                 1.1967                 3.0622
 Frc consts  --      0.5103                 0.3199                 0.8721
 IR Inten    --      0.0000               970.4712               438.1008

                      7                      8                      9
                     A1                     B2                     A2
 Frequencies --    762.1159               770.3720               895.1935
 Red. masses --      7.1537                 7.6565                 1.2797
 Frc consts  --      2.4481                 2.6772                 0.6042
 IR Inten    --    205.5848                 2.2772                 0.0000

                     10                     11                     12
                     A1                     B2                     A1
 Frequencies --    982.1984              1032.0903              1049.8140
 Red. masses --      2.6257                 7.3307                 1.6687
 Frc consts  --      1.4924                 4.6008                 1.0836
 IR Inten    --    154.0624              1241.6599                 0.4543

                     13                     14                     15
                     A1                     B2                     B2
 Frequencies --   1114.4211              1248.4287              1294.8769
 Red. masses --      1.5721                 1.2145                 1.3708
 Frc consts  --      1.1504                 1.1152                 1.3542
 IR Inten    --    177.4668                 2.1239                70.2441

                     16                     17                     18
                     A1                     A1                     B2
 Frequencies --   1380.0810              1590.3444              3187.4900
 Red. masses --      2.0526                 5.7743                 1.0866
 Frc consts  --      2.3034                 8.6047                 6.5044
 IR Inten    --      6.2673                22.3638                14.7323

                     19                     20                     21
                     A1                     A1                     B2
 Frequencies --   3195.2370              3237.3119              3238.6666
 Red. masses --      1.1043                 1.0982                 1.0878
 Frc consts  --      6.6427                 6.7809                 6.7223
 IR Inten    --     59.0717               187.3275                 9.1916

 - Thermochemistry -
 -------------------
 Temperature   298.150 Kelvin.  Pressure   1.00000 Atm.
 Atom     1 has atomic number  6 and mass  12.00000

 Molecular mass:    68.02621 amu.
 Principal axes and moments of inertia in atomic units:
                           1         2         3
     Eigenvalues --   188.40864 217.32547 405.73411
           X            0.00000   0.00000   1.00000
           Y            0.00000   1.00000  -0.00000
           Z            1.00000  -0.00000  -0.00000
 This molecule is an asymmetric top.
 Rotational symmetry number  2.
 Rotational temperatures (Kelvin)      0.45971     0.39854     0.21347
 Rotational constants (GHZ):           9.57887     8.30432     4.44809
    2 imaginary frequencies ignored.
 Zero-point vibrational energy     161006.6 (Joules/Mol)
                                   38.48150 (Kcal/Mol)
 Warning -- explicit consideration of   2 degrees of freedom as
           vibrations may cause significant error
 Vibrational temperatures:    141.67   679.52   969.07  1000.34  1096.51
          (Kelvin)           1108.39  1287.98  1413.16  1484.95  1510.45
                             1603.40  1796.21  1863.04  1985.63  2288.15
                             4586.08  4597.23  4657.76  4659.71

 Zero-point correction=                           0.061324 (Hartree/Particle)
 Thermal correction to Energy=                    0.065773
 Thermal correction to Enthalpy=                  0.066717
 Thermal correction to Gibbs Free Energy=         0.033383
 Sum of electronic and zero-point Energies=           -229.893903
 Sum of electronic and thermal Energies=              -229.889454
 Sum of electronic and thermal Enthalpies=            -229.888510
 Sum of electronic and thermal Free Energies=         -229.921844

                     E (Thermal)             CV                S
                      KCal/Mol        Cal/Mol-Kelvin    Cal/Mol-Kelvin
 Total                   41.273             14.693             70.159
 Electronic               0.000              0.000              2.755
 Translational            0.889              2.981             38.570
 Rotational               0.889              2.981             22.945
 Vibrational             39.496              8.731              5.889
 Vibration     1          0.604              1.950              3.485
 Vibration     2          0.829              1.312              0.731

 Optimization completed.
    -- Stationary point found.
 Normal termination of Gaussian 09 at Fri Mar  8 00:31:23 2019.
