 Gaussian 09, Revision E.01,
 Gaussian 09:  EM64L-G09RevE.01 30-Nov-2015

 ------------------------------------------------------
 #p b3lyp/6-311++G(3df,2p) freq IOp(2/17=3) IOp(2/18=3)
 ------------------------------------------------------

 ---------
 b3lyp opt
 ---------
 Symbolic Z-matrix:
 Charge = -1 Multiplicity = 2

                         Standard orientation:
 ---------------------------------------------------------------------
 Center     Atomic      Atomic             Coordinates (Angstroms)
 Number     Number       Type             X           Y           Z
 ---------------------------------------------------------------------
      1          6           0       -0.050087   -0.664540    0.000000
      2          1           0       -0.565089   -1.040430    0.889437
      3          1           0       -0.565089   -1.040430   -0.889437
      4          1           0        0.866978    1.062934   -0.000000
      5          1           0        0.965230   -1.071567    0.000000
      6          8           0       -0.050087    0.759594   -0.000000
 ---------------------------------------------------------------------

 SCF Done:  E(UB3LYP) =  -115.748767737     A.U. after   16 cycles

 The electronic state is 2-A'.
 Alpha  occ. eigenvalues --  -18.97559 -10.05876  -0.87113  -0.53529  -0.36236
 Alpha  occ. eigenvalues --   -0.29300  -0.28209  -0.19284  -0.13380   0.06372
 Alpha virt. eigenvalues --    0.10323   0.12099   0.12340   0.17375   0.20353
 Alpha virt. eigenvalues --    0.20753   0.22580   0.26025   0.30365   0.30383
 Alpha virt. eigenvalues --    0.30975   0.33608   0.34926   0.37781   0.39251

  Beta  occ. eigenvalues --  -18.97502 -10.05792  -0.87001  -0.53306  -0.36024
  Beta  occ. eigenvalues --   -0.29232  -0.28107  -0.19193  -0.13312
  Beta virt. eigenvalues --    0.10088   0.12139   0.13335   0.14190   0.18038
  Beta virt. eigenvalues --    0.20854   0.20879   0.22824   0.26582   0.30594
  Beta virt. eigenvalues --    0.30684   0.31127   0.33441   0.35387   0.37915

 Mulliken charges and spin densities:
               1          2
     1  C    3.440436  -3.458532
     2  H   -0.826324   0.932549
     3  H   -0.826324   0.932549
     4  H   -0.483863   0.735817
     5  H   -1.442761   1.579533
     6  O   -0.861163   0.278083
 Sum of Mulliken charges =  -1.00000   1.00000

 Dipole moment (field-independent basis, Debye):
    X=             -3.0701    Y=              1.9716    Z=              0.0000  Tot=              3.6487
 Quadrupole moment (field-independent basis, Debye-Ang):
   XX=            -40.4993   YY=            -40.1891   ZZ=            -34.0636
   XY=              0.2514   XZ=             -0.0000   YZ=              0.0000

  Exact polarizability: 822.305 252.597 858.316   0.000   0.000 649.506
 Approx polarizability: 651.448 248.898 717.066   0.000  -0.000 390.750

 ******    1 imaginary frequencies (negative Signs) ******

                      1                      2                      3
                     A"                     A'                     A'
 Frequencies --   -232.0095              1029.1634              1096.0770
 Red. masses --      1.0851                 6.5588                 1.1354
 Frc consts  --      0.0344                 4.0930                 0.8037
 IR Inten    --    171.7085               332.6253                91.8803

                      4                      5                      6
                     A"                     A'                     A'
 Frequencies --   1182.6193              1357.0393              1473.5740
 Red. masses --      1.2565                 1.2718                 1.1330
 Frc consts  --      1.0354                 1.3799                 1.4495
 IR Inten    --     64.0122               107.9447               199.1272

                      7                      8                      9
                     A"                     A'                     A'
 Frequencies --   1487.9967              1509.3897              2959.3464
 Red. masses --      1.0414                 1.0362                 1.0298
 Frc consts  --      1.3586                 1.3909                 5.3135
 IR Inten    --    791.8371               206.5811                87.0260

                     10                     11                     12
                     A"                     A'                     A'
 Frequencies --   3024.0934              3031.6355              3681.8209
 Red. masses --      1.1048                 1.1039                 1.0664
 Frc consts  --      5.9531                 5.9779                 8.5174
 IR Inten    --     44.4049                38.1695              6058.3546

 - Thermochemistry -
 -------------------
 Temperature   298.150 Kelvin.  Pressure   1.00000 Atm.
 Atom     1 has atomic number  6 and mass  12.00000

 Molecular mass:    32.02621 amu.
 Principal axes and moments of inertia in atomic units:
                           1         2         3
     Eigenvalues --    14.07029  73.26636  75.94798
           X            0.05481   0.99850   0.00000
           Y            0.99850  -0.05481   0.00000
           Z            0.00000   0.00000   1.00000
 This molecule is an asymmetric top.
 Rotational symmetry number  1.
 Rotational temperatures (Kelvin)      6.15579     1.18218     1.14044
 Rotational constants (GHZ):         128.26605    24.63260    23.76286
    1 imaginary frequencies ignored.
 Zero-point vibrational energy     130588.9 (Joules/Mol)
                                   31.21149 (Kcal/Mol)
 Vibrational temperatures:   1480.73  1577.01  1701.52  1952.47  2120.14
          (Kelvin)           2140.89  2171.67  4257.83  4350.99  4361.84
                             5297.31

 Zero-point correction=                           0.049739 (Hartree/Particle)
 Thermal correction to Energy=                    0.052672
 Thermal correction to Enthalpy=                  0.053616
 Thermal correction to Gibbs Free Energy=         0.026557
 Sum of electronic and zero-point Energies=           -115.699029
 Sum of electronic and thermal Energies=              -115.696096
 Sum of electronic and thermal Enthalpies=            -115.695152
 Sum of electronic and thermal Free Energies=         -115.722211

                     E (Thermal)             CV                S
                      KCal/Mol        Cal/Mol-Kelvin    Cal/Mol-Kelvin
 Total                   33.052              7.164             56.950
 Electronic               0.000              0.000              1.377
 Translational            0.889              2.981             36.324
 Rotational               0.889              2.981             18.999
 Vibrational             31.275              1.202              0.249

 Normal termination of Gaussian 09 at Fri Mar  8 03:39:23 2019.
