 Gaussian 09, Revision E.01,
 Gaussian 09:  EM64L-G09RevE.01 30-Nov-2015

 ------------------------------------------------------
 #p b3lyp/6-311++G(3df,2p) freq IOp(2/17=3) IOp(2/18=3)
 ------------------------------------------------------

 ---------
 b3lyp opt
 ---------
 Symbolic Z-matrix:
 Charge = -1 Multiplicity = 3

                         Standard orientation:
 ---------------------------------------------------------------------
 Center     Atomic      Atomic             Coordinates (Angstroms)
 Number     Number       Type             X           Y           Z
 ---------------------------------------------------------------------
      1          6           0        0.038280    0.408862    0.001070
      2          6           0       -1.250678    0.008777   -0.001128
      3          1           0       -1.734813   -0.976560    0.003182
      4          8           0        1.126150   -0.191159   -0.000354
 ---------------------------------------------------------------------

 SCF Done:  E(UB3LYP) =  -151.963390035     A.U. after   20 cycles

 The electronic state is 3-A.
 Alpha  occ. eigenvalues --  -18.91726 -10.01124  -9.96569  -0.82254  -0.50847
 Alpha  occ. eigenvalues --   -0.30643  -0.24353  -0.20071  -0.17775  -0.04828
 Alpha  occ. eigenvalues --   -0.01017   0.03937
 Alpha virt. eigenvalues --    0.13247   0.17885   0.20380   0.20982   0.22025
 Alpha virt. eigenvalues --    0.22103   0.24197   0.27008   0.28655   0.29118
 Alpha virt. eigenvalues --    0.33694   0.39250   0.39323   0.40661   0.42132

  Beta  occ. eigenvalues --  -18.90560 -10.00251  -9.94997  -0.79810  -0.46937
  Beta  occ. eigenvalues --   -0.27979  -0.22568  -0.16750  -0.13293   0.00734
  Beta virt. eigenvalues --    0.09753   0.12947   0.16189   0.19287   0.21095
  Beta virt. eigenvalues --    0.21615   0.22461   0.23190   0.24574   0.27362
  Beta virt. eigenvalues --    0.29876   0.30196   0.35021   0.39549   0.39876

 Mulliken charges and spin densities:
               1          2
     1  C    0.124490   0.732081
     2  C   -0.447189   0.699408
     3  H   -0.097774   0.282705
     4  O   -0.579527   0.285807
 Sum of Mulliken charges =  -1.00000   2.00000

 Dipole moment (field-independent basis, Debye):
    X=              0.4265    Y=             -0.6188    Z=              0.0183  Tot=              0.7518
 Quadrupole moment (field-independent basis, Debye-Ang):
   XX=            -29.6672   YY=            -23.9598   ZZ=            -23.6233
   XY=              0.8796   XZ=             -0.0401   YZ=              0.0110

  Exact polarizability:  74.217  19.329  78.279   0.337  -0.205  52.554
 Approx polarizability: 106.449  18.512  83.405   0.239  -0.079  54.458

 ******    1 imaginary frequencies (negative Signs) ******

                      1                      2                      3
                      A                      A                      A
 Frequencies --   -630.6407               475.6310               913.2583
 Red. masses --      1.6786                 3.0969                 1.4994
 Frc consts  --      0.3933                 0.4128                 0.7368
 IR Inten    --    396.8442                19.0008                 8.4366

                      4                      5                      6
                      A                      A                      A
 Frequencies --   1214.6361              1600.5609              2938.5411
 Red. masses --     10.8346                11.5505                 1.0858
 Frc consts  --      9.4179                17.4339                 5.5240
 IR Inten    --     66.7115               419.2551               431.0744

 - Thermochemistry -
 -------------------
 Temperature   298.150 Kelvin.  Pressure   1.00000 Atm.
 Atom     1 has atomic number  6 and mass  12.00000

 Molecular mass:    41.00274 amu.
 Principal axes and moments of inertia in atomic units:
                           1         2         3
     Eigenvalues --    12.33068 150.38112 162.71154
           X            0.99901   0.04455  -0.00017
           Y           -0.04455   0.99901  -0.00098
           Z            0.00013   0.00099   1.00000
 This molecule is an asymmetric top.
 Rotational symmetry number  1.
 Rotational temperatures (Kelvin)      7.02425     0.57596     0.53232
 Rotational constants (GHZ):         146.36180    12.00112    11.09166
    1 imaginary frequencies ignored.
 Zero-point vibrational energy      42722.4 (Joules/Mol)
                                   10.21090 (Kcal/Mol)
 Warning -- explicit consideration of   1 degrees of freedom as
           vibrations may cause significant error
 Vibrational temperatures:    684.33  1313.97  1747.59  2302.85  4227.90
          (Kelvin)

 Zero-point correction=                           0.016272 (Hartree/Particle)
 Thermal correction to Energy=                    0.019418
 Thermal correction to Enthalpy=                  0.020362
 Thermal correction to Gibbs Free Energy=        -0.008376
 Sum of electronic and zero-point Energies=           -151.947118
 Sum of electronic and thermal Energies=              -151.943972
 Sum of electronic and thermal Enthalpies=            -151.943028
 Sum of electronic and thermal Free Energies=         -151.971766

                     E (Thermal)             CV                S
                      KCal/Mol        Cal/Mol-Kelvin    Cal/Mol-Kelvin
 Total                   12.185              7.996             60.484
 Electronic               0.000              0.000              2.183
 Translational            0.889              2.981             37.061
 Rotational               0.889              2.981             20.339
 Vibrational             10.407              2.035              0.901
 Vibration     1          0.832              1.304              0.722

 Normal termination of Gaussian 09 at Fri Mar  8 04:03:54 2019.
