 Gaussian 09, Revision E.01,
 Gaussian 09:  EM64L-G09RevE.01 30-Nov-2015

 ------------------------------------------------------
 #p b3lyp/6-311++G(3df,2p) freq IOp(2/17=3) IOp(2/18=3)
 ------------------------------------------------------

 ---------
 b3lyp opt
 ---------
 Symbolic Z-matrix:
 Charge = -1 Multiplicity = 1

                         Standard orientation:
 ---------------------------------------------------------------------
 Center     Atomic      Atomic             Coordinates (Angstroms)
 Number     Number       Type             X           Y           Z
 ---------------------------------------------------------------------
      1          6           0        0.733223   -0.643512    0.010393
      2          6           0        0.672759    0.667338    0.012256
      3          1           0       -1.179144   -0.027949    0.803047
      4          8           0       -0.907093   -0.014376   -0.117368
 ---------------------------------------------------------------------

 SCF Done:  E(RB3LYP) =  -151.910741817     A.U. after   12 cycles

 The electronic state is 1-A.
 Alpha  occ. eigenvalues --  -18.96206  -9.95844  -9.95659  -0.81910  -0.50308
 Alpha  occ. eigenvalues --   -0.27981  -0.20661  -0.17324  -0.06404  -0.03179
 Alpha  occ. eigenvalues --   -0.02593
 Alpha virt. eigenvalues --    0.12690   0.16991   0.19273   0.20976   0.21376
 Alpha virt. eigenvalues --    0.22618   0.23050   0.25112   0.25577   0.29378
 Alpha virt. eigenvalues --    0.30773   0.30930   0.33691   0.34486   0.40390

 Mulliken charges:
               1
     1  C   -0.360707
     2  C   -0.321047
     3  H    0.215267
     4  O   -0.533512
 Sum of Mulliken charges =  -1.00000

 Dipole moment (field-independent basis, Debye):
    X=             -3.3165    Y=             -0.0966    Z=              1.2120  Tot=              3.5323
 Quadrupole moment (field-independent basis, Debye-Ang):
   XX=            -24.5947   YY=            -29.8877   ZZ=            -22.0858
   XY=              0.1716   XZ=             -2.1298   YZ=             -0.0732

  Exact polarizability:  49.100  -0.338  55.252  -1.062  -0.046  39.487
 Approx polarizability:  73.048  -0.531  70.138  -0.374  -0.050  51.108

 ******    1 imaginary frequencies (negative Signs) ******

                      1                      2                      3
                      A                      A                      A
 Frequencies --    -72.1895               553.6394               576.4348
 Red. masses --     12.2846                 1.1528                13.1097
 Frc consts  --      0.0377                 0.2082                 2.5665
 IR Inten    --      0.8372                62.1964                36.6091

                      4                      5                      6
                      A                      A                      A
 Frequencies --   1061.8663              1633.0606              3840.5890
 Red. masses --      1.0782                11.9946                 1.0679
 Frc consts  --      0.7163                18.8469                 9.2805
 IR Inten    --     47.5644                30.8422                14.3989

 - Thermochemistry -
 -------------------
 Temperature   298.150 Kelvin.  Pressure   1.00000 Atm.
 Atom     1 has atomic number  6 and mass  12.00000

 Molecular mass:    41.00274 amu.
 Principal axes and moments of inertia in atomic units:
                           1         2         3
     Eigenvalues --    39.77860  97.37966 131.28959
           X            0.99929   0.00193  -0.03756
           Y           -0.00203   0.99999  -0.00253
           Z            0.03756   0.00261   0.99929
 This molecule is an asymmetric top.
 Rotational symmetry number  1.
 Rotational temperatures (Kelvin)      2.17740     0.88944     0.65972
 Rotational constants (GHZ):          45.36966    18.53304    13.74626
    1 imaginary frequencies ignored.
 Zero-point vibrational energy      45850.4 (Joules/Mol)
                                   10.95851 (Kcal/Mol)
 Warning -- explicit consideration of   2 degrees of freedom as
           vibrations may cause significant error
 Vibrational temperatures:    796.56   829.36  1527.79  2349.61  5525.74
          (Kelvin)

 Zero-point correction=                           0.017463 (Hartree/Particle)
 Thermal correction to Energy=                    0.020689
 Thermal correction to Enthalpy=                  0.021633
 Thermal correction to Gibbs Free Energy=        -0.006413
 Sum of electronic and zero-point Energies=           -151.893278
 Sum of electronic and thermal Energies=              -151.890053
 Sum of electronic and thermal Enthalpies=            -151.889109
 Sum of electronic and thermal Free Energies=         -151.917155

                     E (Thermal)             CV                S
                      KCal/Mol        Cal/Mol-Kelvin    Cal/Mol-Kelvin
 Total                   12.982              8.537             59.027
 Electronic               0.000              0.000              0.000
 Translational            0.889              2.981             37.061
 Rotational               0.889              2.981             20.858
 Vibrational             11.205              2.575              1.108
 Vibration     1          0.909              1.132              0.537
 Vibration     2          0.933              1.082              0.492

 Normal termination of Gaussian 09 at Fri Mar  8 03:51:28 2019.
