 Gaussian 09, Revision E.01,
 Gaussian 09:  EM64L-G09RevE.01 30-Nov-2015

 ------------------------------------------------------
 #p b3lyp/6-311++G(3df,2p) freq IOp(2/17=3) IOp(2/18=3)
 ------------------------------------------------------

 ---------
 b3lyp opt
 ---------
 Symbolic Z-matrix:
 Charge = -1 Multiplicity = 3

                         Standard orientation:
 ---------------------------------------------------------------------
 Center     Atomic      Atomic             Coordinates (Angstroms)
 Number     Number       Type             X           Y           Z
 ---------------------------------------------------------------------
      1          6           0        0.659857   -0.685136    0.000272
      2          6           0        0.647113    0.692880    0.000260
      3          1           0       -2.825968    0.003098    0.001857
      4          8           0       -0.626982   -0.006195   -0.000631
 ---------------------------------------------------------------------

 SCF Done:  E(UB3LYP) =  -151.820017516     A.U. after   14 cycles

 The electronic state is 3-A.
 Alpha  occ. eigenvalues --  -18.97514  -9.99582  -9.99523  -0.88322  -0.46096
 Alpha  occ. eigenvalues --   -0.29570  -0.23654  -0.20283  -0.13346  -0.06159
 Alpha  occ. eigenvalues --   -0.04272   0.00013
 Alpha virt. eigenvalues --    0.15462   0.18328   0.18960   0.19501   0.20873
 Alpha virt. eigenvalues --    0.20942   0.22528   0.24140   0.27363   0.29338
 Alpha virt. eigenvalues --    0.35163   0.35515   0.36474   0.41017   0.42098

  Beta  occ. eigenvalues --  -18.96120  -9.99118  -9.99063  -0.86035  -0.43051
  Beta  occ. eigenvalues --   -0.28423  -0.17655  -0.17571  -0.04848  -0.03662
  Beta virt. eigenvalues --    0.05446   0.11563   0.17995   0.18960   0.20051
  Beta virt. eigenvalues --    0.20126   0.21000   0.21614   0.22513   0.24313
  Beta virt. eigenvalues --    0.29279   0.29417   0.36093   0.36638   0.37172

 Mulliken charges and spin densities:
               1          2
     1  C   -0.326479   0.353331
     2  C   -0.329794   0.350322
     3  H   -0.088518   1.017477
     4  O   -0.255208   0.278869
 Sum of Mulliken charges =  -1.00000   2.00000

 Dipole moment (field-independent basis, Debye):
    X=             -1.4216    Y=             -0.0137    Z=             -0.0015  Tot=              1.4217
 Quadrupole moment (field-independent basis, Debye-Ang):
   XX=            -29.3261   YY=            -29.7775   ZZ=            -22.0002
   XY=              0.0440   XZ=              0.0005   YZ=              0.0000

  Exact polarizability:  67.133  -0.087  54.774  -0.018  -0.000  37.633
 Approx polarizability:  76.705  -0.056  66.438  -0.003  -0.000  47.630

 ******    1 imaginary frequencies (negative Signs) ******

                      1                      2                      3
                      A                      A                      A
 Frequencies --    -31.5842               128.3599               296.6224
 Red. masses --      1.3372                 1.5403                 1.0315
 Frc consts  --      0.0008                 0.0150                 0.0535
 IR Inten    --      4.0062                 8.8699                82.6889

                      4                      5                      6
                      A                      A                      A
 Frequencies --    486.0885               880.7581              1443.7301
 Red. masses --     12.0758                13.8856                12.1458
 Frc consts  --      1.6811                 6.3464                14.9159
 IR Inten    --      1.0469                27.5773                50.7164

 - Thermochemistry -
 -------------------
 Temperature   298.150 Kelvin.  Pressure   1.00000 Atm.
 Atom     1 has atomic number  6 and mass  12.00000

 Molecular mass:    41.00274 amu.
 Principal axes and moments of inertia in atomic units:
                           1         2         3
     Eigenvalues --    40.69066  87.11310 127.80368
           X            1.00000  -0.00068  -0.00022
           Y            0.00068   1.00000   0.00000
           Z            0.00022  -0.00000   1.00000
 This molecule is an asymmetric top.
 Rotational symmetry number  1.
 Rotational temperatures (Kelvin)      2.12859     0.99427     0.67771
 Rotational constants (GHZ):          44.35271    20.71722    14.12120
    1 imaginary frequencies ignored.
 Zero-point vibrational energy      19352.9 (Joules/Mol)
                                    4.62546 (Kcal/Mol)
 Warning -- explicit consideration of   3 degrees of freedom as
           vibrations may cause significant error
 Vibrational temperatures:    184.68   426.77   699.37  1267.21  2077.20
          (Kelvin)

 Zero-point correction=                           0.007371 (Hartree/Particle)
 Thermal correction to Energy=                    0.011609
 Thermal correction to Enthalpy=                  0.012553
 Thermal correction to Gibbs Free Energy=        -0.018451
 Sum of electronic and zero-point Energies=           -151.812646
 Sum of electronic and thermal Energies=              -151.808409
 Sum of electronic and thermal Enthalpies=            -151.807465
 Sum of electronic and thermal Free Energies=         -151.838468

                     E (Thermal)             CV                S
                      KCal/Mol        Cal/Mol-Kelvin    Cal/Mol-Kelvin
 Total                    7.285             11.465             65.253
 Electronic               0.000              0.000              2.183
 Translational            0.889              2.981             37.061
 Rotational               0.889              2.981             20.743
 Vibrational              5.507              5.504              5.266
 Vibration     1          0.611              1.925              2.970
 Vibration     2          0.690              1.680              1.436
 Vibration     3          0.842              1.281              0.694

 Normal termination of Gaussian 09 at Fri Mar  8 04:09:24 2019.
