 Gaussian 09, Revision E.01,
 Gaussian 09:  EM64L-G09RevE.01 30-Nov-2015

 --------------------------------------
 #p ccsd(t,maxcyc=200)/6-311++G(3df,2p)
 --------------------------------------

 -------------
 ccsd(t) iener
 -------------
 Symbolic Z-matrix:
 Charge = -1 Multiplicity = 4

                         Standard orientation:
 ---------------------------------------------------------------------
 Center     Atomic      Atomic             Coordinates (Angstroms)
 Number     Number       Type             X           Y           Z
 ---------------------------------------------------------------------
      1          6           0        0.000000    0.336353   -0.000000
      2          6           0        1.445578   -0.048575   -0.000000
      3          8           0       -1.084183   -0.215834    0.000000
 ---------------------------------------------------------------------

 SCF Done:  E(UHF) =  -150.488129467     A.U. after   22 cycles
 E2 =    -0.4758239241D+00 EUMP2 =    -0.15096395339145D+03
 CCSD(T)
 CCSD(T)= -0.15100703663D+03

 The electronic state is 4-A".
 Alpha  occ. eigenvalues --  -20.39039 -11.11427 -11.03171  -1.22263  -0.76598
 Alpha  occ. eigenvalues --   -0.52335  -0.43397  -0.39526  -0.29532  -0.19022
 Alpha  occ. eigenvalues --   -0.15255  -0.06437
 Alpha virt. eigenvalues --    0.22257   0.24763   0.26570   0.26628   0.28722
 Alpha virt. eigenvalues --    0.29847   0.30783   0.35515   0.39222   0.44720
 Alpha virt. eigenvalues --    0.47776   0.49225   0.51806   0.62520   0.63301

  Beta  occ. eigenvalues --  -20.36546 -11.10097 -10.99391  -1.16159  -0.60434
  Beta  occ. eigenvalues --   -0.45580  -0.30994  -0.29241  -0.17287
  Beta virt. eigenvalues --    0.21695   0.24120   0.24431   0.25051   0.28284
  Beta virt. eigenvalues --    0.28474   0.30212   0.34028   0.35695   0.37009
  Beta virt. eigenvalues --    0.44408   0.46217   0.46343   0.50160   0.53765

 Mulliken charges and spin densities:
               1          2
     1  C    0.274951   0.869993
     2  C   -0.649738   1.848130
     3  O   -0.625213   0.281876
 Sum of Mulliken charges =  -1.00000   3.00000

 Dipole moment (field-independent basis, Debye):
    X=             -2.9667    Y=              0.7018    Z=              0.0000  Tot=              3.0486
 Quadrupole moment (field-independent basis, Debye-Ang):
   XX=            -34.3981   YY=            -23.0764   ZZ=            -20.4078
   XY=              1.1957   XZ=              0.0000   YZ=             -0.0000

 SD=-150.9812472\CCSD(T)=-151.0070366\S2=3.788877\S2-1=3.765148\S2A=3.7
 Normal termination of Gaussian 09 at Fri Mar  8 05:43:33 2019.
