 Gaussian 09, Revision E.01,
 Gaussian 09:  EM64L-G09RevE.01 30-Nov-2015

 --------------------------------------
 #p ccsd(t,maxcyc=200)/6-311++G(3df,2p)
 --------------------------------------

 -------------
 ccsd(t) iener
 -------------
 Symbolic Z-matrix:
 Charge = -1 Multiplicity = 4

                         Standard orientation:
 ---------------------------------------------------------------------
 Center     Atomic      Atomic             Coordinates (Angstroms)
 Number     Number       Type             X           Y           Z
 ---------------------------------------------------------------------
      1          6           0        1.512035    0.010294    0.000000
      2          6           0        0.000000    0.249693    0.000000
      3          8           0       -1.134026   -0.194991    0.000000
 ---------------------------------------------------------------------

 SCF Done:  E(UHF) =  -150.474562268     A.U. after   21 cycles
 E2 =    -0.4761509348D+00 EUMP2 =    -0.15095071320326D+03
 CCSD(T)
 CCSD(T)= -0.15099459431D+03

 The electronic state is 4-A".
 Alpha  occ. eigenvalues --  -20.39294 -11.12123 -11.04116  -1.22089  -0.75929
 Alpha  occ. eigenvalues --   -0.52501  -0.43368  -0.39131  -0.29478  -0.19499
 Alpha  occ. eigenvalues --   -0.15528  -0.04494
 Alpha virt. eigenvalues --    0.22095   0.24642   0.26684   0.26694   0.28708
 Alpha virt. eigenvalues --    0.29749   0.30734   0.35484   0.38651   0.45319
 Alpha virt. eigenvalues --    0.48297   0.49288   0.51487   0.60768   0.61636

  Beta  occ. eigenvalues --  -20.37068 -11.10720 -11.00363  -1.16596  -0.59831
  Beta  occ. eigenvalues --   -0.46162  -0.31624  -0.30183  -0.18052
  Beta virt. eigenvalues --    0.21619   0.23920   0.24397   0.24950   0.28381
  Beta virt. eigenvalues --    0.28587   0.30513   0.33971   0.35477   0.36909
  Beta virt. eigenvalues --    0.45777   0.46692   0.46694   0.50737   0.53318

 Mulliken charges and spin densities:
               1          2
     1  C   -0.506328   1.783329
     2  C    0.117229   1.015821
     3  O   -0.610902   0.200851
 Sum of Mulliken charges =  -1.00000   3.00000

 Dipole moment (field-independent basis, Debye):
    X=             -3.0476    Y=              0.3594    Z=              0.0000  Tot=              3.0687
 Quadrupole moment (field-independent basis, Debye-Ang):
   XX=            -35.6925   YY=            -23.0591   ZZ=            -20.6587
   XY=              0.8620   XZ=              0.0000   YZ=              0.0000

 =-150.9684751\CCSD(T)=-150.9945943\S2=3.785019\S2-1=3.763311\S2A=3.750
 Normal termination of Gaussian 09 at Fri Mar  8 05:42:10 2019.
