 Gaussian 09, Revision E.01,
 Gaussian 09:  EM64L-G09RevE.01 30-Nov-2015

 --------------------------------------
 #p ccsd(t,maxcyc=200)/6-311++G(3df,2p)
 --------------------------------------

 -------------
 ccsd(t) iener
 -------------
 Symbolic Z-matrix:
 Charge = -1 Multiplicity = 4

                         Standard orientation:
 ---------------------------------------------------------------------
 Center     Atomic      Atomic             Coordinates (Angstroms)
 Number     Number       Type             X           Y           Z
 ---------------------------------------------------------------------
      1          6           0        0.893375   -0.428941    0.000000
      2          6           0       -0.893375   -0.428844    0.000000
      3          8           0        0.000000    0.643338    0.000000
 ---------------------------------------------------------------------

 SCF Done:  E(UHF) =  -150.397248540     A.U. after   20 cycles
 E2 =    -0.4712284121D+00 EUMP2 =    -0.15086847695244D+03
 CCSD(T)
 CCSD(T)= -0.15091379225D+03

 The electronic state is 4-A'.
 Alpha  occ. eigenvalues --  -20.39229 -11.07242 -11.07217  -1.23544  -0.62275
 Alpha  occ. eigenvalues --   -0.62255  -0.45223  -0.33043  -0.25375  -0.15313
 Alpha  occ. eigenvalues --   -0.11417  -0.10804
 Alpha virt. eigenvalues --    0.23691   0.24132   0.25812   0.27015   0.27496
 Alpha virt. eigenvalues --    0.30328   0.30781   0.35637   0.41817   0.43931
 Alpha virt. eigenvalues --    0.46268   0.52742   0.53460   0.64088   0.66469

  Beta  occ. eigenvalues --  -20.37698 -11.04095 -11.04088  -1.18346  -0.51159
  Beta  occ. eigenvalues --   -0.49902  -0.31093  -0.24324  -0.17923
  Beta virt. eigenvalues --    0.23274   0.24226   0.25663   0.25738   0.27299
  Beta virt. eigenvalues --    0.28309   0.28649   0.35138   0.36261   0.42489
  Beta virt. eigenvalues --    0.44930   0.46583   0.47600   0.50538   0.54107

 Mulliken charges and spin densities:
               1          2
     1  C   -0.302946   1.508813
     2  C   -0.302890   1.508636
     3  O   -0.394164  -0.017449
 Sum of Mulliken charges =  -1.00000   3.00000

 Dipole moment (field-independent basis, Debye):
    X=             -0.0001    Y=              2.2444    Z=              0.0000  Tot=              2.2444
 Quadrupole moment (field-independent basis, Debye-Ang):
   XX=            -26.9989   YY=            -23.9487   ZZ=            -22.0921
   XY=              0.0001   XZ=              0.0000   YZ=              0.0000

 D=-150.8887088\CCSD(T)=-150.9137922\S2=3.807768\S2-1=3.774292\S2A=3.75
 Normal termination of Gaussian 09 at Fri Mar  8 05:42:37 2019.
