 Gaussian 09, Revision E.01,
 Gaussian 09:  EM64L-G09RevE.01 30-Nov-2015

 --------------------------------------
 #p ccsd(t,maxcyc=200)/6-311++G(3df,2p)
 --------------------------------------

 -------------
 ccsd(t) iener
 -------------
 Symbolic Z-matrix:
 Charge = -1 Multiplicity = 2

                         Standard orientation:
 ---------------------------------------------------------------------
 Center     Atomic      Atomic             Coordinates (Angstroms)
 Number     Number       Type             X           Y           Z
 ---------------------------------------------------------------------
      1          6           0        0.688115   -0.512326   -0.000000
      2          6           0       -0.688115   -0.512339   -0.000000
      3          8           0        0.000000    0.768499    0.000000
 ---------------------------------------------------------------------

 SCF Done:  E(UHF) =  -150.459453414     A.U. after   20 cycles
 E2 =    -0.5246497489D+00 EUMP2 =    -0.15098410316251D+03
 CCSD(T)
 CCSD(T)= -0.15101916829D+03

 The electronic state is 2-A".
 Alpha  occ. eigenvalues --  -20.39694 -11.04612 -11.04456  -1.21714  -0.70865
 Alpha  occ. eigenvalues --   -0.48227  -0.42883  -0.33099  -0.19355  -0.16906
 Alpha  occ. eigenvalues --   -0.10695
 Alpha virt. eigenvalues --    0.24387   0.24644   0.26297   0.27478   0.27595
 Alpha virt. eigenvalues --    0.27985   0.30315   0.35641   0.41079   0.43270
 Alpha virt. eigenvalues --    0.45937   0.51067   0.53514   0.55911   0.63087

  Beta  occ. eigenvalues --  -20.37302 -11.04036 -11.03903  -1.16452  -0.64668
  Beta  occ. eigenvalues --   -0.46170  -0.30663  -0.26128  -0.16912  -0.15913
  Beta virt. eigenvalues --    0.24433   0.24696   0.25370   0.26471   0.28001
  Beta virt. eigenvalues --    0.28450   0.30588   0.34230   0.35741   0.43605
  Beta virt. eigenvalues --    0.47196   0.48033   0.51934   0.53466   0.56544

 Mulliken charges and spin densities:
               1          2
     1  C   -0.240116   0.350199
     2  C   -0.240129   0.350253
     3  O   -0.519754   0.299548
 Sum of Mulliken charges =  -1.00000   1.00000

 Dipole moment (field-independent basis, Debye):
    X=              0.0000    Y=              1.3987    Z=              0.0000  Tot=              1.3987
 Quadrupole moment (field-independent basis, Debye-Ang):
   XX=            -27.7514   YY=            -23.5905   ZZ=            -20.3365
   XY=             -0.0000   XZ=              0.0000   YZ=             -0.0000

 -150.9893061\CCSD(T)=-151.0191683\S2=0.767827\S2-1=0.754399\S2A=0.7501
 Normal termination of Gaussian 09 at Fri Mar  8 05:42:02 2019.
