 Gaussian 09, Revision E.01,
 Gaussian 09:  EM64L-G09RevE.01 30-Nov-2015

 --------------------------------------
 #p ccsd(t,maxcyc=200)/6-311++G(3df,2p)
 --------------------------------------

 -------------
 ccsd(t) iener
 -------------
 Symbolic Z-matrix:
 Charge = -1 Multiplicity = 4

                         Standard orientation:
 ---------------------------------------------------------------------
 Center     Atomic      Atomic             Coordinates (Angstroms)
 Number     Number       Type             X           Y           Z
 ---------------------------------------------------------------------
      1          6           0        0.983140   -0.835613    0.000005
      2          6           0       -1.658975   -0.035492    0.000007
      3          6           0       -0.257763   -0.159397   -0.000015
      4          8           0        0.700199    0.772877    0.000002
 ---------------------------------------------------------------------

 SCF Done:  E(UHF) =  -188.271231185     A.U. after   24 cycles
 E2 =    -0.6099228697D+00 EUMP2 =    -0.18888115405443D+03
 CCSD(T)
 CCSD(T)= -0.18894009169D+03

 The electronic state is 4-A.
 Alpha  occ. eigenvalues --  -20.46230 -11.12977 -11.09033 -11.04013  -1.28595
 Alpha  occ. eigenvalues --   -0.82514  -0.73605  -0.52293  -0.50051  -0.35911
 Alpha  occ. eigenvalues --   -0.29097  -0.25049  -0.23860  -0.15154  -0.14219
 Alpha virt. eigenvalues --    0.22452   0.23206   0.23737   0.25089   0.25153
 Alpha virt. eigenvalues --    0.27824   0.29062   0.31169   0.31612   0.33497
 Alpha virt. eigenvalues --    0.36901   0.38543   0.39801   0.41851   0.44487

  Beta  occ. eigenvalues --  -20.43129 -11.13588 -11.06945 -11.00717  -1.21320
  Beta  occ. eigenvalues --   -0.72857  -0.63976  -0.46056  -0.30979  -0.30616
  Beta  occ. eigenvalues --   -0.22459  -0.18118
  Beta virt. eigenvalues --    0.21813   0.22347   0.22958   0.23959   0.25167
  Beta virt. eigenvalues --    0.25296   0.26034   0.28292   0.31653   0.32165
  Beta virt. eigenvalues --    0.34004   0.36530   0.38005   0.38724   0.39808

 Mulliken charges and spin densities:
               1          2
     1  C   -0.461040   1.068878
     2  C   -0.872856   1.738926
     3  C    0.942578  -0.336268
     4  O   -0.608681   0.528464
 Sum of Mulliken charges =  -1.00000   3.00000

 Dipole moment (field-independent basis, Debye):
    X=              2.0910    Y=              0.9148    Z=             -0.0001  Tot=              2.2823
 Quadrupole moment (field-independent basis, Debye-Ang):
   XX=            -44.6427   YY=            -30.2247   ZZ=            -26.1441
   XY=              2.8669   XZ=              0.0001   YZ=              0.0000

 Normal termination of Gaussian 09 at Fri Mar  8 06:41:36 2019.
