 Gaussian 09, Revision E.01,
 Gaussian 09:  EM64L-G09RevE.01 30-Nov-2015

 --------------------------------------
 #p ccsd(t,maxcyc=200)/6-311++G(3df,2p)
 --------------------------------------

 -------------
 ccsd(t) iener
 -------------
 Symbolic Z-matrix:
 Charge = -1 Multiplicity = 2

                         Standard orientation:
 ---------------------------------------------------------------------
 Center     Atomic      Atomic             Coordinates (Angstroms)
 Number     Number       Type             X           Y           Z
 ---------------------------------------------------------------------
      1          6           0       -0.759014   -0.028055    0.000001
      2          6           0       -2.018711   -0.076131   -0.000001
      3          6           0        0.554547    0.313344   -0.000000
      4          8           0        1.667384   -0.156868   -0.000000
 ---------------------------------------------------------------------

 SCF Done:  E(UHF) =  -188.416056061     A.U. after   31 cycles
 E2 =    -0.6503467118D+00 EUMP2 =    -0.18906640277284D+03
 CCSD(T)
 CCSD(T)= -0.18911758753D+03

 The electronic state is 2-A.
 Alpha  occ. eigenvalues --  -20.39740 -11.15940 -11.03716 -11.00368  -1.23002
 Alpha  occ. eigenvalues --   -0.84065  -0.69289  -0.51287  -0.45282  -0.38106
 Alpha  occ. eigenvalues --   -0.25236  -0.22693  -0.18172  -0.13249
 Alpha virt. eigenvalues --    0.20371   0.23144   0.23933   0.24469   0.24837
 Alpha virt. eigenvalues --    0.25167   0.27761   0.31053   0.32503   0.33118
 Alpha virt. eigenvalues --    0.33494   0.38825   0.41841   0.43384   0.44917

  Beta  occ. eigenvalues --  -20.39029 -11.13894 -11.02435 -11.01175  -1.20920
  Beta  occ. eigenvalues --   -0.83230  -0.63973  -0.48978  -0.38931  -0.35616
  Beta  occ. eigenvalues --   -0.21656  -0.19054  -0.18627
  Beta virt. eigenvalues --    0.20130   0.23276   0.24047   0.24466   0.24875
  Beta virt. eigenvalues --    0.25774   0.26077   0.30289   0.32739   0.33563
  Beta virt. eigenvalues --    0.33909   0.35968   0.39042   0.42587   0.44131

 Mulliken charges and spin densities:
               1          2
     1  C    0.615761  -0.855882
     2  C   -0.880747   0.798833
     3  C    0.069146   1.017995
     4  O   -0.804160   0.039054
 Sum of Mulliken charges =  -1.00000   1.00000

 Dipole moment (field-independent basis, Debye):
    X=              3.4920    Y=              0.5808    Z=              0.0000  Tot=              3.5400
 Quadrupole moment (field-independent basis, Debye-Ang):
   XX=            -48.5402   YY=            -27.1210   ZZ=            -25.3678
   XY=             -0.2451   XZ=             -0.0000   YZ=              0.0000

 Normal termination of Gaussian 09 at Fri Mar  8 06:05:40 2019.
