 Gaussian 09, Revision E.01,
 Gaussian 09:  EM64L-G09RevE.01 30-Nov-2015

 --------------------------------------
 #p ccsd(t,maxcyc=200)/6-311++G(3df,2p)
 --------------------------------------

 -------------
 ccsd(t) iener
 -------------
 Symbolic Z-matrix:
 Charge = -1 Multiplicity = 4

                         Standard orientation:
 ---------------------------------------------------------------------
 Center     Atomic      Atomic             Coordinates (Angstroms)
 Number     Number       Type             X           Y           Z
 ---------------------------------------------------------------------
      1          6           0        0.760075    0.022343    0.000003
      2          6           0        2.067315   -0.011457   -0.000006
      3          6           0       -0.510620   -0.009955    0.000014
      4          8           0       -1.737578   -0.000699   -0.000008
 ---------------------------------------------------------------------

 SCF Done:  E(UHF) =  -188.345145414     A.U. after   21 cycles
 E2 =    -0.6057421950D+00 EUMP2 =    -0.18895088760851D+03
 CCSD(T)
 CCSD(T)= -0.18900350301D+03

 The electronic state is 4-A.
 Alpha  occ. eigenvalues --  -20.33579 -11.08912 -11.08727 -11.01359  -1.16551
 Alpha  occ. eigenvalues --   -0.85499  -0.73050  -0.45811  -0.40812  -0.38849
 Alpha  occ. eigenvalues --   -0.38844  -0.27319  -0.27316  -0.08185  -0.08173
 Alpha virt. eigenvalues --    0.19363   0.21628   0.24421   0.24431   0.25228
 Alpha virt. eigenvalues --    0.27830   0.28471   0.29708   0.34007   0.34018
 Alpha virt. eigenvalues --    0.38747   0.44205   0.49052   0.50297   0.50437

  Beta  occ. eigenvalues --  -20.31899 -11.06826 -11.02565 -11.02185  -1.12530
  Beta  occ. eigenvalues --   -0.80364  -0.59125  -0.42886  -0.30788  -0.30785
  Beta  occ. eigenvalues --   -0.16437  -0.16425
  Beta virt. eigenvalues --    0.17197   0.21574   0.23947   0.23957   0.24557
  Beta virt. eigenvalues --    0.25704   0.27586   0.27673   0.32809   0.34240
  Beta virt. eigenvalues --    0.34260   0.38225   0.38312   0.39462   0.45220

 Mulliken charges and spin densities:
               1          2
     1  C    0.364625  -0.947141
     2  C   -0.253101   2.963212
     3  C   -0.095821   0.742656
     4  O   -1.015704   0.241273
 Sum of Mulliken charges =  -1.00000   3.00000

 Dipole moment (field-independent basis, Debye):
    X=              1.1696    Y=             -0.0337    Z=              0.0000  Tot=              1.1701
 Quadrupole moment (field-independent basis, Debye-Ang):
   XX=            -39.8459   YY=            -26.2306   ZZ=            -26.2312
   XY=             -0.0241   XZ=             -0.0000   YZ=             -0.0000

 1017\PMP3-0=-188.9633062\MP4SDQ=-188.966171\CCSD=-188.9690949\CCSD(T)=
 Normal termination of Gaussian 09 at Fri Mar  8 06:43:02 2019.
