 Gaussian 09, Revision E.01,
 Gaussian 09:  EM64L-G09RevE.01 30-Nov-2015

 --------------------------------------
 #p ccsd(t,maxcyc=200)/6-311++G(3df,2p)
 --------------------------------------

 -------------
 ccsd(t) iener
 -------------
 Symbolic Z-matrix:
 Charge = -1 Multiplicity = 4

                         Standard orientation:
 ---------------------------------------------------------------------
 Center     Atomic      Atomic             Coordinates (Angstroms)
 Number     Number       Type             X           Y           Z
 ---------------------------------------------------------------------
      1          6           0       -0.000000    0.768379   -1.030887
      2          6           0       -0.000000   -0.768379   -1.030887
      3          6           0        0.000000    0.000000    0.186774
      4          8           0        0.000000    0.000000    1.406250
 ---------------------------------------------------------------------

 SCF Done:  E(UHF) =  -188.278065325     A.U. after   22 cycles
 E2 =    -0.6382182099D+00 EUMP2 =    -0.18891628353518D+03
 CCSD(T)
 CCSD(T)= -0.18896822085D+03

 The electronic state is 4-B1.
 Alpha  occ. eigenvalues --  -20.32519 -11.12637 -11.07076 -11.07019  -1.16307
 Alpha  occ. eigenvalues --   -0.94603  -0.57676  -0.49077  -0.40026  -0.36963
 Alpha  occ. eigenvalues --   -0.35097  -0.25437  -0.23186  -0.15793  -0.07110
 Alpha virt. eigenvalues --    0.21414   0.21521   0.22524   0.26892   0.27899
 Alpha virt. eigenvalues --    0.28039   0.28613   0.29726   0.30604   0.32006
 Alpha virt. eigenvalues --    0.36439   0.36456   0.42865   0.48399   0.50811

  Beta  occ. eigenvalues --  -20.32647 -11.13015 -11.02958 -11.02918  -1.16411
  Beta  occ. eigenvalues --   -0.87342  -0.46806  -0.41696  -0.36846  -0.25508
  Beta  occ. eigenvalues --   -0.20410  -0.13075
  Beta virt. eigenvalues --    0.18682   0.20311   0.22552   0.25813   0.26471
  Beta virt. eigenvalues --    0.27036   0.27357   0.28584   0.29711   0.30129
  Beta virt. eigenvalues --    0.31255   0.33526   0.37620   0.38732   0.44826

 Mulliken charges and spin densities:
               1          2
     1  C   -0.372199   1.684165
     2  C   -0.372199   1.684165
     3  C    0.677685  -0.327923
     4  O   -0.933287  -0.040408
 Sum of Mulliken charges =  -1.00000   3.00000

 Dipole moment (field-independent basis, Debye):
    X=              0.0000    Y=             -0.0000    Z=             -0.0046  Tot=              0.0046
 Quadrupole moment (field-independent basis, Debye-Ang):
   XX=            -27.3501   YY=            -27.8285   ZZ=            -36.8274
   XY=             -0.0000   XZ=             -0.0000   YZ=             -0.0000

 188.9257927\CCSD=-188.9281973\CCSD(T)=-188.9682209\S2=3.888736\S2-1=3.
 Normal termination of Gaussian 09 at Fri Mar  8 06:19:09 2019.
