 Gaussian 09, Revision E.01,
 Gaussian 09:  EM64L-G09RevE.01 30-Nov-2015

 --------------------------------------
 #p ccsd(t,maxcyc=200)/6-311++G(3df,2p)
 --------------------------------------

 -------------
 ccsd(t) iener
 -------------
 Symbolic Z-matrix:
 Charge = -1 Multiplicity = 2

                         Standard orientation:
 ---------------------------------------------------------------------
 Center     Atomic      Atomic             Coordinates (Angstroms)
 Number     Number       Type             X           Y           Z
 ---------------------------------------------------------------------
      1          6           0        1.054643    0.676393   -0.000125
      2          6           0        1.054646   -0.676392   -0.000125
      3          6           0       -0.210731   -0.000001    0.000512
      4          8           0       -1.423918   -0.000000   -0.000196
 ---------------------------------------------------------------------

 SCF Done:  E(UHF) =  -188.398448405     A.U. after   20 cycles
 E2 =    -0.6719765562D+00 EUMP2 =    -0.18907042496125D+03
 CCSD(T)
 CCSD(T)= -0.18910934802D+03

 The electronic state is 2-A.
 Alpha  occ. eigenvalues --  -20.36629 -11.15472 -11.04252 -11.04091  -1.20700
 Alpha  occ. eigenvalues --   -0.98814  -0.52917  -0.51105  -0.40603  -0.39116
 Alpha  occ. eigenvalues --   -0.33612  -0.20956  -0.20185  -0.12952
 Alpha virt. eigenvalues --    0.21858   0.22326   0.22415   0.26527   0.26903
 Alpha virt. eigenvalues --    0.28045   0.28397   0.28442   0.31369   0.31384
 Alpha virt. eigenvalues --    0.36348   0.37093   0.40905   0.41232   0.48862

  Beta  occ. eigenvalues --  -20.35609 -11.14707 -11.03457 -11.03283  -1.18325
  Beta  occ. eigenvalues --   -0.95913  -0.50012  -0.43447  -0.38250  -0.33718
  Beta  occ. eigenvalues --   -0.24582  -0.19471  -0.17288
  Beta virt. eigenvalues --    0.21111   0.21888   0.22669   0.26502   0.26520
  Beta virt. eigenvalues --    0.27014   0.28093   0.28443   0.29922   0.31496
  Beta virt. eigenvalues --    0.32025   0.36534   0.37724   0.41903   0.42093

 Mulliken charges and spin densities:
               1          2
     1  C   -0.373926   0.222077
     2  C   -0.373922   0.222074
     3  C    0.642446   0.399795
     4  O   -0.894598   0.156054
 Sum of Mulliken charges =  -1.00000   1.00000

 Dipole moment (field-independent basis, Debye):
    X=             -1.1075    Y=             -0.0000    Z=              0.0017  Tot=              1.1075
 Quadrupole moment (field-independent basis, Debye-Ang):
   XX=            -36.9771   YY=            -31.7197   ZZ=            -25.2808
   XY=              0.0000   XZ=             -0.0006   YZ=             -0.0000

 3\PMP3-0=-189.0658391\MP4SDQ=-189.0716993\CCSD=-189.0692861\CCSD(T)=-1
 Normal termination of Gaussian 09 at Fri Mar  8 06:39:45 2019.
