 Gaussian 09, Revision E.01,
 Gaussian 09:  EM64L-G09RevE.01 30-Nov-2015

 --------------------------------------
 #p ccsd(t,maxcyc=200)/6-311++G(3df,2p)
 --------------------------------------

 -------------
 ccsd(t) iener
 -------------
 Symbolic Z-matrix:
 Charge = -1 Multiplicity = 2

                         Standard orientation:
 ---------------------------------------------------------------------
 Center     Atomic      Atomic             Coordinates (Angstroms)
 Number     Number       Type             X           Y           Z
 ---------------------------------------------------------------------
      1          6           0       -0.362753   -0.000623    0.000352
      2          6           0       -1.688883    0.673930   -0.000168
      3          6           0       -1.689025   -0.673489   -0.000168
      4          6           0        0.917932   -0.000033    0.000339
      5          8           0        2.117046    0.000161   -0.000266
 ---------------------------------------------------------------------

 SCF Done:  E(UHF) =  -226.222789460     A.U. after   28 cycles
 E2 =    -0.8155307263D+00 EUMP2 =    -0.22703832018604D+03
 CCSD(T)
 CCSD(T)= -0.22709031854D+03

 The electronic state is 2-A.
 Alpha  occ. eigenvalues --  -20.43318 -11.17725 -11.08766 -11.05603 -11.05422
 Alpha  occ. eigenvalues --   -1.26881  -0.98778  -0.82482  -0.54941  -0.48730
 Alpha  occ. eigenvalues --   -0.46819  -0.39937  -0.37727  -0.30896  -0.20510
 Alpha  occ. eigenvalues --   -0.14668  -0.13334
 Alpha virt. eigenvalues --    0.19131   0.21627   0.22501   0.23245   0.23378
 Alpha virt. eigenvalues --    0.24247   0.26435   0.28086   0.28865   0.29812
 Alpha virt. eigenvalues --    0.32114   0.33390   0.33409   0.35271   0.37328

  Beta  occ. eigenvalues --  -20.41893 -11.16733 -11.09049 -11.05214 -11.05050
  Beta  occ. eigenvalues --   -1.23699  -0.97357  -0.77155  -0.53051  -0.45587
  Beta  occ. eigenvalues --   -0.38309  -0.38198  -0.37522  -0.23480  -0.20014
  Beta  occ. eigenvalues --   -0.14166
  Beta virt. eigenvalues --    0.19165   0.21733   0.21841   0.22514   0.23469
  Beta virt. eigenvalues --    0.23501   0.24300   0.26894   0.28905   0.29364
  Beta virt. eigenvalues --    0.30601   0.32504   0.33509   0.34203   0.35308

 Mulliken charges and spin densities:
               1          2
     1  C    0.366607  -0.171798
     2  C   -0.279504   0.333435
     3  C   -0.277268   0.333346
     4  C    0.083707   0.277033
     5  O   -0.893541   0.227984
 Sum of Mulliken charges =  -1.00000   1.00000

 Dipole moment (field-independent basis, Debye):
    X=              3.4517    Y=              0.0001    Z=              0.0012  Tot=              3.4517
 Quadrupole moment (field-independent basis, Debye-Ang):
   XX=            -53.4207   YY=            -37.9275   ZZ=            -30.9999
   XY=             -0.0040   XZ=              0.0001   YZ=             -0.0000

 27.0406628\CCSD=-227.038657\CCSD(T)=-227.0903185\S2=0.800918\S2-1=0.77
 Normal termination of Gaussian 09 at Fri Mar  8 08:31:12 2019.
