 Gaussian 09, Revision E.01,
 Gaussian 09:  EM64L-G09RevE.01 30-Nov-2015

 --------------------------------------
 #p ccsd(t,maxcyc=200)/6-311++G(3df,2p)
 --------------------------------------

 -------------
 ccsd(t) iener
 -------------
 Symbolic Z-matrix:
 Charge = -1 Multiplicity = 2

                         Standard orientation:
 ---------------------------------------------------------------------
 Center     Atomic      Atomic             Coordinates (Angstroms)
 Number     Number       Type             X           Y           Z
 ---------------------------------------------------------------------
      1          6           0        0.779886   -0.045729    0.000101
      2          6           0       -0.779903   -0.045704   -0.000030
      3          6           0       -1.885878   -0.693817    0.000005
      4          6           0        1.885878   -0.693818   -0.000050
      5          8           0        0.000013    1.109301   -0.000019
 ---------------------------------------------------------------------

 SCF Done:  E(UHF) =  -226.100704732     A.U. after   28 cycles
 E2 =    -0.8048097357D+00 EUMP2 =    -0.22690551446819D+03
 CCSD(T)
 CCSD(T)= -0.22697074170D+03

 The electronic state is 2-A.
 Alpha  occ. eigenvalues --  -20.48763 -11.13342 -11.13304 -11.07328 -11.07327
 Alpha  occ. eigenvalues --   -1.30893  -0.85538  -0.84705  -0.61409  -0.55645
 Alpha  occ. eigenvalues --   -0.48400  -0.32982  -0.28086  -0.27383  -0.20974
 Alpha  occ. eigenvalues --   -0.19995  -0.14882
 Alpha virt. eigenvalues --    0.17843   0.22205   0.22362   0.22802   0.23431
 Alpha virt. eigenvalues --    0.25041   0.26897   0.28023   0.28088   0.28879
 Alpha virt. eigenvalues --    0.29729   0.32831   0.34422   0.34492   0.36732

  Beta  occ. eigenvalues --  -20.48984 -11.13750 -11.13696 -11.06086 -11.06085
  Beta  occ. eigenvalues --   -1.32279  -0.82445  -0.80213  -0.63697  -0.52645
  Beta  occ. eigenvalues --   -0.50208  -0.32108  -0.24719  -0.24300  -0.21084
  Beta  occ. eigenvalues --   -0.18566
  Beta virt. eigenvalues --    0.19901   0.20771   0.22298   0.22835   0.23439
  Beta virt. eigenvalues --    0.24637   0.25302   0.26673   0.29052   0.29363
  Beta virt. eigenvalues --    0.29794   0.32786   0.33023   0.34740   0.35361

 Mulliken charges and spin densities:
               1          2
     1  C    0.628247  -0.177606
     2  C    0.628216  -0.177561
     3  C   -0.756884   0.698580
     4  C   -0.756862   0.698629
     5  O   -0.742717  -0.042042
 Sum of Mulliken charges =  -1.00000   1.00000

 Dipole moment (field-independent basis, Debye):
    X=             -0.0001    Y=              3.4921    Z=              0.0000  Tot=              3.4921
 Quadrupole moment (field-independent basis, Debye-Ang):
   XX=            -55.1395   YY=            -36.9526   ZZ=            -33.2171
   XY=              0.0000   XZ=              0.0001   YZ=             -0.0001

 19632\CCSD=-226.9197957\CCSD(T)=-226.9707417\S2=0.944296\S2-1=0.886327
 Normal termination of Gaussian 09 at Fri Mar  8 08:17:28 2019.
