 Gaussian 09, Revision E.01,
 Gaussian 09:  EM64L-G09RevE.01 30-Nov-2015

 --------------------------------------
 #p ccsd(t,maxcyc=200)/6-311++G(3df,2p)
 --------------------------------------

 -------------
 ccsd(t) iener
 -------------
 Symbolic Z-matrix:
 Charge = -1 Multiplicity = 4

                         Standard orientation:
 ---------------------------------------------------------------------
 Center     Atomic      Atomic             Coordinates (Angstroms)
 Number     Number       Type             X           Y           Z
 ---------------------------------------------------------------------
      1          6           0       -0.623076    0.854039    0.157309
      2          6           0       -1.678791   -0.000282   -0.183471
      3          6           0        0.551922   -0.000212   -0.099114
      4          6           0       -0.622607   -0.853691    0.157454
      5          8           0        1.779414    0.000109   -0.024134
 ---------------------------------------------------------------------

 SCF Done:  E(UHF) =  -226.128263065     A.U. after   26 cycles
 E2 =    -0.8028358389D+00 EUMP2 =    -0.22693109890343D+03
 CCSD(T)
 CCSD(T)= -0.22698375642D+03

 The electronic state is 4-A.
 Alpha  occ. eigenvalues --  -20.34137 -11.15029 -11.09531 -11.09133 -11.09128
 Alpha  occ. eigenvalues --   -1.18224  -1.04961  -0.71314  -0.60175  -0.47556
 Alpha  occ. eigenvalues --   -0.43680  -0.41570  -0.36261  -0.33175  -0.24748
 Alpha  occ. eigenvalues --   -0.23552  -0.12621  -0.08871
 Alpha virt. eigenvalues --    0.20261   0.20956   0.21893   0.23192   0.26615
 Alpha virt. eigenvalues --    0.26980   0.27569   0.27827   0.28328   0.30169
 Alpha virt. eigenvalues --    0.30905   0.32659   0.33511   0.34735   0.35276

  Beta  occ. eigenvalues --  -20.33080 -11.13881 -11.07828 -11.07789 -11.04831
  Beta  occ. eigenvalues --   -1.15517  -0.99215  -0.61082  -0.52953  -0.43475
  Beta  occ. eigenvalues --   -0.37908  -0.33174  -0.20948  -0.20069  -0.17061
  Beta virt. eigenvalues --    0.18192   0.20367   0.21992   0.23445   0.24881
  Beta virt. eigenvalues --    0.24891   0.26215   0.27230   0.27766   0.29100
  Beta virt. eigenvalues --    0.29981   0.30977   0.32225   0.32926   0.32950

 Mulliken charges and spin densities:
               1          2
     1  C   -0.215972   0.124265
     2  C   -0.248733   2.033232
     3  C    0.624627   0.538042
     4  C   -0.214863   0.124552
     5  O   -0.945059   0.179909
 Sum of Mulliken charges =  -1.00000   3.00000

 Dipole moment (field-independent basis, Debye):
    X=             -1.5257    Y=             -0.0023    Z=             -0.7690  Tot=              1.7086
 Quadrupole moment (field-independent basis, Debye-Ang):
   XX=            -44.2327   YY=            -36.6225   ZZ=            -32.5171
   XY=              0.0003   XZ=              0.4799   YZ=             -0.0003

 .9319723\CCSD=-226.9323798\CCSD(T)=-226.9837564\S2=3.820692\S2-1=3.778
 Normal termination of Gaussian 09 at Fri Mar  8 08:21:53 2019.
