 Gaussian 09, Revision E.01,
 Gaussian 09:  EM64L-G09RevE.01 30-Nov-2015

 --------------------------------------
 #p ccsd(t,maxcyc=200)/6-311++G(3df,2p)
 --------------------------------------

 -------------
 ccsd(t) iener
 -------------
 Symbolic Z-matrix:
 Charge = -1 Multiplicity = 2

                         Standard orientation:
 ---------------------------------------------------------------------
 Center     Atomic      Atomic             Coordinates (Angstroms)
 Number     Number       Type             X           Y           Z
 ---------------------------------------------------------------------
      1          6           0        0.363064   -0.000229    0.000012
      2          6           0        1.688231   -0.673645   -0.000005
      3          6           0        1.689007    0.673671   -0.000005
      4          6           0       -0.917692   -0.000047    0.000006
      5          8           0       -2.116958    0.000187   -0.000006
 ---------------------------------------------------------------------

 SCF Done:  E(UHF) =  -226.222790547     A.U. after   28 cycles
 E2 =    -0.8155169201D+00 EUMP2 =    -0.22703830746704D+03
 CCSD(T)
 CCSD(T)= -0.22709030954D+03

 The electronic state is 2-A.
 Alpha  occ. eigenvalues --  -20.43319 -11.17727 -11.08764 -11.05595 -11.05413
 Alpha  occ. eigenvalues --   -1.26871  -0.98803  -0.82484  -0.54937  -0.48728
 Alpha  occ. eigenvalues --   -0.46823  -0.39939  -0.37728  -0.30907  -0.20509
 Alpha  occ. eigenvalues --   -0.14664  -0.13334
 Alpha virt. eigenvalues --    0.19131   0.21626   0.22503   0.23245   0.23379
 Alpha virt. eigenvalues --    0.24247   0.26435   0.28085   0.28866   0.29811
 Alpha virt. eigenvalues --    0.32109   0.33391   0.33409   0.35267   0.37327

  Beta  occ. eigenvalues --  -20.41894 -11.16733 -11.09048 -11.05205 -11.05042
  Beta  occ. eigenvalues --   -1.23688  -0.97386  -0.77155  -0.53047  -0.45595
  Beta  occ. eigenvalues --   -0.38307  -0.38193  -0.37524  -0.23498  -0.20012
  Beta  occ. eigenvalues --   -0.14164
  Beta virt. eigenvalues --    0.19165   0.21733   0.21846   0.22516   0.23469
  Beta virt. eigenvalues --    0.23501   0.24300   0.26895   0.28906   0.29364
  Beta virt. eigenvalues --    0.30602   0.32499   0.33510   0.34203   0.35305

 Mulliken charges and spin densities:
               1          2
     1  C    0.367162  -0.172526
     2  C   -0.278517   0.332975
     3  C   -0.278800   0.333561
     4  C    0.083697   0.278064
     5  O   -0.893543   0.227926
 Sum of Mulliken charges =  -1.00000   1.00000

 Dipole moment (field-independent basis, Debye):
    X=             -3.4520    Y=              0.0007    Z=              0.0000  Tot=              3.4520
 Quadrupole moment (field-independent basis, Debye-Ang):
   XX=            -53.4244   YY=            -37.9275   ZZ=            -30.9973
   XY=              0.0037   XZ=              0.0000   YZ=             -0.0000

 0406561\CCSD=-227.038653\CCSD(T)=-227.0903095\S2=0.80096\S2-1=0.775454
 Normal termination of Gaussian 09 at Fri Mar  8 08:28:21 2019.
