 Gaussian 09, Revision E.01,
 Gaussian 09:  EM64L-G09RevE.01 30-Nov-2015

 --------------------------------------
 #p ccsd(t,maxcyc=200)/6-311++G(3df,2p)
 --------------------------------------

 -------------
 ccsd(t) iener
 -------------
 Symbolic Z-matrix:
 Charge = -1 Multiplicity = 4

                         Standard orientation:
 ---------------------------------------------------------------------
 Center     Atomic      Atomic             Coordinates (Angstroms)
 Number     Number       Type             X           Y           Z
 ---------------------------------------------------------------------
      1          6           0        0.000000    0.000000   -0.742785
      2          8           0        0.000000    0.000000    0.557089
 ---------------------------------------------------------------------

 SCF Done:  E(UHF) =  -112.560005515     A.U. after   15 cycles
 E2 =    -0.3361430741D+00 EUMP2 =    -0.11289614858886D+03
 CCSD(T)
 CCSD(T)= -0.11292130311D+03

 The electronic state is 4-SG.
 Alpha  occ. eigenvalues --  -20.27895 -11.05043  -1.08181  -0.56450  -0.31931
 Alpha  occ. eigenvalues --   -0.31931  -0.31911  -0.04868  -0.04868
 Alpha virt. eigenvalues --    0.24768   0.26130   0.28243   0.28243   0.46267
 Alpha virt. eigenvalues --    0.49877   0.49877   0.54850   0.67613   0.67613
 Alpha virt. eigenvalues --    0.68742   0.78898   0.78898   0.86952   0.93833

  Beta  occ. eigenvalues --  -20.24875 -10.98676  -0.98690  -0.33741  -0.17479
  Beta  occ. eigenvalues --   -0.17479
  Beta virt. eigenvalues --    0.21309   0.26171   0.27208   0.27208   0.34717
  Beta virt. eigenvalues --    0.47036   0.48073   0.48073   0.54315   0.54315
  Beta virt. eigenvalues --    0.57677   0.72474   0.72474   0.76397   0.84721

 Mulliken charges and spin densities:
               1          2
     1  C   -0.207815   2.714463
     2  O   -0.792185   0.285537
 Sum of Mulliken charges =  -1.00000   3.00000

 Dipole moment (field-independent basis, Debye):
    X=              0.0000    Y=              0.0000    Z=             -0.3083  Tot=              0.3083
 Quadrupole moment (field-independent basis, Debye-Ang):
   XX=            -15.6808   YY=            -15.6808   ZZ=            -17.3559
   XY=              0.0000   XZ=              0.0000   YZ=              0.0000

 8979706\MP4SDQ=-112.9042397\CCSD=-112.904866\CCSD(T)=-112.9213031\S2=3
 Normal termination of Gaussian 09 at Fri Mar  8 08:39:30 2019.
