 Gaussian 09, Revision E.01,
 Gaussian 09:  EM64L-G09RevE.01 30-Nov-2015

 --------------------------------------
 #p ccsd(t,maxcyc=200)/6-311++G(3df,2p)
 --------------------------------------

 -------------
 ccsd(t) iener
 -------------
 Symbolic Z-matrix:
 Charge = -1 Multiplicity = 3

                         Standard orientation:
 ---------------------------------------------------------------------
 Center     Atomic      Atomic             Coordinates (Angstroms)
 Number     Number       Type             X           Y           Z
 ---------------------------------------------------------------------
      1          1           0        0.000000    0.000000    0.000000
 ---------------------------------------------------------------------

 SCF Done:  E(UHF) = -0.420658842294     A.U. after    7 cycles
 E2 =    -0.2815472474D-04 EUMP2 =    -0.42068699701906D+00
 CCSD(T)
 CCSD(T)= -0.42069168066D+00

 The electronic state is 3-A1G.
 Alpha  occ. eigenvalues --   -0.31071   0.07914
 Alpha virt. eigenvalues --    0.66541   0.91511   0.91511   0.91511   2.81831
 Alpha virt. eigenvalues --    4.18835   4.18835   4.18835
  Beta virt. eigenvalues --    0.19838   0.32887   0.80987   1.01430   1.01430

 Mulliken charges and spin densities:
               1          2
     1  H   -1.000000   2.000000
 Sum of Mulliken charges =  -1.00000   2.00000

 Dipole moment (field-independent basis, Debye):
    X=              0.0000    Y=              0.0000    Z=              0.0000  Tot=              0.0000
 Quadrupole moment (field-independent basis, Debye-Ang):
   XX=            -16.6435   YY=            -16.6435   ZZ=            -16.6435
   XY=              0.0000   XZ=              0.0000   YZ=              0.0000

 915\CCSD=-0.4206917\CCSD(T)=-0.4206917\S2=2.\S2-1=0.\S2A=2.\RMSD=2.070
 Normal termination of Gaussian 09 at Tue Mar 12 00:52:32 2019.
