 Gaussian 09, Revision E.01,
 Gaussian 09:  EM64L-G09RevE.01 30-Nov-2015

 --------------------------------------
 #p ccsd(t,maxcyc=200)/6-311++G(3df,2p)
 --------------------------------------

 -------------
 ccsd(t) iener
 -------------
 Symbolic Z-matrix:
 Charge = -1 Multiplicity = 2

                         Standard orientation:
 ---------------------------------------------------------------------
 Center     Atomic      Atomic             Coordinates (Angstroms)
 Number     Number       Type             X           Y           Z
 ---------------------------------------------------------------------
      1          1           0        0.000000    0.000000    0.386373
      2          1           0        0.000000    0.000000   -0.386373
 ---------------------------------------------------------------------

 SCF Done:  E(UHF) =  -1.06207487483     A.U. after   11 cycles
 E2 =    -0.3189095352D-01 EUMP2 =    -0.10939658283525D+01
 CCSD(T)
 CCSD(T)= -0.11028441016D+01

 The electronic state is 2-SGU.
 Alpha  occ. eigenvalues --   -0.39714   0.06948
 Alpha virt. eigenvalues --    0.19367   0.39227   0.62814   0.85810   0.85810
 Alpha virt. eigenvalues --    0.90310   1.27447   1.28689   1.28689   1.78323
 Alpha virt. eigenvalues --    2.78018   2.94943   3.92514   3.92514   4.16673

  Beta  occ. eigenvalues --   -0.39517
  Beta virt. eigenvalues --    0.22820   0.23437   0.42166   0.63262   0.86025
  Beta virt. eigenvalues --    0.86025   0.91223   1.28514   1.29476   1.29476
  Beta virt. eigenvalues --    1.78945   2.77942   2.95097   3.92453   3.92453

 Mulliken charges and spin densities:
               1          2
     1  H   -0.500000   0.500000
     2  H   -0.500000   0.500000
 Sum of Mulliken charges =  -1.00000   1.00000

 Dipole moment (field-independent basis, Debye):
    X=             -0.0000    Y=              0.0000    Z=             -0.0000  Tot=              0.0000
 Quadrupole moment (field-independent basis, Debye-Ang):
   XX=            -12.3602   YY=            -12.3602   ZZ=            -32.3236
   XY=             -0.0000   XZ=              0.0000   YZ=              0.0000

 =-1.1020533\CCSD=-1.1026674\CCSD(T)=-1.1028441\S2=0.750786\S2-1=0.7501
 Normal termination of Gaussian 09 at Mon Mar 11 22:55:01 2019.
