 Gaussian 09, Revision E.01,
 Gaussian 09:  EM64L-G09RevE.01 30-Nov-2015

 --------------------------------------
 #p ccsd(t,maxcyc=200)/6-311++G(3df,2p)
 --------------------------------------

 -------------
 ccsd(t) iener
 -------------
 Symbolic Z-matrix:
 Charge = -1 Multiplicity = 4

                         Standard orientation:
 ---------------------------------------------------------------------
 Center     Atomic      Atomic             Coordinates (Angstroms)
 Number     Number       Type             X           Y           Z
 ---------------------------------------------------------------------
      1          6           0        1.184073    0.099709   -0.000028
      2          6           0       -0.147620   -0.409575    0.000006
      3          1           0        2.038109   -0.573685    0.000067
      4          1           0        1.388461    1.168532    0.000059
      5          8           0       -1.205661    0.158043    0.000001
 ---------------------------------------------------------------------

 SCF Done:  E(UHF) =  -151.690087239     A.U. after   30 cycles
 E2 =    -0.5027200678D+00 EUMP2 =    -0.15219280730679D+03
 CCSD(T)
 CCSD(T)= -0.15223770714D+03

 The electronic state is 4-A.
 Alpha  occ. eigenvalues --  -20.47817 -11.20467 -11.14894  -1.31973  -0.92332
 Alpha  occ. eigenvalues --   -0.65215  -0.55525  -0.54239  -0.49146  -0.44741
 Alpha  occ. eigenvalues --   -0.29312  -0.24788   0.03618
 Alpha virt. eigenvalues --    0.15482   0.18723   0.22114   0.23471   0.23852
 Alpha virt. eigenvalues --    0.25187   0.28647   0.31311   0.31515   0.31847
 Alpha virt. eigenvalues --    0.37313   0.40612   0.42226   0.44278   0.45600

  Beta  occ. eigenvalues --  -20.45189 -11.18903 -11.12366  -1.25851  -0.81558
  Beta  occ. eigenvalues --   -0.59298  -0.50169  -0.47401  -0.39117  -0.36323
  Beta virt. eigenvalues --    0.16396   0.16814   0.19038   0.20373   0.23927
  Beta virt. eigenvalues --    0.24406   0.25264   0.27737   0.28761   0.31811
  Beta virt. eigenvalues --    0.33447   0.33650   0.38648   0.40262   0.41921

 Mulliken charges and spin densities:
               1          2
     1  C    2.114477  -1.313517
     2  C    0.037101   1.128951
     3  H   -1.922127   2.040747
     4  H   -0.566026   0.703930
     5  O   -0.663425   0.439889
 Sum of Mulliken charges =  -1.00000   3.00000

 Dipole moment (field-independent basis, Debye):
    X=             -9.9093    Y=              1.2000    Z=             -0.0006  Tot=              9.9817
 Quadrupole moment (field-independent basis, Debye-Ang):
   XX=            -71.4942   YY=            -42.2616   ZZ=            -32.7420
   XY=              6.7480   XZ=             -0.0017   YZ=              0.0004

 -152.2142841\CCSD=-152.2137482\CCSD(T)=-152.2377071\S2=3.795267\S2-1=3
 Normal termination of Gaussian 09 at Fri Mar  8 10:27:13 2019.
