 Gaussian 09, Revision E.01,
 Gaussian 09:  EM64L-G09RevE.01 30-Nov-2015

 --------------------------------------
 #p ccsd(t,maxcyc=200)/6-311++G(3df,2p)
 --------------------------------------

 -------------
 ccsd(t) iener
 -------------
 Symbolic Z-matrix:
 Charge = -1 Multiplicity = 2

                         Standard orientation:
 ---------------------------------------------------------------------
 Center     Atomic      Atomic             Coordinates (Angstroms)
 Number     Number       Type             X           Y           Z
 ---------------------------------------------------------------------
      1          6           0        1.259721    0.223341   -0.000010
      2          6           0        0.131444   -0.361758    0.000066
      3          1           0        2.281492   -0.107607   -0.000107
      4          1           0       -1.230807    0.985202    0.000146
      5          8           0       -1.174709   -0.005887   -0.000047
 ---------------------------------------------------------------------

 SCF Done:  E(UHF) =  -151.664921857     A.U. after   43 cycles
 E2 =    -0.5479745918D+00 EUMP2 =    -0.15221289644912D+03
 CCSD(T)
 CCSD(T)= -0.15227189590D+03

 The electronic state is 2-A.
 Alpha  occ. eigenvalues --  -20.41916 -11.11446 -11.01745  -1.22622  -0.81441
 Alpha  occ. eigenvalues --   -0.60441  -0.49588  -0.41481  -0.41460  -0.25368
 Alpha  occ. eigenvalues --   -0.16751   0.01259
 Alpha virt. eigenvalues --    0.16425   0.19551   0.21501   0.25878   0.26948
 Alpha virt. eigenvalues --    0.26974   0.28765   0.32466   0.33203   0.34243
 Alpha virt. eigenvalues --    0.39994   0.42492   0.44285   0.45762   0.47506

  Beta  occ. eigenvalues --  -20.41479 -11.08889 -11.03546  -1.20752  -0.80838
  Beta  occ. eigenvalues --   -0.58515  -0.48977  -0.40905  -0.38649  -0.20744
  Beta  occ. eigenvalues --   -0.17737
  Beta virt. eigenvalues --    0.16503   0.19326   0.22399   0.26380   0.27066
  Beta virt. eigenvalues --    0.27339   0.27979   0.30225   0.33905   0.34775
  Beta virt. eigenvalues --    0.36961   0.41599   0.43363   0.45359   0.47163

 Mulliken charges and spin densities:
               1          2
     1  C   -0.434818  -0.975193
     2  C    0.668298   0.990395
     3  H   -0.142627   0.301016
     4  H   -0.470999   0.833839
     5  O   -0.619854  -0.150057
 Sum of Mulliken charges =  -1.00000   1.00000

 Dipole moment (field-independent basis, Debye):
    X=             -0.3358    Y=             -3.7679    Z=              0.0000  Tot=              3.7829
 Quadrupole moment (field-independent basis, Debye-Ang):
   XX=            -31.7165   YY=            -35.4559   ZZ=            -27.8643
   XY=             -2.6446   XZ=             -0.0002   YZ=              0.0001

 2.2296447\CCSD=-152.2412349\CCSD(T)=-152.2718959\S2=1.065628\S2-1=1.00
 Normal termination of Gaussian 09 at Fri Mar  8 10:10:30 2019.
