 Gaussian 09, Revision E.01,
 Gaussian 09:  EM64L-G09RevE.01 30-Nov-2015

 --------------------------------------
 #p ccsd(t,maxcyc=200)/6-311++G(3df,2p)
 --------------------------------------

 -------------
 ccsd(t) iener
 -------------
 Symbolic Z-matrix:
 Charge = -1 Multiplicity = 2

                         Standard orientation:
 ---------------------------------------------------------------------
 Center     Atomic      Atomic             Coordinates (Angstroms)
 Number     Number       Type             X           Y           Z
 ---------------------------------------------------------------------
      1          6           0        1.185144    0.086150   -0.000033
      2          6           0       -0.104805   -0.345789    0.000037
      3          1           0        2.010689   -0.609464   -0.000004
      4          1           0        1.415918    1.160207    0.000090
      5          8           0       -1.238580    0.125886   -0.000014
 ---------------------------------------------------------------------

 SCF Done:  E(UHF) =  -151.750145982     A.U. after   22 cycles
 E2 =    -0.5521568954D+00 EUMP2 =    -0.15230230287713D+03
 CCSD(T)
 CCSD(T)= -0.15234172325D+03

 The electronic state is 2-A.
 Alpha  occ. eigenvalues --  -20.31543 -11.06988 -10.98316  -1.14883  -0.77111
 Alpha  occ. eigenvalues --   -0.50432  -0.41374  -0.39853  -0.32843  -0.31216
 Alpha  occ. eigenvalues --   -0.09148  -0.09129
 Alpha virt. eigenvalues --    0.17401   0.18434   0.23318   0.27274   0.28214
 Alpha virt. eigenvalues --    0.28325   0.28556   0.33334   0.34641   0.35769
 Alpha virt. eigenvalues --    0.42970   0.43994   0.46583   0.51012   0.51451

  Beta  occ. eigenvalues --  -20.30083 -11.05121 -10.98282  -1.11049  -0.74298
  Beta  occ. eigenvalues --   -0.46827  -0.37824  -0.35855  -0.30595  -0.22715
  Beta  occ. eigenvalues --   -0.09419
  Beta virt. eigenvalues --    0.17244   0.18473   0.23083   0.27195   0.28424
  Beta virt. eigenvalues --    0.28692   0.28706   0.31520   0.34547   0.35873
  Beta virt. eigenvalues --    0.40073   0.44606   0.45725   0.47445   0.52232

 Mulliken charges and spin densities:
               1          2
     1  C   -0.420425  -0.458610
     2  C    0.231600   1.148003
     3  H    0.058197   0.009956
     4  H   -0.001885   0.130925
     5  O   -0.867488   0.169725
 Sum of Mulliken charges =  -1.00000   1.00000

 Dipole moment (field-independent basis, Debye):
    X=              1.0171    Y=              0.1513    Z=              0.0003  Tot=              1.0282
 Quadrupole moment (field-independent basis, Debye-Ang):
   XX=            -29.4736   YY=            -22.3880   ZZ=            -23.9221
   XY=              0.0842   XZ=              0.0003   YZ=              0.0003

 3149858\CCSD=-152.3138575\CCSD(T)=-152.3417232\S2=0.773353\S2-1=0.7604
 Normal termination of Gaussian 09 at Fri Mar  8 10:08:12 2019.
