 Gaussian 09, Revision E.01,
 Gaussian 09:  EM64L-G09RevE.01 30-Nov-2015

 --------------------------------------
 #p ccsd(t,maxcyc=200)/6-311++G(3df,2p)
 --------------------------------------

 -------------
 ccsd(t) iener
 -------------
 Symbolic Z-matrix:
 Charge = -1 Multiplicity = 4

                         Standard orientation:
 ---------------------------------------------------------------------
 Center     Atomic      Atomic             Coordinates (Angstroms)
 Number     Number       Type             X           Y           Z
 ---------------------------------------------------------------------
      1          6           0       -0.079462    0.428985   -0.000011
      2          6           0        1.237974   -0.066646   -0.000018
      3          1           0        1.733282   -1.025946    0.000088
      4          1           0       -0.223786    1.515538    0.000075
      5          8           0       -1.057571   -0.332953    0.000001
 ---------------------------------------------------------------------

 SCF Done:  E(UHF) =  -151.670863353     A.U. after   34 cycles
 E2 =    -0.4765409564D+00 EUMP2 =    -0.15214740430902D+03
 CCSD(T)
 CCSD(T)= -0.15220441042D+03

 The electronic state is 4-A.
 Alpha  occ. eigenvalues --  -20.47044 -11.18634 -11.15132  -1.30268  -0.90872
 Alpha  occ. eigenvalues --   -0.67373  -0.55932  -0.53681  -0.50150  -0.36094
 Alpha  occ. eigenvalues --   -0.31574  -0.29823   0.04203
 Alpha virt. eigenvalues --    0.13697   0.19786   0.21378   0.23831   0.23953
 Alpha virt. eigenvalues --    0.24876   0.27678   0.29688   0.31791   0.32423
 Alpha virt. eigenvalues --    0.38129   0.39028   0.41847   0.45945   0.46841

  Beta  occ. eigenvalues --  -20.44229 -11.19820 -11.10631  -1.23382  -0.80529
  Beta  occ. eigenvalues --   -0.62903  -0.51595  -0.50654  -0.35984  -0.31718
  Beta virt. eigenvalues --    0.15667   0.18778   0.19206   0.19608   0.23387
  Beta virt. eigenvalues --    0.23853   0.26157   0.26787   0.28503   0.30356
  Beta virt. eigenvalues --    0.32771   0.34096   0.37699   0.38568   0.41349

 Mulliken charges and spin densities:
               1          2
     1  C    1.157423  -1.206256
     2  C    1.899290  -0.124761
     3  H   -2.466843   2.629770
     4  H   -0.934355   1.060483
     5  O   -0.655516   0.640764
 Sum of Mulliken charges =  -1.00000   3.00000

 Dipole moment (field-independent basis, Debye):
    X=             -7.0761    Y=              3.9125    Z=             -0.0009  Tot=              8.0857
 Quadrupole moment (field-independent basis, Debye-Ang):
   XX=            -57.6840   YY=            -52.7458   ZZ=            -34.1870
   XY=              8.1413   XZ=             -0.0015   YZ=              0.0010

 -152.1765153\CCSD=-152.1820128\CCSD(T)=-152.2044104\S2=3.928685\S2-1=3
 Normal termination of Gaussian 09 at Fri Mar  8 10:29:19 2019.
