 Gaussian 09, Revision E.01,
 Gaussian 09:  EM64L-G09RevE.01 30-Nov-2015

 --------------------------------------
 #p ccsd(t,maxcyc=200)/6-311++G(3df,2p)
 --------------------------------------

 -------------
 ccsd(t) iener
 -------------
 Symbolic Z-matrix:
 Charge = -1 Multiplicity = 2

                         Standard orientation:
 ---------------------------------------------------------------------
 Center     Atomic      Atomic             Coordinates (Angstroms)
 Number     Number       Type             X           Y           Z
 ---------------------------------------------------------------------
      1          6           0       -1.321284    0.024095   -0.000143
      2          6           0       -0.119371   -0.025951    0.000025
      3          1           0       -2.380443    0.051440    0.000548
      4          1           0        1.606724    0.797009    0.000014
      5          8           0        1.177206   -0.104664    0.000018
 ---------------------------------------------------------------------

 SCF Done:  E(UHF) =  -151.693057716     A.U. after   28 cycles
 E2 =    -0.5512634842D+00 EUMP2 =    -0.15224432120023D+03
 CCSD(T)
 CCSD(T)= -0.15227943706D+03

 The electronic state is 2-A.
 Alpha  occ. eigenvalues --  -20.47289 -11.16316 -11.07809  -1.28873  -0.88160
 Alpha  occ. eigenvalues --   -0.66208  -0.57000  -0.50486  -0.46411  -0.25115
 Alpha  occ. eigenvalues --   -0.23278   0.02565
 Alpha virt. eigenvalues --    0.12742   0.21107   0.23145   0.23343   0.25175
 Alpha virt. eigenvalues --    0.25452   0.26795   0.29644   0.31911   0.35920
 Alpha virt. eigenvalues --    0.39881   0.41991   0.45259   0.45745   0.46909

  Beta  occ. eigenvalues --  -20.47051 -11.16265 -11.07829  -1.28252  -0.88021
  Beta  occ. eigenvalues --   -0.65714  -0.56955  -0.50238  -0.46165  -0.25100
  Beta  occ. eigenvalues --   -0.23276
  Beta virt. eigenvalues --    0.12947   0.20881   0.22198   0.23419   0.24779
  Beta virt. eigenvalues --    0.26456   0.26960   0.27220   0.31531   0.32549
  Beta virt. eigenvalues --    0.37781   0.40133   0.43477   0.45954   0.46297

 Mulliken charges and spin densities:
               1          2
     1  C    0.513498  -0.545487
     2  C    1.064823  -0.999947
     3  H   -0.094311   0.390213
     4  H   -1.752363   2.114793
     5  O   -0.731647   0.040428
 Sum of Mulliken charges =  -1.00000   1.00000

 Dipole moment (field-independent basis, Debye):
    X=             -8.3585    Y=             -5.5946    Z=              0.0002  Tot=             10.0580
 Quadrupole moment (field-independent basis, Debye-Ang):
   XX=            -52.2672   YY=            -40.5831   ZZ=            -31.8414
   XY=            -12.4993   XZ=             -0.0027   YZ=             -0.0005

 152.2525921\CCSD=-152.2521115\CCSD(T)=-152.2794371\S2=0.750459\S2-1=0.
 Normal termination of Gaussian 09 at Fri Mar  8 10:07:48 2019.
