 Gaussian 09, Revision E.01,
 Gaussian 09:  EM64L-G09RevE.01 30-Nov-2015

 --------------------------------------
 #p ccsd(t,maxcyc=200)/6-311++G(3df,2p)
 --------------------------------------

 -------------
 ccsd(t) iener
 -------------
 Symbolic Z-matrix:
 Charge = -1 Multiplicity = 2

                         Standard orientation:
 ---------------------------------------------------------------------
 Center     Atomic      Atomic             Coordinates (Angstroms)
 Number     Number       Type             X           Y           Z
 ---------------------------------------------------------------------
      1          6           0        1.303348    0.614134    0.000000
      2          6           0       -0.000000    0.424189   -0.000000
      3          1           0       -0.737754    1.245005   -0.000000
      4          1           0       -1.626037   -0.654122   -0.000000
      5          8           0       -0.682037   -0.852603    0.000000
 ---------------------------------------------------------------------

 SCF Done:  E(UHF) =  -151.672765423     A.U. after   26 cycles
 E2 =    -0.5401359261D+00 EUMP2 =    -0.15221290134917D+03
 CCSD(T)
 CCSD(T)= -0.15226039878D+03

 The electronic state is 2-A'.
 Alpha  occ. eigenvalues --  -20.37836 -11.03473 -10.96870  -1.16540  -0.77309
 Alpha  occ. eigenvalues --   -0.51150  -0.49985  -0.34571  -0.34088  -0.19280
 Alpha  occ. eigenvalues --   -0.11403  -0.08991
 Alpha virt. eigenvalues --    0.15738   0.18480   0.25337   0.27399   0.28756
 Alpha virt. eigenvalues --    0.29508   0.29906   0.30849   0.35302   0.36163
 Alpha virt. eigenvalues --    0.41439   0.44138   0.44205   0.47688   0.48165

  Beta  occ. eigenvalues --  -20.37560 -11.04378 -10.94539  -1.15803  -0.73788
  Beta  occ. eigenvalues --   -0.49041  -0.47169  -0.35617  -0.32392  -0.13673
  Beta  occ. eigenvalues --   -0.11190
  Beta virt. eigenvalues --    0.15669   0.18493   0.25624   0.26784   0.27707
  Beta virt. eigenvalues --    0.29330   0.29537   0.30223   0.35020   0.36749
  Beta virt. eigenvalues --    0.39735   0.43942   0.44794   0.45040   0.48625

 Mulliken charges and spin densities:
               1          2
     1  C   -0.974367   1.434920
     2  C    0.467243  -0.567165
     3  H   -0.000453   0.101786
     4  H    0.196128   0.025628
     5  O   -0.688552   0.004830
 Sum of Mulliken charges =  -1.00000   1.00000

 Dipole moment (field-independent basis, Debye):
    X=             -6.5665    Y=             -1.2213    Z=             -0.0000  Tot=              6.6791
 Quadrupole moment (field-independent basis, Debye-Ang):
   XX=            -29.9649   YY=            -26.7825   ZZ=            -24.0238
   XY=             -4.8552   XZ=             -0.0000   YZ=              0.0000

 92\PMP3-0=-152.230204\MP4SDQ=-152.2322693\CCSD=-152.2337858\CCSD(T)=-1
 Normal termination of Gaussian 09 at Fri Mar  8 10:06:08 2019.
