 Gaussian 09, Revision E.01,
 Gaussian 09:  EM64L-G09RevE.01 30-Nov-2015

 --------------------------------------
 #p ccsd(t,maxcyc=200)/6-311++G(3df,2p)
 --------------------------------------

 -------------
 ccsd(t) iener
 -------------
 Symbolic Z-matrix:
 Charge = -1 Multiplicity = 2

                         Standard orientation:
 ---------------------------------------------------------------------
 Center     Atomic      Atomic             Coordinates (Angstroms)
 Number     Number       Type             X           Y           Z
 ---------------------------------------------------------------------
      1          6           0        1.347985   -0.345133    0.000016
      2          6           0        0.254959    0.398127   -0.000045
      3          1           0        0.205804    1.490458    0.000107
      4          1           0       -0.989165   -1.054420    0.000012
      5          8           0       -1.104288   -0.094250    0.000008
 ---------------------------------------------------------------------

 SCF Done:  E(UHF) =  -151.682821600     A.U. after   27 cycles
 E2 =    -0.5402718063D+00 EUMP2 =    -0.15222309340586D+03
 CCSD(T)
 CCSD(T)= -0.15227030390D+03

 The electronic state is 2-A.
 Alpha  occ. eigenvalues --  -20.37443 -11.03542 -10.97436  -1.16456  -0.76943
 Alpha  occ. eigenvalues --   -0.56132  -0.41254  -0.38567  -0.34394  -0.19684
 Alpha  occ. eigenvalues --   -0.11671  -0.09623
 Alpha virt. eigenvalues --    0.17425   0.18379   0.24889   0.27659   0.27841
 Alpha virt. eigenvalues --    0.29395   0.29881   0.32052   0.35056   0.35847
 Alpha virt. eigenvalues --    0.42256   0.43905   0.45393   0.47484   0.49393

  Beta  occ. eigenvalues --  -20.37090 -11.04485 -10.95126  -1.15409  -0.73577
  Beta  occ. eigenvalues --   -0.53642  -0.38405  -0.36669  -0.35479  -0.14186
  Beta  occ. eigenvalues --   -0.11328
  Beta virt. eigenvalues --    0.17468   0.18182   0.24745   0.27791   0.27964
  Beta virt. eigenvalues --    0.28104   0.28842   0.31651   0.34489   0.36361
  Beta virt. eigenvalues --    0.39789   0.44789   0.44837   0.45730   0.48638

 Mulliken charges and spin densities:
               1          2
     1  C   -0.958170   1.466600
     2  C    0.454083  -0.605106
     3  H    0.018553   0.085200
     4  H    0.203345   0.030824
     5  O   -0.717811   0.022481
 Sum of Mulliken charges =  -1.00000   1.00000

 Dipole moment (field-independent basis, Debye):
    X=             -4.5301    Y=              0.9457    Z=              0.0002  Tot=              4.6278
 Quadrupole moment (field-independent basis, Debye-Ang):
   XX=            -36.0404   YY=            -21.4472   ZZ=            -24.0728
   XY=              4.8405   XZ=              0.0001   YZ=              0.0002

 =-152.2422962\CCSD=-152.2437218\CCSD(T)=-152.2703039\S2=0.832418\S2-1=
 Normal termination of Gaussian 09 at Fri Mar  8 08:47:54 2019.
