 Gaussian 09, Revision E.01,
 Gaussian 09:  EM64L-G09RevE.01 30-Nov-2015

 --------------------------------------
 #p ccsd(t,maxcyc=200)/6-311++G(3df,2p)
 --------------------------------------

 -------------
 ccsd(t) iener
 -------------
 Symbolic Z-matrix:
 Charge = -1 Multiplicity = 2

                         Standard orientation:
 ---------------------------------------------------------------------
 Center     Atomic      Atomic             Coordinates (Angstroms)
 Number     Number       Type             X           Y           Z
 ---------------------------------------------------------------------
      1          6           0       -0.134506   -0.052629   -0.000208
      2          6           0        1.041779   -0.830373    0.000276
      3          6           0        1.039120    0.575479   -0.000351
      4          1           0       -1.801142    0.864057    0.001121
      5          1           0        1.617875    1.481610    0.001029
      6          8           0       -1.436886   -0.062566   -0.000057
 ---------------------------------------------------------------------

 SCF Done:  E(UHF) =  -189.467334499     A.U. after   47 cycles
 E2 =    -0.7006557232D+00 EUMP2 =    -0.19016799022222D+03
 CCSD(T)
 CCSD(T)= -0.19021497646D+03

 The electronic state is 2-A.
 Alpha  occ. eigenvalues --  -20.46200 -11.11421 -11.03738 -10.99489  -1.27299
 Alpha  occ. eigenvalues --   -0.97938  -0.66066  -0.57302  -0.51331  -0.44516
 Alpha  occ. eigenvalues --   -0.38959  -0.26212  -0.25699  -0.14089   0.06430
 Alpha virt. eigenvalues --    0.14113   0.16398   0.22537   0.24419   0.26451
 Alpha virt. eigenvalues --    0.26984   0.28016   0.28387   0.31025   0.31941
 Alpha virt. eigenvalues --    0.32991   0.33635   0.36390   0.37576   0.40752

  Beta  occ. eigenvalues --  -20.46319 -11.11861 -11.03084 -10.98643  -1.27644
  Beta  occ. eigenvalues --   -0.96901  -0.66024  -0.55157  -0.50960  -0.45308
  Beta  occ. eigenvalues --   -0.37691  -0.24964  -0.21342  -0.12408
  Beta virt. eigenvalues --    0.14269   0.16848   0.22719   0.24624   0.27007
  Beta virt. eigenvalues --    0.27297   0.28199   0.28691   0.29001   0.31296
  Beta virt. eigenvalues --    0.32277   0.34250   0.36971   0.38435   0.41378

 Mulliken charges and spin densities:
               1          2
     1  C    0.426617  -0.202775
     2  C   -0.807121   0.592819
     3  C   -0.340473   0.712162
     4  H    0.268455   0.000271
     5  H    0.196576  -0.087550
     6  O   -0.744053  -0.014927
 Sum of Mulliken charges =  -1.00000   1.00000

 Dipole moment (field-independent basis, Debye):
    X=             -5.8836    Y=              3.7751    Z=              0.0083  Tot=              6.9906
 Quadrupole moment (field-independent basis, Debye-Ang):
   XX=            -34.6986   YY=            -37.6379   ZZ=            -35.2575
   XY=              0.3631   XZ=              0.0068   YZ=              0.0202

 Normal termination of Gaussian 09 at Fri Mar  8 12:53:24 2019.
