 Gaussian 09, Revision E.01,
 Gaussian 09:  EM64L-G09RevE.01 30-Nov-2015

 --------------------------------------
 #p ccsd(t,maxcyc=200)/6-311++G(3df,2p)
 --------------------------------------

 -------------
 ccsd(t) iener
 -------------
 Symbolic Z-matrix:
 Charge = -1 Multiplicity = 2

                         Standard orientation:
 ---------------------------------------------------------------------
 Center     Atomic      Atomic             Coordinates (Angstroms)
 Number     Number       Type             X           Y           Z
 ---------------------------------------------------------------------
      1          6           0        0.000000    1.054211    0.000000
      2          6           0       -0.659231   -1.109919   -0.000000
      3          8           0       -1.106997    0.253370   -0.000000
      4          6           0        0.666461   -1.050627   -0.000000
      5          6           0        1.138660    0.300298    0.000000
      6          1           0       -0.167857    2.122862    0.000000
      7          1           0        2.148490    0.686395    0.000000
 ---------------------------------------------------------------------

 SCF Done:  E(UHF) =  -227.402109067     A.U. after   34 cycles
 E2 =    -0.8373618946D+00 EUMP2 =    -0.22823947096203D+03
 CCSD(T)
 CCSD(T)= -0.22830722818D+03

 The electronic state is 2-A'.
 Alpha  occ. eigenvalues --  -20.40067 -11.09491 -11.04742 -11.02323 -11.00801
 Alpha  occ. eigenvalues --   -1.22012  -0.88229  -0.77788  -0.58769  -0.53492
 Alpha  occ. eigenvalues --   -0.49974  -0.41113  -0.38669  -0.33903  -0.23927
 Alpha  occ. eigenvalues --   -0.20895  -0.11942  -0.11454
 Alpha virt. eigenvalues --    0.14481   0.15390   0.22614   0.24237   0.25062
 Alpha virt. eigenvalues --    0.26194   0.26652   0.28475   0.29055   0.29850
 Alpha virt. eigenvalues --    0.30225   0.30928   0.30936   0.31352   0.34459

  Beta  occ. eigenvalues --  -20.39494 -11.08804 -11.05167 -11.01187 -10.99212
  Beta  occ. eigenvalues --   -1.20533  -0.85815  -0.75610  -0.58231  -0.50350
  Beta  occ. eigenvalues --   -0.47119  -0.39704  -0.37662  -0.32373  -0.19477
  Beta  occ. eigenvalues --   -0.12542  -0.09325
  Beta virt. eigenvalues --    0.14483   0.15330   0.21675   0.23873   0.24756
  Beta virt. eigenvalues --    0.25965   0.27059   0.28258   0.28901   0.29667
  Beta virt. eigenvalues --    0.30105   0.30381   0.31084   0.31374   0.32776

 Mulliken charges and spin densities:
               1          2
     1  C    0.083771   0.387786
     2  C   -0.736429  -0.422043
     3  O   -0.770157   0.082843
     4  C    0.369925   1.478324
     5  C   -0.160401  -0.526538
     6  H    0.095726  -0.024663
     7  H    0.117565   0.024292
 Sum of Mulliken charges =  -1.00000   1.00000

 Dipole moment (field-independent basis, Debye):
    X=              2.9770    Y=              4.7972    Z=              0.0000  Tot=              5.6459
 Quadrupole moment (field-independent basis, Debye-Ang):
   XX=            -38.5425   YY=            -41.0662   ZZ=            -35.5888
   XY=             -3.9014   XZ=             -0.0000   YZ=             -0.0000

 77\CCSD(T)=-228.3072282\S2=0.885284\S2-1=0.85053\S2A=0.760667\RMSD=7.7
 Normal termination of Gaussian 09 at Fri Mar  8 16:00:52 2019.
