 Gaussian 09, Revision E.01,
 Gaussian 09:  EM64L-G09RevE.01 30-Nov-2015

 ----------------------------------------------
 #p ccsd(t,maxcyc=200)/6-311++G(3df,2p) scf(QC)
 ----------------------------------------------

 -------------
 ccsd(t) iener
 -------------
 Symbolic Z-matrix:
 Charge = -1 Multiplicity = 4

                         Standard orientation:
 ---------------------------------------------------------------------
 Center     Atomic      Atomic             Coordinates (Angstroms)
 Number     Number       Type             X           Y           Z
 ---------------------------------------------------------------------
      1          6           0        0.291539    0.995034    0.003747
      2          6           0       -0.967622   -0.832055    0.099319
      3          8           0       -1.001302    0.552371   -0.060167
      4          6           0        0.371186   -1.181474   -0.059409
      5          6           0        1.190015   -0.063596   -0.000820
      6          1           0        0.436619    2.055236    0.154047
      7          1           0        2.263086    0.018335    0.070263
 ---------------------------------------------------------------------

 SCF Done:  E(UHF) =  -227.345651264     a.u. after  122 cycles
 E2 =    -0.7647905260D+00 EUMP2 =    -0.22811044179039D+03
 CCSD(T)
 CCSD(T)= -0.22819577141D+03

 The electronic state is 4-A.
 Alpha  occ. eigenvalues --  -20.51337 -11.20036 -11.19207 -11.17382 -11.12907
 Alpha  occ. eigenvalues --   -1.35030  -1.00964  -0.90478  -0.69429  -0.66544
 Alpha  occ. eigenvalues --   -0.60492  -0.53846  -0.49068  -0.44576  -0.37325
 Alpha  occ. eigenvalues --   -0.33508  -0.30522  -0.24722   0.03046
 Alpha virt. eigenvalues --    0.13956   0.18240   0.19442   0.20197   0.21419
 Alpha virt. eigenvalues --    0.22279   0.24266   0.24462   0.25959   0.26415
 Alpha virt. eigenvalues --    0.27195   0.28595   0.29405   0.30025   0.31238

  Beta  occ. eigenvalues --  -20.51250 -11.18513 -11.18202 -11.13821 -11.13376
  Beta  occ. eigenvalues --   -1.33545  -0.96798  -0.84076  -0.67654  -0.61041
  Beta  occ. eigenvalues --   -0.56279  -0.50543  -0.47807  -0.43266  -0.29751
  Beta  occ. eigenvalues --   -0.26990
  Beta virt. eigenvalues --    0.13611   0.15765   0.16618   0.19025   0.20520
  Beta virt. eigenvalues --    0.21215   0.22420   0.23561   0.24942   0.25665
  Beta virt. eigenvalues --    0.26531   0.27606   0.28230   0.28622   0.31370

 Mulliken charges and spin densities:
               1          2
     1  C    2.614825  -1.577381
     2  C   -0.747641   0.675950
     3  O   -0.753834  -0.028759
     4  C    2.090513   0.114159
     5  C    0.086148  -0.866993
     6  H   -1.533871   1.671365
     7  H   -2.756139   3.011660
 Sum of Mulliken charges =  -1.00000   3.00000

 Dipole moment (field-independent basis, Debye):
    X=             -8.6966    Y=             -4.9908    Z=             -1.5164  Tot=             10.1409
 Quadrupole moment (field-independent basis, Debye-Ang):
   XX=            -82.2545   YY=            -64.5060   ZZ=            -48.6144
   XY=            -11.4455   XZ=             -1.7980   YZ=             -1.2555

 4SDQ=-228.1425662\CCSD=-228.1514025\CCSD(T)=-228.1957714\S2=4.125423\S
 Normal termination of Gaussian 09 at Sat Mar  9 20:18:41 2019.
