 Gaussian 09, Revision E.01,
 Gaussian 09:  EM64L-G09RevE.01 30-Nov-2015

 --------------------------------------
 #p ccsd(t,maxcyc=200)/6-311++G(3df,2p)
 --------------------------------------

 -------------
 ccsd(t) iener
 -------------
 Symbolic Z-matrix:
 Charge = -1 Multiplicity = 2

                         Standard orientation:
 ---------------------------------------------------------------------
 Center     Atomic      Atomic             Coordinates (Angstroms)
 Number     Number       Type             X           Y           Z
 ---------------------------------------------------------------------
      1          6           0        1.034189    0.495496    0.000076
      2          6           0       -2.781152   -0.154795    0.000072
      3          6           0       -0.195359    0.049702   -0.000113
      4          6           0       -1.516521   -0.020752   -0.000056
      5          1           0        1.868528   -1.224709    0.000338
      6          1           0        1.335610    1.539788    0.000115
      7          8           0        2.193615   -0.316623   -0.000040
 ---------------------------------------------------------------------

 SCF Done:  E(UHF) =  -227.426156062     A.U. after   25 cycles
 E2 =    -0.7992445855D+00 EUMP2 =    -0.22822540064718D+03
 CCSD(T)
 CCSD(T)= -0.22831284019D+03

 The electronic state is 2-A.
 Alpha  occ. eigenvalues --  -20.43665 -11.11843 -11.07293 -11.01026 -11.00588
 Alpha  occ. eigenvalues --   -1.23254  -0.89575  -0.79160  -0.66962  -0.58023
 Alpha  occ. eigenvalues --   -0.48664  -0.42609  -0.40602  -0.27550  -0.27422
 Alpha  occ. eigenvalues --   -0.23183  -0.13250  -0.13139
 Alpha virt. eigenvalues --    0.15109   0.15709   0.21720   0.23025   0.23809
 Alpha virt. eigenvalues --    0.25793   0.26253   0.27134   0.28890   0.29874
 Alpha virt. eigenvalues --    0.30302   0.30757   0.34443   0.34544   0.35427

  Beta  occ. eigenvalues --  -20.43647 -11.13502 -11.04551 -11.02384 -10.98745
  Beta  occ. eigenvalues --   -1.23289  -0.86748  -0.78758  -0.63315  -0.56935
  Beta  occ. eigenvalues --   -0.46959  -0.43809  -0.41844  -0.26699  -0.20517
  Beta  occ. eigenvalues --   -0.17986  -0.14550
  Beta virt. eigenvalues --    0.14929   0.15660   0.21766   0.23536   0.23956
  Beta virt. eigenvalues --    0.24721   0.25960   0.26418   0.26436   0.29316
  Beta virt. eigenvalues --    0.29367   0.30754   0.32540   0.35004   0.35444

 Mulliken charges and spin densities:
               1          2
     1  C    0.118376  -0.931356
     2  C   -1.082625   1.254447
     3  C   -0.010703   1.588229
     4  C    0.376829  -1.041283
     5  H    0.239678   0.010180
     6  H    0.117202   0.108129
     7  O   -0.758755   0.011654
 Sum of Mulliken charges =  -1.00000   1.00000

 Dipole moment (field-independent basis, Debye):
    X=              8.2560    Y=              0.0267    Z=              0.0004  Tot=              8.2561
 Quadrupole moment (field-independent basis, Debye-Ang):
   XX=            -72.5999   YY=            -30.2736   ZZ=            -34.7340
   XY=             -2.7253   XZ=              0.0021   YZ=             -0.0010

 81\CCSD=-228.2664345\CCSD(T)=-228.3128402\S2=1.27739\S2-1=1.15609\S2A=
 Normal termination of Gaussian 09 at Fri Mar  8 13:06:56 2019.
