 Gaussian 09, Revision E.01,
 Gaussian 09:  EM64L-G09RevE.01 30-Nov-2015

 --------------------------------------
 #p ccsd(t,maxcyc=200)/6-311++G(3df,2p)
 --------------------------------------

 -------------
 ccsd(t) iener
 -------------
 Symbolic Z-matrix:
 Charge = -1 Multiplicity = 2

                         Standard orientation:
 ---------------------------------------------------------------------
 Center     Atomic      Atomic             Coordinates (Angstroms)
 Number     Number       Type             X           Y           Z
 ---------------------------------------------------------------------
      1          6           0        0.000000   -1.093409    0.222599
      2          6           0        0.000000    1.093409    0.222599
      3          8           0       -0.000000    0.000000    1.091477
      4          6           0       -0.000000    0.691877   -1.072104
      5          6           0       -0.000000   -0.691877   -1.072104
      6          1           0        0.000000   -2.045983    0.731120
      7          1           0        0.000000    2.045983    0.731120
 ---------------------------------------------------------------------

 SCF Done:  E(UHF) =  -227.393263489     A.U. after   20 cycles
 E2 =    -0.8662157287D+00 EUMP2 =    -0.22825947921781D+03
 CCSD(T)
 CCSD(T)= -0.22831514220D+03

 The electronic state is 2-B2.
 Alpha  occ. eigenvalues --  -20.41350 -11.08536 -11.08532 -11.01912 -11.01784
 Alpha  occ. eigenvalues --   -1.23193  -0.87899  -0.78484  -0.57399  -0.55996
 Alpha  occ. eigenvalues --   -0.49342  -0.41687  -0.39354  -0.34706  -0.22859
 Alpha  occ. eigenvalues --   -0.19604  -0.17421  -0.11072
 Alpha virt. eigenvalues --    0.15294   0.15519   0.23196   0.23282   0.24616
 Alpha virt. eigenvalues --    0.24681   0.28222   0.28561   0.29227   0.29768
 Alpha virt. eigenvalues --    0.30773   0.31173   0.31883   0.32701   0.35007

  Beta  occ. eigenvalues --  -20.41410 -11.08322 -11.08318 -10.99906 -10.99769
  Beta  occ. eigenvalues --   -1.23125  -0.84853  -0.77249  -0.57045  -0.52277
  Beta  occ. eigenvalues --   -0.45918  -0.42591  -0.38741  -0.33241  -0.17215
  Beta  occ. eigenvalues --   -0.11494  -0.07025
  Beta virt. eigenvalues --    0.15179   0.15509   0.21562   0.23568   0.24721
  Beta virt. eigenvalues --    0.25044   0.26378   0.28617   0.28658   0.29285
  Beta virt. eigenvalues --    0.29587   0.31244   0.31743   0.32010   0.32630

 Mulliken charges and spin densities:
               1          2
     1  C   -0.067859  -0.249210
     2  C   -0.067859  -0.249210
     3  O   -0.795386   0.006264
     4  C   -0.143763   0.748465
     5  C   -0.143763   0.748465
     6  H    0.109316  -0.002388
     7  H    0.109316  -0.002388
 Sum of Mulliken charges =  -1.00000   1.00000

 Dipole moment (field-independent basis, Debye):
    X=              0.0000    Y=              0.0000    Z=              4.1434  Tot=              4.1434
 Quadrupole moment (field-independent basis, Debye-Ang):
   XX=            -35.8375   YY=            -36.0820   ZZ=            -44.8661
   XY=             -0.0000   XZ=              0.0000   YZ=             -0.0000

 152\CCSD=-228.2641864\CCSD(T)=-228.3151422\S2=0.834819\S2-1=0.800749\S
 Normal termination of Gaussian 09 at Fri Mar  8 14:22:01 2019.
