 Gaussian 09, Revision E.01,
 Gaussian 09:  EM64L-G09RevE.01 30-Nov-2015

 --------------------------------------
 #p ccsd(t,maxcyc=200)/6-311++G(3df,2p)
 --------------------------------------

 -------------
 ccsd(t) iener
 -------------
 Symbolic Z-matrix:
 Charge = -1 Multiplicity = 4

                         Standard orientation:
 ---------------------------------------------------------------------
 Center     Atomic      Atomic             Coordinates (Angstroms)
 Number     Number       Type             X           Y           Z
 ---------------------------------------------------------------------
      1          6           0       -1.008025   -0.460653    0.042422
      2          6           0        1.700631   -0.633023    0.021031
      3          6           0        1.427625    0.782670   -0.111427
      4          6           0        0.381089   -0.293675   -0.044811
      5          1           0        1.457672    1.607005    0.614400
      6          1           0       -1.317495   -1.519180    0.163316
      7          8           0       -1.893512    0.442532   -0.027625
 ---------------------------------------------------------------------

 SCF Done:  E(UHF) =  -227.353394979     A.U. after   24 cycles
 E2 =    -0.8094502527D+00 EUMP2 =    -0.22816284523221D+03
 CCSD(T)
 CCSD(T)= -0.22822880836D+03

 The electronic state is 4-A.
 Alpha  occ. eigenvalues --  -20.33148 -11.09642 -11.08113 -11.07436 -11.07246
 Alpha  occ. eigenvalues --   -1.15435  -0.99303  -0.75161  -0.61534  -0.51609
 Alpha  occ. eigenvalues --   -0.43642  -0.42253  -0.40071  -0.36109  -0.31306
 Alpha  occ. eigenvalues --   -0.23639  -0.20587  -0.14260  -0.07590
 Alpha virt. eigenvalues --    0.16326   0.16922   0.20622   0.22634   0.23676
 Alpha virt. eigenvalues --    0.24518   0.26778   0.28126   0.28482   0.28888
 Alpha virt. eigenvalues --    0.30618   0.31442   0.33256   0.34200   0.35086

  Beta  occ. eigenvalues --  -20.31195 -11.09289 -11.07303 -11.05604 -11.03585
  Beta  occ. eigenvalues --   -1.10875  -0.94334  -0.69941  -0.53146  -0.48906
  Beta  occ. eigenvalues --   -0.40491  -0.30485  -0.28679  -0.27219  -0.20620
  Beta  occ. eigenvalues --   -0.17494
  Beta virt. eigenvalues --    0.16140   0.16955   0.19512   0.22258   0.23303
  Beta virt. eigenvalues --    0.23638   0.24860   0.26814   0.27069   0.28571
  Beta virt. eigenvalues --    0.28874   0.30225   0.31953   0.32042   0.34035

 Mulliken charges and spin densities:
               1          2
     1  C    0.219694   0.220839
     2  C   -0.249766   1.637196
     3  C   -0.452972   1.111185
     4  C    0.316148  -0.345464
     5  H    0.079515   0.037418
     6  H    0.021536  -0.028456
     7  O   -0.934154   0.367281
 Sum of Mulliken charges =  -1.00000   3.00000

 Dipole moment (field-independent basis, Debye):
    X=              1.0928    Y=             -0.9774    Z=              0.8638  Tot=              1.7017
 Quadrupole moment (field-independent basis, Debye-Ang):
   XX=            -50.7666   YY=            -34.4426   ZZ=            -34.1761
   XY=              4.1041   XZ=              0.9717   YZ=              1.0658

 833244\CCSD=-228.1841944\CCSD(T)=-228.2288084\S2=3.858062\S2-1=3.80159
 Normal termination of Gaussian 09 at Fri Mar  8 16:28:21 2019.
