 Gaussian 09, Revision E.01,
 Gaussian 09:  EM64L-G09RevE.01 30-Nov-2015

 --------------------------------------
 #p ccsd(t,maxcyc=200)/6-311++G(3df,2p)
 --------------------------------------

 -------------
 ccsd(t) iener
 -------------
 Symbolic Z-matrix:
 Charge = -1 Multiplicity = 4

                         Standard orientation:
 ---------------------------------------------------------------------
 Center     Atomic      Atomic             Coordinates (Angstroms)
 Number     Number       Type             X           Y           Z
 ---------------------------------------------------------------------
      1          6           0        0.969717    0.426100   -0.038339
      2          6           0       -1.750719    0.475658   -0.087354
      3          6           0       -1.396973   -0.919068    0.024799
      4          6           0       -0.341268   -0.072795   -0.064120
      5          1           0       -2.108878    1.193050    0.667772
      6          1           0        1.040143    1.525515   -0.140661
      7          8           0        2.023024   -0.272242    0.057871
 ---------------------------------------------------------------------

 SCF Done:  E(UHF) =  -227.354520630     A.U. after   24 cycles
 E2 =    -0.8109937121D+00 EUMP2 =    -0.22816551434174D+03
 CCSD(T)
 CCSD(T)= -0.22823147505D+03

 The electronic state is 4-A.
 Alpha  occ. eigenvalues --  -20.33283 -11.09682 -11.08413 -11.07636 -11.07488
 Alpha  occ. eigenvalues --   -1.15603  -0.99646  -0.75072  -0.62374  -0.50647
 Alpha  occ. eigenvalues --   -0.45546  -0.41137  -0.40366  -0.36550  -0.31720
 Alpha  occ. eigenvalues --   -0.23408  -0.20927  -0.14316  -0.07754
 Alpha virt. eigenvalues --    0.15555   0.17451   0.20619   0.22405   0.23393
 Alpha virt. eigenvalues --    0.24600   0.27045   0.28130   0.28186   0.28997
 Alpha virt. eigenvalues --    0.30583   0.31399   0.33095   0.33795   0.35142

  Beta  occ. eigenvalues --  -20.31288 -11.09329 -11.07548 -11.05928 -11.03804
  Beta  occ. eigenvalues --   -1.10915  -0.94706  -0.69765  -0.54576  -0.48030
  Beta  occ. eigenvalues --   -0.40712  -0.31130  -0.28551  -0.27343  -0.20844
  Beta  occ. eigenvalues --   -0.17592
  Beta virt. eigenvalues --    0.15651   0.17474   0.19273   0.21961   0.22924
  Beta virt. eigenvalues --    0.23869   0.25776   0.25895   0.27160   0.28140
  Beta virt. eigenvalues --    0.29493   0.30038   0.31252   0.31859   0.33710

 Mulliken charges and spin densities:
               1          2
     1  C    0.192226   0.205181
     2  C   -0.498335   1.099958
     3  C   -0.152808   1.561684
     4  C    0.255608  -0.251476
     5  H    0.072396   0.041472
     6  H    0.046081  -0.037916
     7  O   -0.915167   0.381098
 Sum of Mulliken charges =  -1.00000   3.00000

 Dipole moment (field-independent basis, Debye):
    X=             -1.6079    Y=              1.8353    Z=              0.5589  Tot=              2.5032
 Quadrupole moment (field-independent basis, Debye-Ang):
   XX=            -51.8304   YY=            -34.4679   ZZ=            -34.2354
   XY=              0.9085   XZ=             -2.0976   YZ=              0.8066

 855663\CCSD=-228.1865556\CCSD(T)=-228.231475\S2=3.853997\S2-1=3.798781
 Normal termination of Gaussian 09 at Fri Mar  8 16:03:50 2019.
