 Gaussian 09, Revision E.01,
 Gaussian 09:  EM64L-G09RevE.01 30-Nov-2015

 --------------------------------------
 #p ccsd(t,maxcyc=200)/6-311++G(3df,2p)
 --------------------------------------

 -------------
 ccsd(t) iener
 -------------
 Symbolic Z-matrix:
 Charge = -1 Multiplicity = 2

                         Standard orientation:
 ---------------------------------------------------------------------
 Center     Atomic      Atomic             Coordinates (Angstroms)
 Number     Number       Type             X           Y           Z
 ---------------------------------------------------------------------
      1          6           0       -0.552151    0.000001   -0.024308
      2          1           0       -1.147104   -0.933210    0.049448
      3          1           0       -1.147035    0.933241    0.049447
      4          8           0        0.700881   -0.000005    0.005869
 ---------------------------------------------------------------------

 SCF Done:  E(UHF) =  -113.854341367     A.U. after   21 cycles
 E2 =    -0.4142895627D+00 EUMP2 =    -0.11426863093017D+03
 CCSD(T)
 CCSD(T)= -0.11429596639D+03

 The electronic state is 2-A.
 Alpha  occ. eigenvalues --  -20.26591 -11.02786  -1.09440  -0.60552  -0.38594
 Alpha  occ. eigenvalues --   -0.35086  -0.32026  -0.15795   0.01054
 Alpha virt. eigenvalues --    0.18001   0.19671   0.25119   0.29519   0.31581
 Alpha virt. eigenvalues --    0.32253   0.44268   0.45732   0.48255   0.49467
 Alpha virt. eigenvalues --    0.54374   0.55632   0.65245   0.69474   0.72171

  Beta  occ. eigenvalues --  -20.24770 -11.01786  -1.05070  -0.55431  -0.37654
  Beta  occ. eigenvalues --   -0.33179  -0.18132  -0.14167
  Beta virt. eigenvalues --    0.18274   0.19773   0.25271   0.27266   0.31779
  Beta virt. eigenvalues --    0.33706   0.43040   0.45203   0.46024   0.48687
  Beta virt. eigenvalues --    0.52880   0.54739   0.55767   0.67289   0.70051

 Mulliken charges and spin densities:
               1          2
     1  C   -0.181499   0.939131
     2  H    0.006323  -0.077737
     3  H    0.006328  -0.077735
     4  O   -0.831152   0.216341
 Sum of Mulliken charges =  -1.00000   1.00000

 Dipole moment (field-independent basis, Debye):
    X=             -0.6419    Y=              0.0000    Z=              0.2209  Tot=              0.6788
 Quadrupole moment (field-independent basis, Debye-Ang):
   XX=            -20.3672   YY=            -16.2590   ZZ=            -20.1331
   XY=              0.0000   XZ=             -0.1509   YZ=              0.0000

 Normal termination of Gaussian 09 at Fri Mar  8 16:50:43 2019.
