 Gaussian 09, Revision E.01,
 Gaussian 09:  EM64L-G09RevE.01 30-Nov-2015

 --------------------------------------
 #p ccsd(t,maxcyc=200)/6-311++G(3df,2p)
 --------------------------------------

 -------------
 ccsd(t) iener
 -------------
 Symbolic Z-matrix:
 Charge = -1 Multiplicity = 4

                         Standard orientation:
 ---------------------------------------------------------------------
 Center     Atomic      Atomic             Coordinates (Angstroms)
 Number     Number       Type             X           Y           Z
 ---------------------------------------------------------------------
      1          6           0       -0.578904    0.000001   -0.123237
      2          1           0       -1.086841   -0.906310    0.264969
      3          1           0       -1.086779    0.906339    0.264961
      4          8           0        0.705881   -0.000004    0.026187
 ---------------------------------------------------------------------

 SCF Done:  E(UHF) =  -113.793388177     A.U. after   22 cycles
 E2 =    -0.3429839664D+00 EUMP2 =    -0.11413637214350D+03
 CCSD(T)
 CCSD(T)= -0.11418047102D+03

 The electronic state is 4-A.
 Alpha  occ. eigenvalues --  -20.51919 -11.13647  -1.32795  -0.76883  -0.60208
 Alpha  occ. eigenvalues --   -0.54520  -0.50997  -0.37950  -0.21658   0.04158
 Alpha virt. eigenvalues --    0.16485   0.20076   0.22928   0.26847   0.30134
 Alpha virt. eigenvalues --    0.37200   0.40169   0.41645   0.41937   0.42727
 Alpha virt. eigenvalues --    0.45613   0.59820   0.60163   0.61744   0.67271

  Beta  occ. eigenvalues --  -20.47051 -11.11530  -1.17454  -0.66452  -0.47871
  Beta  occ. eigenvalues --   -0.42678  -0.38501
  Beta virt. eigenvalues --    0.18579   0.20641   0.21272   0.22206   0.22785
  Beta virt. eigenvalues --    0.29313   0.31116   0.34700   0.38189   0.42561
  Beta virt. eigenvalues --    0.43899   0.44228   0.47172   0.47700   0.62746

 Mulliken charges and spin densities:
               1          2
     1  C    2.640591  -1.727013
     2  H   -1.548090   1.766258
     3  H   -1.548049   1.766213
     4  O   -0.544452   1.194542
 Sum of Mulliken charges =  -1.00000   3.00000

 Dipole moment (field-independent basis, Debye):
    X=              7.6100    Y=              0.0000    Z=             -1.8327  Tot=              7.8276
 Quadrupole moment (field-independent basis, Debye-Ang):
   XX=            -43.7371   YY=            -41.2444   ZZ=            -30.1007
   XY=             -0.0005   XZ=              4.1996   YZ=              0.0001

 Normal termination of Gaussian 09 at Fri Mar  8 16:54:22 2019.
