 Gaussian 09, Revision E.01,
 Gaussian 09:  EM64L-G09RevE.01 30-Nov-2015

 --------------------------------------
 #p ccsd(t,maxcyc=200)/6-311++G(3df,2p)
 --------------------------------------

 -------------
 ccsd(t) iener
 -------------
 Symbolic Z-matrix:
 Charge = -1 Multiplicity = 2

                         Standard orientation:
 ---------------------------------------------------------------------
 Center     Atomic      Atomic             Coordinates (Angstroms)
 Number     Number       Type             X           Y           Z
 ---------------------------------------------------------------------
      1          6           0       -0.795443   -0.213644   -0.000028
      2          1           0       -1.275586    0.796420    0.000170
      3          1           0        1.060347   -0.701398    0.000200
      4          8           0        0.623487    0.148355   -0.000026
 ---------------------------------------------------------------------

 SCF Done:  E(UHF) =  -113.793190846     A.U. after   18 cycles
 E2 =    -0.4050083645D+00 EUMP2 =    -0.11419819921013D+03
 CCSD(T)
 CCSD(T)= -0.11423072712D+03

 The electronic state is 2-A.
 Alpha  occ. eigenvalues --  -20.33060 -10.98991  -1.11598  -0.60246  -0.40019
 Alpha  occ. eigenvalues --   -0.32179  -0.31773  -0.10699  -0.04076
 Alpha virt. eigenvalues --    0.18633   0.19724   0.27727   0.29826   0.31079
 Alpha virt. eigenvalues --    0.34590   0.43746   0.45140   0.46657   0.46942
 Alpha virt. eigenvalues --    0.50258   0.57642   0.67102   0.67404   0.74172

  Beta  occ. eigenvalues --  -20.32533 -10.96854  -1.09997  -0.54673  -0.38181
  Beta  occ. eigenvalues --   -0.30452  -0.26135  -0.06148
  Beta virt. eigenvalues --    0.18684   0.19783   0.27440   0.27904   0.31219
  Beta virt. eigenvalues --    0.35479   0.43864   0.45487   0.45675   0.47409
  Beta virt. eigenvalues --    0.48843   0.50500   0.58101   0.68685   0.70053

 Mulliken charges and spin densities:
               1          2
     1  C   -0.640991   1.128524
     2  H    0.012354  -0.085140
     3  H    0.196623  -0.008066
     4  O   -0.567985  -0.035318
 Sum of Mulliken charges =  -1.00000   1.00000

 Dipole moment (field-independent basis, Debye):
    X=              3.4782    Y=              0.9986    Z=              0.0006  Tot=              3.6187
 Quadrupole moment (field-independent basis, Debye-Ang):
   XX=            -20.7608   YY=            -18.6855   ZZ=            -18.7052
   XY=             -5.1306   XZ=              0.0002   YZ=             -0.0004

 CCSD(T)=-114.2307271\S2=0.771506\S2-1=0.7599\S2A=0.750234\RMSD=6.442e-
 Normal termination of Gaussian 09 at Fri Mar  8 16:47:52 2019.
