 Gaussian 09, Revision E.01,
 Gaussian 09:  EM64L-G09RevE.01 30-Nov-2015

 --------------------------------------
 #p ccsd(t,maxcyc=200)/6-311++G(3df,2p)
 --------------------------------------

 -------------
 ccsd(t) iener
 -------------
 Symbolic Z-matrix:
 Charge = -1 Multiplicity = 2

                         Standard orientation:
 ---------------------------------------------------------------------
 Center     Atomic      Atomic             Coordinates (Angstroms)
 Number     Number       Type             X           Y           Z
 ---------------------------------------------------------------------
      1          6           0        0.819224   -0.160077    0.000029
      2          1           0        1.149997    0.917590   -0.000119
      3          1           0       -0.934842    0.820691    0.000144
      4          8           0       -0.641312   -0.097227   -0.000025
 ---------------------------------------------------------------------

 SCF Done:  E(UHF) =  -113.786737143     A.U. after   18 cycles
 E2 =    -0.4048201957D+00 EUMP2 =    -0.11419155733864D+03
 CCSD(T)
 CCSD(T)= -0.11422425184D+03

 The electronic state is 2-A.
 Alpha  occ. eigenvalues --  -20.33305 -10.99160  -1.11501  -0.59714  -0.43681
 Alpha  occ. eigenvalues --   -0.32254  -0.28221  -0.10868  -0.04114
 Alpha virt. eigenvalues --    0.17551   0.20147   0.28501   0.29859   0.30021
 Alpha virt. eigenvalues --    0.34461   0.41612   0.44739   0.46574   0.46914
 Alpha virt. eigenvalues --    0.52991   0.57609   0.67394   0.67654   0.75092

  Beta  occ. eigenvalues --  -20.32782 -10.97055  -1.09895  -0.53673  -0.42472
  Beta  occ. eigenvalues --   -0.27154  -0.26264  -0.06325
  Beta virt. eigenvalues --    0.17591   0.20200   0.27499   0.28575   0.30393
  Beta virt. eigenvalues --    0.35310   0.41851   0.44972   0.45619   0.47491
  Beta virt. eigenvalues --    0.48775   0.53167   0.57986   0.68901   0.70398

 Mulliken charges and spin densities:
               1          2
     1  C   -0.587826   1.143388
     2  H   -0.002549  -0.086741
     3  H    0.157406  -0.015341
     4  O   -0.567032  -0.041306
 Sum of Mulliken charges =  -1.00000   1.00000

 Dipole moment (field-independent basis, Debye):
    X=             -3.5755    Y=              3.3903    Z=              0.0000  Tot=              4.9273
 Quadrupole moment (field-independent basis, Debye-Ang):
   XX=            -22.5364   YY=            -17.5069   ZZ=            -18.5458
   XY=              1.0217   XZ=             -0.0007   YZ=              0.0004

 Normal termination of Gaussian 09 at Fri Mar  8 16:47:35 2019.
