 Gaussian 09, Revision E.01,
 Gaussian 09:  EM64L-G09RevE.01 30-Nov-2015

 --------------------------------------
 #p ccsd(t,maxcyc=200)/6-311++G(3df,2p)
 --------------------------------------

 -------------
 ccsd(t) iener
 -------------
 Symbolic Z-matrix:
 Charge = -1 Multiplicity = 2

                         Standard orientation:
 ---------------------------------------------------------------------
 Center     Atomic      Atomic             Coordinates (Angstroms)
 Number     Number       Type             X           Y           Z
 ---------------------------------------------------------------------
      1          6           0        1.087904    0.000002    0.028184
      2          1           0       -0.980632   -0.786695    0.342235
      3          1           0       -0.980586    0.786827    0.342158
      4          8           0       -0.570776   -0.000018   -0.106687
 ---------------------------------------------------------------------

 SCF Done:  E(UHF) =  -113.626436744     A.U. after   45 cycles
 E2 =    -0.4033743404D+00 EUMP2 =    -0.11402981108392D+03
 CCSD(T)
 CCSD(T)= -0.11407400638D+03

 The electronic state is 2-A.
 Alpha  occ. eigenvalues --  -20.46564 -11.00269  -1.24124  -0.58939  -0.58889
 Alpha  occ. eigenvalues --   -0.44805  -0.28966  -0.07659   0.03363
 Alpha virt. eigenvalues --    0.15158   0.19124   0.28175   0.29786   0.29930
 Alpha virt. eigenvalues --    0.34990   0.37079   0.40157   0.40158   0.43679
 Alpha virt. eigenvalues --    0.46062   0.52955   0.56313   0.72156   0.72658

  Beta  occ. eigenvalues --  -20.46335 -10.98630  -1.23497  -0.58655  -0.55280
  Beta  occ. eigenvalues --   -0.42569  -0.23324   0.01654
  Beta virt. eigenvalues --    0.15433   0.19198   0.27465   0.28519   0.30892
  Beta virt. eigenvalues --    0.34683   0.36996   0.39988   0.40353   0.43321
  Beta virt. eigenvalues --    0.46278   0.47980   0.54377   0.57279   0.73731

 Mulliken charges and spin densities:
               1          2
     1  C   -1.167717   0.967415
     2  H    0.199414   0.048868
     3  H    0.199144   0.048950
     4  O   -0.230840  -0.065233
 Sum of Mulliken charges =  -1.00000   1.00000

 Dipole moment (field-independent basis, Debye):
    X=             -8.7314    Y=             -0.0022    Z=              0.8762  Tot=              8.7753
 Quadrupole moment (field-independent basis, Debye-Ang):
   XX=            -25.3676   YY=            -27.9323   ZZ=            -20.8376
   XY=              0.0019   XZ=             -2.0072   YZ=             -0.0009

 Normal termination of Gaussian 09 at Fri Mar  8 16:52:34 2019.
