 Gaussian 09, Revision E.01,
 Gaussian 09:  EM64L-G09RevE.01 30-Nov-2015

 --------------------------------------
 #p ccsd(t,maxcyc=200)/6-311++G(3df,2p)
 --------------------------------------

 -------------
 ccsd(t) iener
 -------------
 Symbolic Z-matrix:
 Charge = -1 Multiplicity = 2

                         Standard orientation:
 ---------------------------------------------------------------------
 Center     Atomic      Atomic             Coordinates (Angstroms)
 Number     Number       Type             X           Y           Z
 ---------------------------------------------------------------------
      1          6           0       -0.565400   -0.000005   -0.000109
      2          1           0       -1.155700    0.933785    0.000224
      3          1           0       -1.155785   -0.933724    0.000224
      4          8           0        0.712985   -0.000004    0.000026
 ---------------------------------------------------------------------

 SCF Done:  E(UHF) =  -113.854318891     A.U. after   17 cycles
 E2 =    -0.4151550853D+00 EUMP2 =    -0.11426947397608D+03
 CCSD(T)
 CCSD(T)= -0.11429689567D+03

 The electronic state is 2-A.
 Alpha  occ. eigenvalues --  -20.26326 -11.02475  -1.07695  -0.60824  -0.38040
 Alpha  occ. eigenvalues --   -0.33939  -0.31191  -0.15757   0.00282
 Alpha virt. eigenvalues --    0.17988   0.19584   0.25240   0.29377   0.31801
 Alpha virt. eigenvalues --    0.32275   0.44168   0.45946   0.48162   0.49688
 Alpha virt. eigenvalues --    0.54547   0.56393   0.64905   0.69404   0.71948

  Beta  occ. eigenvalues --  -20.24470 -11.01357  -1.03113  -0.55400  -0.37078
  Beta  occ. eigenvalues --   -0.32106  -0.16727  -0.14049
  Beta virt. eigenvalues --    0.18226   0.19664   0.25359   0.27242   0.31963
  Beta virt. eigenvalues --    0.33625   0.43150   0.45096   0.46200   0.48571
  Beta virt. eigenvalues --    0.53055   0.54914   0.56438   0.66994   0.69893

 Mulliken charges and spin densities:
               1          2
     1  C   -0.171071   0.941868
     2  H    0.013525  -0.084683
     3  H    0.013548  -0.084681
     4  O   -0.856002   0.227496
 Sum of Mulliken charges =  -1.00000   1.00000

 Dipole moment (field-independent basis, Debye):
    X=             -0.9028    Y=             -0.0000    Z=              0.0011  Tot=              0.9028
 Quadrupole moment (field-independent basis, Debye-Ang):
   XX=            -20.1935   YY=            -16.0514   ZZ=            -19.6205
   XY=              0.0002   XZ=             -0.0009   YZ=             -0.0000

 Normal termination of Gaussian 09 at Fri Mar  8 16:48:44 2019.
