 Gaussian 09, Revision E.01,
 Gaussian 09:  EM64L-G09RevE.01 30-Nov-2015

 --------------------------------------
 #p ccsd(t,maxcyc=200)/6-311++G(3df,2p)
 --------------------------------------

 -------------
 ccsd(t) iener
 -------------
 Symbolic Z-matrix:
 Charge = -1 Multiplicity = 2

                         Standard orientation:
 ---------------------------------------------------------------------
 Center     Atomic      Atomic             Coordinates (Angstroms)
 Number     Number       Type             X           Y           Z
 ---------------------------------------------------------------------
      1          6           0        0.796179   -0.213536   -0.000004
      2          1           0        1.274733    0.797145    0.000023
      3          1           0       -1.059967   -0.701821    0.000027
      4          8           0       -0.623980    0.148237   -0.000003
 ---------------------------------------------------------------------

 SCF Done:  E(UHF) =  -113.793184416     A.U. after   18 cycles
 E2 =    -0.4050134302D+00 EUMP2 =    -0.11419819784577D+03
 CCSD(T)
 CCSD(T)= -0.11423072979D+03

 The electronic state is 2-A.
 Alpha  occ. eigenvalues --  -20.33044 -10.98998  -1.11560  -0.60235  -0.40006
 Alpha  occ. eigenvalues --   -0.32148  -0.31738  -0.10718  -0.04098
 Alpha virt. eigenvalues --    0.18636   0.19725   0.27728   0.29825   0.31078
 Alpha virt. eigenvalues --    0.34589   0.43750   0.45144   0.46662   0.46943
 Alpha virt. eigenvalues --    0.50262   0.57640   0.67061   0.67404   0.74171

  Beta  occ. eigenvalues --  -20.32519 -10.96861  -1.09963  -0.54653  -0.38171
  Beta  occ. eigenvalues --   -0.30424  -0.26113  -0.06170
  Beta virt. eigenvalues --    0.18686   0.19784   0.27438   0.27905   0.31217
  Beta virt. eigenvalues --    0.35478   0.43869   0.45490   0.45679   0.47410
  Beta virt. eigenvalues --    0.48835   0.50504   0.58103   0.68643   0.70054

 Mulliken charges and spin densities:
               1          2
     1  C   -0.639979   1.128516
     2  H    0.012501  -0.085120
     3  H    0.196509  -0.008021
     4  O   -0.569032  -0.035376
 Sum of Mulliken charges =  -1.00000   1.00000

 Dipole moment (field-independent basis, Debye):
    X=             -3.4720    Y=              0.9950    Z=              0.0001  Tot=              3.6118
 Quadrupole moment (field-independent basis, Debye-Ang):
   XX=            -20.7673   YY=            -18.6742   ZZ=            -18.6995
   XY=              5.1292   XZ=             -0.0000   YZ=             -0.0000

 Normal termination of Gaussian 09 at Fri Mar  8 16:48:47 2019.
