 Gaussian 09, Revision E.01,
 Gaussian 09:  EM64L-G09RevE.01 30-Nov-2015

 --------------------------------------
 #p ccsd(t,maxcyc=200)/6-311++G(3df,2p)
 --------------------------------------

 -------------
 ccsd(t) iener
 -------------
 Symbolic Z-matrix:
 Charge = -1 Multiplicity = 1

                         Standard orientation:
 ---------------------------------------------------------------------
 Center     Atomic      Atomic             Coordinates (Angstroms)
 Number     Number       Type             X           Y           Z
 ---------------------------------------------------------------------
      1          6           0        1.199038    0.348219    0.023495
      2          6           0       -1.193595    0.121523   -0.127450
      3          1           0       -1.233210    1.153703    0.235951
      4          1           0        2.020187   -0.421960    0.021016
      5          8           0        0.125869   -0.374171   -0.010456
      6          1           0       -1.826582   -0.556832    0.450416
 ---------------------------------------------------------------------

 SCF Done:  E(RHF) =  -152.204864771     A.U. after   17 cycles
 E2 =    -0.5789967721D+00 EUMP2 =    -0.15278386154292D+03
 CCSD(T)
 CCSD(T)= -0.15283472031D+03

 The electronic state is 1-A.
 Alpha  occ. eigenvalues --  -20.42240 -11.08811 -10.99881  -1.23164  -0.75030
 Alpha  occ. eigenvalues --   -0.55250  -0.47421  -0.40135  -0.37209  -0.29183
 Alpha  occ. eigenvalues --   -0.15167  -0.04788
 Alpha virt. eigenvalues --    0.16537   0.17868   0.20269   0.23065   0.25337
 Alpha virt. eigenvalues --    0.27398   0.29702   0.31148   0.32438   0.33488
 Alpha virt. eigenvalues --    0.35586   0.36585   0.42109   0.46563   0.47862

 Mulliken charges:
               1
     1  C   -0.220667
     2  C   -0.524193
     3  H    0.044540
     4  H    0.049391
     5  O   -0.401077
     6  H    0.052006
 Sum of Mulliken charges =  -1.00000

 Dipole moment (field-independent basis, Debye):
    X=              2.2618    Y=             -1.7564    Z=              1.8554  Tot=              3.4122
 Quadrupole moment (field-independent basis, Debye-Ang):
   XX=            -32.3001   YY=            -26.2307   ZZ=            -26.3763
   XY=             -2.3823   XZ=             -3.7867   YZ=             -0.1322

 48136\CCSD(T)=-152.8347203\RMSD=5.512e-09\PG=C01 [X(C2H3O1)]\\@
 Normal termination of Gaussian 09 at Fri Mar  8 07:33:17 2019.
