 Gaussian 09, Revision E.01,
 Gaussian 09:  EM64L-G09RevE.01 30-Nov-2015

 --------------------------------------
 #p ccsd(t,maxcyc=200)/6-311++G(3df,2p)
 --------------------------------------

 -------------
 ccsd(t) iener
 -------------
 Symbolic Z-matrix:
 Charge = -1 Multiplicity = 3

                         Standard orientation:
 ---------------------------------------------------------------------
 Center     Atomic      Atomic             Coordinates (Angstroms)
 Number     Number       Type             X           Y           Z
 ---------------------------------------------------------------------
      1          6           0       -0.016521   -0.364202   -0.008916
      2          6           0       -1.256994    0.084344    0.010349
      3          1           0       -2.096544   -0.598790   -0.056943
      4          1           0       -1.476063    1.144689    0.123001
      5          1           0        1.886385   -0.398364    0.314207
      6          8           0        1.165914    0.191452   -0.048607
 ---------------------------------------------------------------------

 SCF Done:  E(UHF) =  -152.196700673     A.U. after   73 cycles
 E2 =    -0.5323189866D+00 EUMP2 =    -0.15272901965973D+03
 CCSD(T)
 CCSD(T)= -0.15278332538D+03

 The electronic state is 3-A.
 Alpha  occ. eigenvalues --  -20.44283 -11.08999 -11.01661  -1.26314  -0.83503
 Alpha  occ. eigenvalues --   -0.63194  -0.52927  -0.46257  -0.45651  -0.38299
 Alpha  occ. eigenvalues --   -0.21130  -0.18378   0.10197
 Alpha virt. eigenvalues --    0.14238   0.17807   0.18882   0.23655   0.25727
 Alpha virt. eigenvalues --    0.26825   0.29088   0.32509   0.33255   0.35260
 Alpha virt. eigenvalues --    0.37835   0.39424   0.41668   0.43411   0.44605

  Beta  occ. eigenvalues --  -20.43678 -11.04995 -11.02844  -1.23636  -0.80649
  Beta  occ. eigenvalues --   -0.61917  -0.45590  -0.43482  -0.40660  -0.36975
  Beta  occ. eigenvalues --   -0.16825
  Beta virt. eigenvalues --    0.14281   0.18791   0.19413   0.22850   0.26422
  Beta virt. eigenvalues --    0.27180   0.29850   0.30497   0.31396   0.36133
  Beta virt. eigenvalues --    0.37033   0.37821   0.39030   0.41748   0.43255

 Mulliken charges and spin densities:
               1          2
     1  C    0.925783   1.221389
     2  C   -1.797148   0.772736
     3  H    0.121949   0.004367
     4  H    0.090776   0.080440
     5  H    0.307113  -0.052856
     6  O   -0.648473  -0.026075
 Sum of Mulliken charges =  -1.00000   2.00000

 Dipole moment (field-independent basis, Debye):
    X=              7.5612    Y=             -1.9524    Z=              1.2555  Tot=              7.9095
 Quadrupole moment (field-independent basis, Debye-Ang):
   XX=            -35.5456   YY=            -26.7797   ZZ=            -40.6441
   XY=             -0.4819   XZ=              1.9251   YZ=              1.6556

 Normal termination of Gaussian 09 at Fri Mar  8 08:25:09 2019.
