 Gaussian 09, Revision E.01,
 Gaussian 09:  EM64L-G09RevE.01 30-Nov-2015

 --------------------------------------
 #p ccsd(t,maxcyc=200)/6-311++G(3df,2p)
 --------------------------------------

 -------------
 ccsd(t) iener
 -------------
 Symbolic Z-matrix:
 Charge = -1 Multiplicity = 3

                         Standard orientation:
 ---------------------------------------------------------------------
 Center     Atomic      Atomic             Coordinates (Angstroms)
 Number     Number       Type             X           Y           Z
 ---------------------------------------------------------------------
      1          6           0        0.016524   -0.364138   -0.009199
      2          6           0        1.257025    0.084429    0.010613
      3          1           0        1.476318    1.144648    0.123518
      4          1           0        2.096209   -0.599035   -0.057217
      5          1           0       -1.886024   -0.396913    0.317686
      6          8           0       -1.165974    0.191194   -0.049059
 ---------------------------------------------------------------------

 SCF Done:  E(UHF) =  -152.271705555     A.U. after   58 cycles
 E2 =    -0.5344512738D+00 EUMP2 =    -0.15280615682840D+03
 CCSD(T)
 CCSD(T)= -0.15285585595D+03

 The electronic state is 3-A.
 Alpha  occ. eigenvalues --  -20.45982 -11.17759 -11.08045  -1.28676  -0.89838
 Alpha  occ. eigenvalues --   -0.66731  -0.56678  -0.51544  -0.47749  -0.43838
 Alpha  occ. eigenvalues --   -0.26159  -0.21537   0.02931
 Alpha virt. eigenvalues --    0.14099   0.15495   0.22088   0.22432   0.24241
 Alpha virt. eigenvalues --    0.24792   0.26685   0.30535   0.31455   0.31998
 Alpha virt. eigenvalues --    0.35056   0.36929   0.40749   0.42808   0.44199

  Beta  occ. eigenvalues --  -20.45153 -11.14611 -11.08727  -1.25744  -0.86990
  Beta  occ. eigenvalues --   -0.64619  -0.50908  -0.46908  -0.45187  -0.41090
  Beta  occ. eigenvalues --   -0.22883
  Beta virt. eigenvalues --    0.14087   0.15752   0.20630   0.23097   0.24057
  Beta virt. eigenvalues --    0.24557   0.25742   0.26907   0.30262   0.31632
  Beta virt. eigenvalues --    0.32560   0.34616   0.37282   0.38569   0.43761

 Mulliken charges and spin densities:
               1          2
     1  C    0.820070   1.100575
     2  C    0.685657  -1.681122
     3  H    0.167944   0.014881
     4  H   -0.147902   0.293650
     5  H   -1.780035   2.140406
     6  O   -0.745735   0.131610
 Sum of Mulliken charges =  -1.00000   2.00000

 Dipole moment (field-independent basis, Debye):
    X=             10.8278    Y=              2.8284    Z=             -2.2559  Tot=             11.4163
 Quadrupole moment (field-independent basis, Debye-Ang):
   XX=            -65.7340   YY=            -34.2597   ZZ=            -34.4439
   XY=             -6.2555   XZ=              6.6027   YZ=              1.6914

 \CCSD(T)=-152.8558559\S2=2.093188\S2-1=2.067674\S2A=2.001193\RMSD=3.29
 Normal termination of Gaussian 09 at Fri Mar  8 07:49:00 2019.
