 Gaussian 09, Revision E.01,
 Gaussian 09:  EM64L-G09RevE.01 30-Nov-2015

 --------------------------------------
 #p ccsd(t,maxcyc=200)/6-311++G(3df,2p)
 --------------------------------------

 -------------
 ccsd(t) iener
 -------------
 Symbolic Z-matrix:
 Charge = -1 Multiplicity = 1

                         Standard orientation:
 ---------------------------------------------------------------------
 Center     Atomic      Atomic             Coordinates (Angstroms)
 Number     Number       Type             X           Y           Z
 ---------------------------------------------------------------------
      1          6           0       -0.051195   -0.582911   -0.000220
      2          6           0       -1.185886    0.149323    0.000177
      3          1           0       -1.192208    1.248777    0.000662
      4          1           0       -2.150913   -0.344819   -0.000128
      5          1           0        1.839282   -0.364308    0.002778
      6          8           0        1.115791    0.257734   -0.000382
 ---------------------------------------------------------------------

 SCF Done:  E(RHF) =  -152.297170967     A.U. after   15 cycles
 E2 =    -0.5801587075D+00 EUMP2 =    -0.15287732967480D+03
 CCSD(T)
 CCSD(T)= -0.15292081541D+03

 The electronic state is 1-A.
 Alpha  occ. eigenvalues --  -20.35345 -11.01681 -10.96726  -1.14314  -0.75751
 Alpha  occ. eigenvalues --   -0.52478  -0.43078  -0.36270  -0.32371  -0.32193
 Alpha  occ. eigenvalues --   -0.09979  -0.09959
 Alpha virt. eigenvalues --    0.17643   0.18085   0.18866   0.27010   0.28408
 Alpha virt. eigenvalues --    0.28799   0.29147   0.30757   0.34924   0.35541
 Alpha virt. eigenvalues --    0.36730   0.42553   0.44195   0.44450   0.47403

 Mulliken charges:
               1
     1  C   -0.335566
     2  C   -0.274322
     3  H   -0.016613
     4  H    0.055303
     5  H    0.231551
     6  O   -0.660354
 Sum of Mulliken charges =  -1.00000

 Dipole moment (field-independent basis, Debye):
    X=              1.6817    Y=              1.4589    Z=              0.0056  Tot=              2.2264
 Quadrupole moment (field-independent basis, Debye-Ang):
   XX=            -23.2962   YY=            -28.2345   ZZ=            -25.6880
   XY=             -1.8463   XZ=              0.0118   YZ=             -0.0025

 Normal termination of Gaussian 09 at Fri Mar  8 16:58:05 2019.
