 Gaussian 09, Revision E.01,
 Gaussian 09:  EM64L-G09RevE.01 30-Nov-2015

 --------------------------------------
 #p ccsd(t,maxcyc=200)/6-311++G(3df,2p)
 --------------------------------------

 -------------
 ccsd(t) iener
 -------------
 Symbolic Z-matrix:
 Charge = -1 Multiplicity = 3

                         Standard orientation:
 ---------------------------------------------------------------------
 Center     Atomic      Atomic             Coordinates (Angstroms)
 Number     Number       Type             X           Y           Z
 ---------------------------------------------------------------------
      1          6           0        1.167690    0.090402   -0.008790
      2          6           0       -0.236357   -0.420909   -0.007833
      3          1           0        1.526112    0.108180    1.043247
      4          1           0        1.833105   -0.573472   -0.553458
      5          1           0        1.244372    1.101892   -0.406621
      6          8           0       -1.273949    0.168306    0.002071
 ---------------------------------------------------------------------

 SCF Done:  E(UHF) =  -152.316118391     A.U. after   35 cycles
 E2 =    -0.5424349985D+00 EUMP2 =    -0.15285855338999D+03
 CCSD(T)
 CCSD(T)= -0.15290274196D+03

 The electronic state is 3-A.
 Alpha  occ. eigenvalues --  -20.46665 -11.21334 -11.11356  -1.30507  -0.89781
 Alpha  occ. eigenvalues --   -0.64587  -0.54184  -0.51919  -0.47652  -0.42510
 Alpha  occ. eigenvalues --   -0.39403  -0.23695   0.03496
 Alpha virt. eigenvalues --    0.16230   0.16488   0.18812   0.22618   0.23595
 Alpha virt. eigenvalues --    0.24897   0.26501   0.27430   0.29068   0.30582
 Alpha virt. eigenvalues --    0.30826   0.39901   0.40887   0.42096   0.44500

  Beta  occ. eigenvalues --  -20.45597 -11.19265 -11.10735  -1.27719  -0.86773
  Beta  occ. eigenvalues --   -0.60082  -0.48638  -0.47058  -0.46165  -0.39704
  Beta  occ. eigenvalues --   -0.36543
  Beta virt. eigenvalues --    0.16321   0.19059   0.19730   0.20010   0.23175
  Beta virt. eigenvalues --    0.24297   0.25689   0.27600   0.28193   0.29026
  Beta virt. eigenvalues --    0.31361   0.32098   0.35236   0.40632   0.42127

 Mulliken charges and spin densities:
               1          2
     1  C    3.517916  -3.722544
     2  C   -0.324387   1.629135
     3  H   -1.304592   1.454846
     4  H   -1.374477   1.524385
     5  H   -0.792897   0.967081
     6  O   -0.721563   0.147097
 Sum of Mulliken charges =  -1.00000   2.00000

 Dipole moment (field-independent basis, Debye):
    X=             -8.2089    Y=             -0.1103    Z=             -0.5062  Tot=              8.2252
 Quadrupole moment (field-independent basis, Debye-Ang):
   XX=            -63.9944   YY=            -40.9879   ZZ=            -43.0479
   XY=              2.4154   XZ=             -0.5665   YZ=             -1.2675

 Normal termination of Gaussian 09 at Fri Mar  8 08:53:32 2019.
