 Gaussian 09, Revision E.01,
 Gaussian 09:  EM64L-G09RevE.01 30-Nov-2015

 --------------------------------------
 #p ccsd(t,maxcyc=200)/6-311++G(3df,2p)
 --------------------------------------

 -------------
 ccsd(t) iener
 -------------
 Symbolic Z-matrix:
 Charge = -1 Multiplicity = 3

                         Standard orientation:
 ---------------------------------------------------------------------
 Center     Atomic      Atomic             Coordinates (Angstroms)
 Number     Number       Type             X           Y           Z
 ---------------------------------------------------------------------
      1          6           0       -1.246218    0.377324   -0.018011
      2          6           0        1.112519    0.195379   -0.031837
      3          1           0        1.055342    1.270763    0.099235
      4          1           0       -2.007936   -0.397783    0.243994
      5          8           0       -0.030978   -0.492173   -0.033896
      6          1           0        2.002614   -0.371812    0.227025
 ---------------------------------------------------------------------

 SCF Done:  E(UHF) =  -152.210762726     A.U. after   20 cycles
 E2 =    -0.5395057737D+00 EUMP2 =    -0.15275026850013D+03
 CCSD(T)
 CCSD(T)= -0.15280135155D+03

 The electronic state is 3-A.
 Alpha  occ. eigenvalues --  -20.36366 -11.08078 -11.00778  -1.18126  -0.73420
 Alpha  occ. eigenvalues --   -0.59930  -0.45864  -0.41670  -0.38322  -0.29841
 Alpha  occ. eigenvalues --   -0.14682  -0.12674  -0.05964
 Alpha virt. eigenvalues --    0.15880   0.18601   0.19014   0.25190   0.26343
 Alpha virt. eigenvalues --    0.27470   0.30272   0.30920   0.32971   0.34652
 Alpha virt. eigenvalues --    0.35241   0.41558   0.45652   0.47261   0.49158

  Beta  occ. eigenvalues --  -20.35130 -11.06002 -10.98686  -1.14507  -0.66533
  Beta  occ. eigenvalues --   -0.53783  -0.44324  -0.35536  -0.28816  -0.28340
  Beta  occ. eigenvalues --   -0.08858
  Beta virt. eigenvalues --    0.15989   0.18676   0.19082   0.23898   0.25402
  Beta virt. eigenvalues --    0.27400   0.27712   0.31594   0.33143   0.34874
  Beta virt. eigenvalues --    0.35934   0.39548   0.42426   0.46173   0.46738

 Mulliken charges and spin densities:
               1          2
     1  C   -0.650856   1.144156
     2  C    0.043602   1.132531
     3  H    0.079733  -0.099882
     4  H    0.028021  -0.088607
     5  O   -0.573874  -0.022027
     6  H    0.073374  -0.066170
 Sum of Mulliken charges =  -1.00000   2.00000

 Dipole moment (field-independent basis, Debye):
    X=              3.8231    Y=             -1.9985    Z=              0.6685  Tot=              4.3654
 Quadrupole moment (field-independent basis, Debye-Ang):
   XX=            -29.5171   YY=            -27.0253   ZZ=            -25.6468
   XY=              3.6477   XZ=              0.0320   YZ=              0.2196

 Normal termination of Gaussian 09 at Fri Mar  8 08:51:52 2019.
