 Gaussian 09, Revision E.01,
 Gaussian 09:  EM64L-G09RevE.01 30-Nov-2015

 --------------------------------------
 #p ccsd(t,maxcyc=200)/6-311++G(3df,2p)
 --------------------------------------

 -------------
 ccsd(t) iener
 -------------
 Symbolic Z-matrix:
 Charge = -1 Multiplicity = 1

                         Standard orientation:
 ---------------------------------------------------------------------
 Center     Atomic      Atomic             Coordinates (Angstroms)
 Number     Number       Type             X           Y           Z
 ---------------------------------------------------------------------
      1          6           0       -0.265504   -0.725202    0.392976
      2          6           0       -0.419194    0.714764    0.351116
      3          8           0       -1.185201   -0.110530   -0.587669
      4          6           0        1.081932    0.871815   -0.158606
      5          6           0        1.155849   -0.495964   -0.072725
      6          1           0       -0.731025   -1.465160    1.044118
      7          1           0       -1.015971    1.365734    0.982485
      8          1           0        1.910106   -1.208805   -0.401812
 ---------------------------------------------------------------------

 SCF Done:  E(RHF) =  -227.944111465     A.U. after   17 cycles
 E2 =    -0.8880874834D+00 EUMP2 =    -0.22883219894825D+03
 CCSD(T)
 CCSD(T)= -0.22889213866D+03

 The electronic state is 1-A.
 Alpha  occ. eigenvalues --  -20.37566 -11.09631 -11.08621 -11.01026 -10.99833
 Alpha  occ. eigenvalues --   -1.19993  -0.87998  -0.66386  -0.65928  -0.51439
 Alpha  occ. eigenvalues --   -0.46553  -0.40314  -0.33981  -0.33686  -0.25724
 Alpha  occ. eigenvalues --   -0.22796  -0.13002  -0.10105
 Alpha virt. eigenvalues --    0.14938   0.16127   0.17032   0.23609   0.24336
 Alpha virt. eigenvalues --    0.25336   0.26293   0.28360   0.28540   0.29291
 Alpha virt. eigenvalues --    0.29945   0.30634   0.32044   0.32451   0.33479

 Mulliken charges:
               1
     1  C    0.002382
     2  C    0.182917
     3  O   -0.817536
     4  C   -0.604133
     5  C    0.005511
     6  H    0.099864
     7  H    0.065473
     8  H    0.065522
 Sum of Mulliken charges =  -1.00000

 Dipole moment (field-independent basis, Debye):
    X=             -3.1713    Y=             -2.9951    Z=              2.4622  Tot=              5.0090
 Quadrupole moment (field-independent basis, Debye-Ang):
   XX=            -44.9742   YY=            -37.5125   ZZ=            -36.2389
   XY=             -6.4699   XZ=             -1.6971   YZ=              1.3981

 43\CCSD(T)=-228.8921387\RMSD=3.779e-09\PG=C01 [X(C4H3O1)]\\@
 Normal termination of Gaussian 09 at Fri Mar  8 10:45:21 2019.
