 Gaussian 09, Revision E.01,
 Gaussian 09:  EM64L-G09RevE.01 30-Nov-2015

 --------------------------------------
 #p ccsd(t,maxcyc=200)/6-311++G(3df,2p)
 --------------------------------------

 -------------
 ccsd(t) iener
 -------------
 Symbolic Z-matrix:
 Charge = -1 Multiplicity = 1

                         Standard orientation:
 ---------------------------------------------------------------------
 Center     Atomic      Atomic             Coordinates (Angstroms)
 Number     Number       Type             X           Y           Z
 ---------------------------------------------------------------------
      1          6           0       -0.769829   -1.040495   -0.000000
      2          6           0       -0.000000    1.116230    0.000000
      3          8           0       -1.120323    0.341238    0.000000
      4          6           0        1.107656    0.330005    0.000000
      5          6           0        0.617785   -1.020119   -0.000000
      6          1           0       -0.136366    2.187514    0.000000
      7          1           0        2.131639    0.678238    0.000000
      8          1           0        1.233639   -1.909375   -0.000000
 ---------------------------------------------------------------------

 SCF Done:  E(RHF) =  -228.057733050     A.U. after   17 cycles
 E2 =    -0.8819861261D+00 EUMP2 =    -0.22893971917618D+03
 CCSD(T)
 CCSD(T)= -0.22899731724D+03

 The electronic state is 1-A'.
 Alpha  occ. eigenvalues --  -20.39359 -11.08245 -11.03905 -11.02422 -10.99500
 Alpha  occ. eigenvalues --   -1.21171  -0.86322  -0.76617  -0.58050  -0.54800
 Alpha  occ. eigenvalues --   -0.49875  -0.39902  -0.37584  -0.34860  -0.31744
 Alpha  occ. eigenvalues --   -0.18980  -0.13105  -0.08941
 Alpha virt. eigenvalues --    0.14508   0.15423   0.16712   0.24227   0.25030
 Alpha virt. eigenvalues --    0.25220   0.27137   0.28347   0.29028   0.29875
 Alpha virt. eigenvalues --    0.29895   0.30357   0.30611   0.31254   0.33616

 Mulliken charges:
               1
     1  C   -0.537802
     2  C   -0.000750
     3  O   -0.778316
     4  C    0.022825
     5  C   -0.010235
     6  H    0.099401
     7  H    0.149308
     8  H    0.055568
 Sum of Mulliken charges =  -1.00000

 Dipole moment (field-independent basis, Debye):
    X=              3.4041    Y=              3.8063    Z=              0.0000  Tot=              5.1064
 Quadrupole moment (field-independent basis, Debye-Ang):
   XX=            -39.6631   YY=            -39.9516   ZZ=            -36.8213
   XY=             -4.7441   XZ=              0.0000   YZ=             -0.0000

 682\CCSD=-228.948804\CCSD(T)=-228.9973172\RMSD=6.448e-09\PG=CS [SG(C4H
 Normal termination of Gaussian 09 at Fri Mar  8 10:08:43 2019.
