 Gaussian 09, Revision E.01,
 Gaussian 09:  EM64L-G09RevE.01 30-Nov-2015

 --------------------------------------
 #p ccsd(t,maxcyc=200)/6-311++G(3df,2p)
 --------------------------------------

 -------------
 ccsd(t) iener
 -------------
 Symbolic Z-matrix:
 Charge = -1 Multiplicity = 3

                         Standard orientation:
 ---------------------------------------------------------------------
 Center     Atomic      Atomic             Coordinates (Angstroms)
 Number     Number       Type             X           Y           Z
 ---------------------------------------------------------------------
      1          6           0       -0.086915   -0.716235    0.434862
      2          6           0       -0.504503    0.734213    0.260344
      3          8           0       -1.196605   -0.286781   -0.532335
      4          6           0        0.884258    0.975499   -0.148333
      5          6           0        1.258174   -0.424355   -0.058506
      6          1           0       -0.458604   -1.435204    1.160748
      7          1           0       -1.164109    1.349649    0.863592
      8          1           0        1.889469   -1.034933   -0.695869
 ---------------------------------------------------------------------

 SCF Done:  E(UHF) =  -227.886357777     A.U. after   30 cycles
 E2 =    -0.8685523208D+00 EUMP2 =    -0.22875491009736D+03
 CCSD(T)
 CCSD(T)= -0.22881785197D+03

 The electronic state is 3-A.
 Alpha  occ. eigenvalues --  -20.36004 -11.09695 -11.09509 -11.03279 -10.99965
 Alpha  occ. eigenvalues --   -1.17763  -0.90434  -0.69609  -0.64385  -0.51836
 Alpha  occ. eigenvalues --   -0.48128  -0.39802  -0.37985  -0.34758  -0.28165
 Alpha  occ. eigenvalues --   -0.23858  -0.21494  -0.13864  -0.03092
 Alpha virt. eigenvalues --    0.15630   0.16439   0.17573   0.22769   0.24297
 Alpha virt. eigenvalues --    0.26342   0.26695   0.27514   0.28709   0.29370
 Alpha virt. eigenvalues --    0.30092   0.31284   0.32546   0.33408   0.34275

  Beta  occ. eigenvalues --  -20.35413 -11.09505 -11.09330 -10.99490 -10.98955
  Beta  occ. eigenvalues --   -1.16350  -0.85768  -0.66723  -0.61142  -0.49860
  Beta  occ. eigenvalues --   -0.42591  -0.36309  -0.33552  -0.31083  -0.25365
  Beta  occ. eigenvalues --   -0.19689  -0.06935
  Beta virt. eigenvalues --    0.15628   0.16430   0.17494   0.21864   0.24518
  Beta virt. eigenvalues --    0.25550   0.26737   0.27638   0.28378   0.29320
  Beta virt. eigenvalues --    0.29603   0.30501   0.30840   0.32645   0.33442

 Mulliken charges and spin densities:
               1          2
     1  C    0.401849   0.049712
     2  C   -0.043935  -0.189922
     3  O   -0.866700   0.103775
     4  C   -0.076491   1.714965
     5  C   -0.630525   0.334547
     6  H    0.098218   0.010651
     7  H    0.066763  -0.002686
     8  H    0.050823  -0.021043
 Sum of Mulliken charges =  -1.00000   2.00000

 Dipole moment (field-independent basis, Debye):
    X=             -2.3110    Y=             -0.5448    Z=              0.9900  Tot=              2.5725
 Quadrupole moment (field-independent basis, Debye-Ang):
   XX=            -44.5549   YY=            -35.9192   ZZ=            -36.7318
   XY=             -2.7390   XZ=             -4.8602   YZ=             -0.2182

 83\PMP3-0=-228.7629127\MP4SDQ=-228.7697567\CCSD=-228.7693924\CCSD(T)=-
 Normal termination of Gaussian 09 at Fri Mar  8 15:40:04 2019.
