 Gaussian 09, Revision E.01,
 Gaussian 09:  EM64L-G09RevE.01 30-Nov-2015

 --------------------------------------
 #p ccsd(t,maxcyc=200)/6-311++G(3df,2p)
 --------------------------------------

 -------------
 ccsd(t) iener
 -------------
 Symbolic Z-matrix:
 Charge = -1 Multiplicity = 1

                         Standard orientation:
 ---------------------------------------------------------------------
 Center     Atomic      Atomic             Coordinates (Angstroms)
 Number     Number       Type             X           Y           Z
 ---------------------------------------------------------------------
      1          6           0       -0.000000    1.107409   -0.000000
      2          6           0       -0.560825   -1.005717    0.000000
      3          8           0       -1.100287    0.311148    0.000000
      4          6           0        0.795004   -1.068724    0.000000
      5          6           0        1.133804    0.353132   -0.000000
      6          1           0       -0.193296    2.170667   -0.000000
      7          1           0       -1.346064   -1.748538    0.000000
      8          1           0        2.133752    0.772089   -0.000000
 ---------------------------------------------------------------------

 SCF Done:  E(RHF) =  -228.048815728     A.U. after   19 cycles
 E2 =    -0.8849613605D+00 EUMP2 =    -0.22893377708815D+03
 CCSD(T)
 CCSD(T)= -0.22899005891D+03

 The electronic state is 1-A'.
 Alpha  occ. eigenvalues --  -20.40945 -11.09089 -11.05267 -11.02695 -10.96493
 Alpha  occ. eigenvalues --   -1.23108  -0.85314  -0.77789  -0.57670  -0.55718
 Alpha  occ. eigenvalues --   -0.49806  -0.41814  -0.39183  -0.35157  -0.30791
 Alpha  occ. eigenvalues --   -0.17291  -0.11129  -0.10441
 Alpha virt. eigenvalues --    0.14573   0.16114   0.16582   0.23709   0.24136
 Alpha virt. eigenvalues --    0.24604   0.28083   0.28259   0.29257   0.29325
 Alpha virt. eigenvalues --    0.29943   0.31325   0.31343   0.32124   0.33862

 Mulliken charges:
               1
     1  C    0.149057
     2  C    0.022285
     3  O   -0.813961
     4  C   -0.688742
     5  C    0.008382
     6  H    0.131422
     7  H    0.107382
     8  H    0.084175
 Sum of Mulliken charges =  -1.00000

 Dipole moment (field-independent basis, Debye):
    X=             -2.3013    Y=              4.4029    Z=             -0.0000  Tot=              4.9680
 Quadrupole moment (field-independent basis, Debye-Ang):
   XX=            -39.4553   YY=            -41.2648   ZZ=            -36.6633
   XY=              6.8724   XZ=              0.0000   YZ=              0.0000

 4DQ=-228.9324973\MP4SDQ=-228.9436519\CCSD=-228.9414106\CCSD(T)=-228.99
 Normal termination of Gaussian 09 at Fri Mar  8 10:06:32 2019.
