 Gaussian 09, Revision E.01,
 Gaussian 09:  EM64L-G09RevE.01 30-Nov-2015

 --------------------------------------
 #p ccsd(t,maxcyc=200)/6-311++G(3df,2p)
 --------------------------------------

 -------------
 ccsd(t) iener
 -------------
 Symbolic Z-matrix:
 Charge = -1 Multiplicity = 1

                         Standard orientation:
 ---------------------------------------------------------------------
 Center     Atomic      Atomic             Coordinates (Angstroms)
 Number     Number       Type             X           Y           Z
 ---------------------------------------------------------------------
      1          6           0       -1.494447    0.643180   -0.064619
      2          6           0        1.038399   -0.001091   -0.527121
      3          8           0        2.109243    0.000413    0.081520
      4          6           0       -0.201615   -0.000704    0.400067
      5          6           0       -1.495578   -0.642313   -0.064833
      6          1           0       -1.990320    1.568239   -0.297553
      7          1           0        0.031320   -0.000588    1.481468
      8          1           0       -1.995493   -1.565388   -0.297040
 ---------------------------------------------------------------------

 SCF Done:  E(RHF) =  -227.979115391     A.U. after   16 cycles
 E2 =    -0.8729406763D+00 EUMP2 =    -0.22885205606684D+03
 CCSD(T)
 CCSD(T)= -0.22891409423D+03

 The electronic state is 1-A.
 Alpha  occ. eigenvalues --  -20.30220 -11.09048 -11.08821 -11.06015 -11.03955
 Alpha  occ. eigenvalues --   -1.12401  -0.99611  -0.67621  -0.61827  -0.54366
 Alpha  occ. eigenvalues --   -0.48421  -0.39775  -0.35324  -0.29915  -0.27676
 Alpha  occ. eigenvalues --   -0.22942  -0.20993  -0.04862
 Alpha virt. eigenvalues --    0.13669   0.14412   0.17108   0.22250   0.23298
 Alpha virt. eigenvalues --    0.24746   0.25089   0.25433   0.27937   0.28336
 Alpha virt. eigenvalues --    0.28617   0.30414   0.31052   0.31776   0.32193

 Mulliken charges:
               1
     1  C   -0.262835
     2  C   -0.892477
     3  O   -0.762416
     4  C    0.801188
     5  C   -0.261417
     6  H    0.180627
     7  H    0.016660
     8  H    0.180670
 Sum of Mulliken charges =  -1.00000

 Dipole moment (field-independent basis, Debye):
    X=             -6.5560    Y=              0.0046    Z=              2.0775  Tot=              6.8773
 Quadrupole moment (field-independent basis, Debye-Ang):
   XX=            -48.7510   YY=            -30.9925   ZZ=            -41.0442
   XY=              0.0032   XZ=              2.3945   YZ=             -0.0104

 69613\CCSD(T)=-228.9140942\RMSD=8.520e-09\PG=C01 [X(C4H3O1)]\\@
 Normal termination of Gaussian 09 at Fri Mar  8 11:07:31 2019.
