 Gaussian 09, Revision E.01,
 Gaussian 09:  EM64L-G09RevE.01 30-Nov-2015

 -----------------------------------------------------
 #p ccsd(t,maxcyc=200)/6-311++G(3df,2p) scf(QC,IntRep)
 -----------------------------------------------------

 -------------
 ccsd(t) iener
 -------------
 Symbolic Z-matrix:
 Charge = -1 Multiplicity = 3

                         Standard orientation:
 ---------------------------------------------------------------------
 Center     Atomic      Atomic             Coordinates (Angstroms)
 Number     Number       Type             X           Y           Z
 ---------------------------------------------------------------------
      1          6           0       -0.000000    1.085744   -0.000000
      2          6           0       -0.591314   -1.036760    0.000000
      3          8           0       -1.075023    0.249365   -0.000000
      4          6           0        0.751601   -0.961455    0.000000
      5          6           0        1.169527    0.393629    0.000000
      6          1           0       -0.223462    2.139319   -0.000000
      7          1           0       -1.320666   -1.826532    0.000000
      8          1           0        2.165422    0.805349    0.000000
 ---------------------------------------------------------------------

 SCF Done:  E(UHF) =  -227.951232981     a.u. after   15 cycles
 E2 =    -0.8483548474D+00 EUMP2 =    -0.22879958782873D+03
 CCSD(T)
 CCSD(T)= -0.22886282847D+03

 The electronic state is 3-A".
 Alpha  occ. eigenvalues --  -20.41077 -11.09355 -11.07461 -11.07010 -11.04355
 Alpha  occ. eigenvalues --   -1.26206  -0.90805  -0.81681  -0.61036  -0.59395
 Alpha  occ. eigenvalues --   -0.53602  -0.46205  -0.41410  -0.40007  -0.35406
 Alpha  occ. eigenvalues --   -0.26646  -0.24574  -0.16247   0.07928
 Alpha virt. eigenvalues --    0.14831   0.15589   0.15862   0.21912   0.23980
 Alpha virt. eigenvalues --    0.26307   0.27502   0.27650   0.28334   0.28882
 Alpha virt. eigenvalues --    0.29186   0.30331   0.30862   0.31113   0.32377

  Beta  occ. eigenvalues --  -20.40037 -11.08323 -11.07408 -11.04822 -11.04047
  Beta  occ. eigenvalues --   -1.23759  -0.87335  -0.79059  -0.59803  -0.56402
  Beta  occ. eigenvalues --   -0.48941  -0.41414  -0.40405  -0.38807  -0.33668
  Beta  occ. eigenvalues --   -0.20185  -0.11398
  Beta virt. eigenvalues --    0.14951   0.15638   0.16353   0.20615   0.24473
  Beta virt. eigenvalues --    0.25844   0.26764   0.27579   0.28433   0.29178
  Beta virt. eigenvalues --    0.29445   0.29960   0.30328   0.30732   0.32223

 Mulliken charges and spin densities:
               1          2
     1  C   -0.362909   1.010198
     2  C   -0.596194   0.688116
     3  O   -0.569103  -0.123525
     4  C    0.177181   1.106784
     5  C   -0.065372  -0.606848
     6  H    0.128208  -0.055461
     7  H    0.150442  -0.033952
     8  H    0.137747   0.014688
 Sum of Mulliken charges =  -1.00000   2.00000

 Dipole moment (field-independent basis, Debye):
    X=              1.7092    Y=              1.3278    Z=             -0.0000  Tot=              2.1643
 Quadrupole moment (field-independent basis, Debye-Ang):
   XX=            -40.0069   YY=            -39.9618   ZZ=            -47.8080
   XY=              0.3181   XZ=              0.0000   YZ=              0.0000

 MP3-0=-228.8139309\MP4SDQ=-228.8170975\CCSD=-228.8177421\CCSD(T)=-228.
 Normal termination of Gaussian 09 at Mon Mar 11 16:53:35 2019.
