 Gaussian 09, Revision E.01,
 Gaussian 09:  EM64L-G09RevE.01 30-Nov-2015

 --------------------------------------
 #p ccsd(t,maxcyc=200)/6-311++G(3df,2p)
 --------------------------------------

 -------------
 ccsd(t) iener
 -------------
 Symbolic Z-matrix:
 Charge = -1 Multiplicity = 3

                         Standard orientation:
 ---------------------------------------------------------------------
 Center     Atomic      Atomic             Coordinates (Angstroms)
 Number     Number       Type             X           Y           Z
 ---------------------------------------------------------------------
      1          6           0       -0.814333   -1.006750   -0.000000
      2          6           0       -0.000000    1.097455    0.000000
      3          8           0       -1.126856    0.356137    0.000000
      4          6           0        1.129070    0.286033   -0.000000
      5          6           0        0.641654   -1.002024   -0.000000
      6          1           0       -0.106134    2.174177    0.000000
      7          1           0        2.150675    0.635795   -0.000000
      8          1           0        1.231960   -1.907345   -0.000000
 ---------------------------------------------------------------------

 SCF Done:  E(UHF) =  -227.995350966     A.U. after   33 cycles
 E2 =    -0.8145090445D+00 EUMP2 =    -0.22880986001080D+03
 CCSD(T)
 CCSD(T)= -0.22888476900D+03

 The electronic state is 3-A".
 Alpha  occ. eigenvalues --  -20.51028 -11.20507 -11.18245 -11.14440 -11.12668
 Alpha  occ. eigenvalues --   -1.34634  -0.99029  -0.89896  -0.69485  -0.67292
 Alpha  occ. eigenvalues --   -0.60971  -0.53458  -0.48279  -0.46330  -0.43481
 Alpha  occ. eigenvalues --   -0.31193  -0.26993  -0.24497   0.02816
 Alpha virt. eigenvalues --    0.12929   0.14467   0.19691   0.20142   0.21344
 Alpha virt. eigenvalues --    0.22049   0.24318   0.24481   0.25335   0.25915
 Alpha virt. eigenvalues --    0.26791   0.27806   0.28002   0.29028   0.30384

  Beta  occ. eigenvalues --  -20.51343 -11.18857 -11.17778 -11.13497 -11.13359
  Beta  occ. eigenvalues --   -1.34290  -0.98069  -0.84980  -0.68324  -0.66128
  Beta  occ. eigenvalues --   -0.59765  -0.49718  -0.48102  -0.45540  -0.43374
  Beta  occ. eigenvalues --   -0.29128  -0.25993
  Beta virt. eigenvalues --    0.13100   0.13916   0.16335   0.17918   0.20942
  Beta virt. eigenvalues --    0.21288   0.22361   0.24684   0.25259   0.26234
  Beta virt. eigenvalues --    0.27134   0.27622   0.28104   0.28537   0.30870

 Mulliken charges and spin densities:
               1          2
     1  C   -0.927743   0.838187
     2  C    2.819992  -1.889208
     3  O   -0.754320  -0.086501
     4  C   -0.123637  -0.247090
     5  C    2.183761  -1.309784
     6  H   -1.455120   1.585700
     7  H   -3.077986   3.352678
     8  H    0.335053  -0.243981
 Sum of Mulliken charges =  -1.00000   2.00000

 Dipole moment (field-independent basis, Debye):
    X=             -6.6197    Y=             -6.9679    Z=             -0.0000  Tot=              9.6110
 Quadrupole moment (field-independent basis, Debye-Ang):
   XX=            -78.8690   YY=            -71.0714   ZZ=            -48.7286
   XY=            -18.1442   XZ=             -0.0000   YZ=             -0.0000

 8.8409567\CCSD(T)=-228.884769\S2=2.106595\S2-1=2.064931\S2A=2.002044\R
 Normal termination of Gaussian 09 at Fri Mar  8 11:55:45 2019.
