 Gaussian 09, Revision E.01,
 Gaussian 09:  EM64L-G09RevE.01 30-Nov-2015

 --------------------------------------
 #p ccsd(t,maxcyc=200)/6-311++G(3df,2p)
 --------------------------------------

 -------------
 ccsd(t) iener
 -------------
 Symbolic Z-matrix:
 Charge = -1 Multiplicity = 3

                         Standard orientation:
 ---------------------------------------------------------------------
 Center     Atomic      Atomic             Coordinates (Angstroms)
 Number     Number       Type             X           Y           Z
 ---------------------------------------------------------------------
      1          6           0       -1.000473   -0.175377    0.033721
      2          1           0       -1.225327    0.914745   -0.032748
      3          1           0        1.082251   -0.779007    0.274375
      4          1           0        1.045852    0.800526    0.363369
      5          8           0        0.637508    0.014500   -0.100916
 ---------------------------------------------------------------------

 SCF Done:  E(UHF) =  -114.314304239     A.U. after   23 cycles
 E2 =    -0.3974809883D+00 EUMP2 =    -0.11471178522742D+03
 CCSD(T)
 CCSD(T)= -0.11475102226D+03

 The electronic state is 3-A.
 Alpha  occ. eigenvalues --  -20.48499 -11.08986  -1.26901  -0.71465  -0.61322
 Alpha  occ. eigenvalues --   -0.48917  -0.42395  -0.23389  -0.18271   0.01320
 Alpha virt. eigenvalues --    0.16757   0.18231   0.24437   0.25711   0.27441
 Alpha virt. eigenvalues --    0.30387   0.35505   0.39391   0.40012   0.40744
 Alpha virt. eigenvalues --    0.43774   0.45460   0.47002   0.55343   0.62833

  Beta  occ. eigenvalues --  -20.48047 -11.06609  -1.25466  -0.64463  -0.60859
  Beta  occ. eigenvalues --   -0.46110  -0.40422  -0.19053
  Beta virt. eigenvalues --    0.17282   0.19893   0.22193   0.23030   0.26128
  Beta virt. eigenvalues --    0.28091   0.31635   0.37348   0.39366   0.41792
  Beta virt. eigenvalues --    0.42163   0.42824   0.45267   0.47452   0.49558

 Mulliken charges and spin densities:
               1          2
     1  C    0.317087   0.456463
     2  H   -0.043070   0.046440
     3  H   -0.219978   0.534075
     4  H   -0.818366   1.155426
     5  O   -0.235674  -0.192404
 Sum of Mulliken charges =  -1.00000   2.00000

 Dipole moment (field-independent basis, Debye):
    X=             -3.6213    Y=             -0.9240    Z=             -1.7354  Tot=              4.1206
 Quadrupole moment (field-independent basis, Debye-Ang):
   XX=            -40.4572   YY=            -30.4278   ZZ=            -28.4588
   XY=             -6.5973   XZ=             -3.2807   YZ=             -1.3889

 4SDQ=-114.7334037\CCSD=-114.7345156\CCSD(T)=-114.7510223\S2=2.01724\S2
 Normal termination of Gaussian 09 at Fri Mar  8 16:54:42 2019.
