 Gaussian 09, Revision E.01,
 Gaussian 09:  EM64L-G09RevE.01 30-Nov-2015

 --------------------------------------
 #p ccsd(t,maxcyc=200)/6-311++G(3df,2p)
 --------------------------------------

 -------------
 ccsd(t) iener
 -------------
 Symbolic Z-matrix:
 Charge = -1 Multiplicity = 3

                         Standard orientation:
 ---------------------------------------------------------------------
 Center     Atomic      Atomic             Coordinates (Angstroms)
 Number     Number       Type             X           Y           Z
 ---------------------------------------------------------------------
      1          6           0        0.567961    0.000017   -0.017824
      2          1           0        1.012693    0.910497   -0.448405
      3          1           0        0.889148   -0.000416    1.049853
      4          1           0        1.012494   -0.910286   -0.448992
      5          8           0       -0.790263    0.000013   -0.005689
 ---------------------------------------------------------------------

 SCF Done:  E(UHF) =  -114.424862169     A.U. after   30 cycles
 E2 =    -0.3729887108D+00 EUMP2 =    -0.11479785087982D+03
 CCSD(T)
 CCSD(T)= -0.11484118335D+03

 The electronic state is 3-A.
 Alpha  occ. eigenvalues --  -20.48388 -11.12878  -1.27228  -0.77509  -0.56551
 Alpha  occ. eigenvalues --   -0.51171  -0.49506  -0.36439  -0.33533   0.03809
 Alpha virt. eigenvalues --    0.16732   0.16857   0.20285   0.26303   0.27065
 Alpha virt. eigenvalues --    0.30189   0.37151   0.40522   0.42136   0.42512
 Alpha virt. eigenvalues --    0.42878   0.45203   0.47194   0.57963   0.58761

  Beta  occ. eigenvalues --  -20.44378 -11.13017  -1.14136  -0.73919  -0.49398
  Beta  occ. eigenvalues --   -0.45783  -0.42272  -0.30389
  Beta virt. eigenvalues --    0.17442   0.20202   0.20577   0.22011   0.22704
  Beta virt. eigenvalues --    0.28453   0.28604   0.32027   0.37821   0.42137
  Beta virt. eigenvalues --    0.43240   0.43795   0.46451   0.47484   0.48158

 Mulliken charges and spin densities:
               1          2
     1  C    3.556461  -3.545865
     2  H   -1.193553   1.323646
     3  H   -1.459007   1.687694
     4  H   -1.193755   1.323928
     5  O   -0.710146   1.210597
 Sum of Mulliken charges =  -1.00000   2.00000

 Dipole moment (field-independent basis, Debye):
    X=             -6.7107    Y=              0.0011    Z=             -1.0512  Tot=              6.7925
 Quadrupole moment (field-independent basis, Debye-Ang):
   XX=            -43.5156   YY=            -38.1865   ZZ=            -38.0563
   XY=              0.0009   XZ=             -1.0875   YZ=              0.0004

 P4SDQ=-114.8256849\CCSD=-114.82724\CCSD(T)=-114.8411833\S2=2.011295\S2
 Normal termination of Gaussian 09 at Fri Mar  8 16:56:20 2019.
