 Gaussian 09, Revision E.01,
 Gaussian 09:  EM64L-G09RevE.01 30-Nov-2015

 --------------------------------------
 #p ccsd(t,maxcyc=200)/6-311++G(3df,2p)
 --------------------------------------

 -------------
 ccsd(t) iener
 -------------
 Symbolic Z-matrix:
 Charge = -1 Multiplicity = 1

                         Standard orientation:
 ---------------------------------------------------------------------
 Center     Atomic      Atomic             Coordinates (Angstroms)
 Number     Number       Type             X           Y           Z
 ---------------------------------------------------------------------
      1          6           0       -0.756439   -0.000509    0.182095
      2          1           0        1.113486   -0.003315    0.727179
      3          1           0       -1.168507   -0.877157   -0.353822
      4          1           0       -1.168399    0.878904   -0.349009
      5          8           0        0.720256    0.000578   -0.139615
 ---------------------------------------------------------------------

 SCF Done:  E(RHF) =  -114.399861710     A.U. after   14 cycles
 E2 =    -0.4421209619D+00 EUMP2 =    -0.11484198267197D+03
 CCSD(T)
 CCSD(T)= -0.11487369192D+03

 The electronic state is 1-A.
 Alpha  occ. eigenvalues --  -20.31345 -10.97825  -1.08685  -0.60926  -0.39300
 Alpha  occ. eigenvalues --   -0.33133  -0.30704  -0.19518  -0.03983
 Alpha virt. eigenvalues --    0.18124   0.19827   0.20940   0.27562   0.30983
 Alpha virt. eigenvalues --    0.31637   0.36176   0.44040   0.45275   0.47126
 Alpha virt. eigenvalues --    0.47297   0.49363   0.53862   0.56616   0.65126

 Mulliken charges:
               1
     1  C   -0.514543
     2  H    0.213408
     3  H   -0.001065
     4  H   -0.000959
     5  O   -0.696841
 Sum of Mulliken charges =  -1.00000

 Dipole moment (field-independent basis, Debye):
    X=              2.5036    Y=              0.0011    Z=             -1.1216  Tot=              2.7434
 Quadrupole moment (field-independent basis, Debye-Ang):
   XX=            -20.9952   YY=            -17.7957   ZZ=            -21.3123
   XY=             -0.0182   XZ=              5.0516   YZ=              0.0066

 4.851956\MP4SDQ=-114.8565107\CCSD=-114.8553936\CCSD(T)=-114.8736919\RM
 Normal termination of Gaussian 09 at Fri Mar  8 11:58:23 2019.
