 Gaussian 09, Revision E.01,
 Gaussian 09:  EM64L-G09RevE.01 30-Nov-2015

 --------------------------------------
 #p ccsd(t,maxcyc=200)/6-311++G(3df,2p)
 --------------------------------------

 -------------
 ccsd(t) iener
 -------------
 Symbolic Z-matrix:
 Charge = -1 Multiplicity = 1

                         Standard orientation:
 ---------------------------------------------------------------------
 Center     Atomic      Atomic             Coordinates (Angstroms)
 Number     Number       Type             X           Y           Z
 ---------------------------------------------------------------------
      1          6           0       -0.538343    0.000211   -0.000029
      2          1           0       -1.033926   -0.437341    0.926649
      3          1           0       -1.033281    1.021391   -0.084959
      4          1           0       -1.033863   -0.584630   -0.841621
      5          8           0        0.791391   -0.000085    0.000013
 ---------------------------------------------------------------------

 SCF Done:  E(RHF) =  -114.452155325     A.U. after   12 cycles
 E2 =    -0.4424679358D+00 EUMP2 =    -0.11489462326131D+03
 CCSD(T)
 CCSD(T)= -0.11492422681D+03

 The electronic state is 1-A.
 Alpha  occ. eigenvalues --  -20.19993 -11.03375  -0.99969  -0.62048  -0.33683
 Alpha  occ. eigenvalues --   -0.33656  -0.28133  -0.10485  -0.10477
 Alpha virt. eigenvalues --    0.16903   0.20225   0.20230   0.25632   0.30919
 Alpha virt. eigenvalues --    0.30924   0.33731   0.46450   0.47747   0.47750
 Alpha virt. eigenvalues --    0.51458   0.52541   0.52544   0.56295   0.67164

 Mulliken charges:
               1
     1  C    0.304510
     2  H   -0.067374
     3  H   -0.066889
     4  H   -0.067388
     5  O   -1.102859
 Sum of Mulliken charges =  -1.00000

 Dipole moment (field-independent basis, Debye):
    X=             -2.5477    Y=              0.0018    Z=             -0.0001  Tot=              2.5477
 Quadrupole moment (field-independent basis, Debye-Ang):
   XX=            -21.6461   YY=            -17.0068   ZZ=            -17.0121
   XY=             -0.0015   XZ=             -0.0000   YZ=             -0.0003

 4.902366\MP4SDQ=-114.9080012\CCSD=-114.9059901\CCSD(T)=-114.9242268\RM
 Normal termination of Gaussian 09 at Fri Mar  8 11:58:59 2019.
