 Gaussian 09, Revision E.01,
 Gaussian 09:  EM64L-G09RevE.01 30-Nov-2015

 ------------------------------------------------------
 #p ccsd(t,maxcyc=1000)/6-311++G(3df,2p) scf(QC,IntRep)
 ------------------------------------------------------

 -------------
 ccsd(t) iener
 -------------
 Symbolic Z-matrix:
 Charge = -1 Multiplicity = 2

                         Standard orientation:
 ---------------------------------------------------------------------
 Center     Atomic      Atomic             Coordinates (Angstroms)
 Number     Number       Type             X           Y           Z
 ---------------------------------------------------------------------
      1          6           0       -0.027008    0.395640    0.000060
      2          6           0       -1.232073   -0.170636    0.000027
      3          1           0       -2.114048    0.457648   -0.000346
      4          1           0        1.891858    0.326741    0.000243
      5          1           0       -1.361835   -1.244378    0.000197
      6          1           0        0.090013    1.475350    0.000016
      7          8           0        1.131062   -0.295673   -0.000079
 ---------------------------------------------------------------------

 SCF Done:  E(UHF) =  -152.838303403     a.u. after   19 cycles
 E2 =    -0.5776373473D+00 EUMP2 =    -0.15341594075067D+03
 CCSD(T)
 CCSD(T)= -0.15346791146D+03

 The electronic state is 2-A.
 Alpha  occ. eigenvalues --  -20.41149 -11.06931 -11.00417  -1.22406  -0.82040
 Alpha  occ. eigenvalues --   -0.60463  -0.55274  -0.42888  -0.42073  -0.37198
 Alpha  occ. eigenvalues --   -0.32029  -0.17037   0.10167
 Alpha virt. eigenvalues --    0.14561   0.17420   0.18227   0.19502   0.26395
 Alpha virt. eigenvalues --    0.26633   0.27497   0.30737   0.32965   0.34149
 Alpha virt. eigenvalues --    0.36305   0.37442   0.39091   0.42163   0.44224

  Beta  occ. eigenvalues --  -20.40917 -11.05443 -11.01281  -1.21523  -0.81546
  Beta  occ. eigenvalues --   -0.59935  -0.54382  -0.42662  -0.38214  -0.37393
  Beta  occ. eigenvalues --   -0.31962  -0.14565
  Beta virt. eigenvalues --    0.14647   0.17559   0.19213   0.19837   0.26449
  Beta virt. eigenvalues --    0.26933   0.27930   0.31102   0.31251   0.34224
  Beta virt. eigenvalues --    0.36919   0.37407   0.39354   0.41630   0.42452

 Mulliken charges and spin densities:
               1          2
     1  C    0.669443   0.300565
     2  C   -1.460889   0.793062
     3  H    0.106982  -0.011813
     4  H    0.227019  -0.005253
     5  H    0.119187  -0.020638
     6  H    0.065729  -0.068538
     7  O   -0.727472   0.012614
 Sum of Mulliken charges =  -1.00000   1.00000

 Dipole moment (field-independent basis, Debye):
    X=              7.0821    Y=              3.0015    Z=              0.0009  Tot=              7.6919
 Quadrupole moment (field-independent basis, Debye-Ang):
   XX=            -36.2483   YY=            -26.5745   ZZ=            -39.6205
   XY=             -0.9327   XZ=              0.0039   YZ=             -0.0049

 \MP4SDQ=-153.4395476\CCSD=-153.4426533\CCSD(T)=-153.4679115\S2=0.83707
 Normal termination of Gaussian 09 at Tue Mar 12 00:41:48 2019.
