 Gaussian 09, Revision E.01,
 Gaussian 09:  EM64L-G09RevE.01 30-Nov-2015

 --------------------------------------
 #p ccsd(t,maxcyc=200)/6-311++G(3df,2p)
 --------------------------------------

 -------------
 ccsd(t) iener
 -------------
 Symbolic Z-matrix:
 Charge = -1 Multiplicity = 2

                         Standard orientation:
 ---------------------------------------------------------------------
 Center     Atomic      Atomic             Coordinates (Angstroms)
 Number     Number       Type             X           Y           Z
 ---------------------------------------------------------------------
      1          6           0        1.419806   -1.464514    0.000000
      2          6           0       -0.000000    0.634608   -0.000000
      3          6           0        0.226334   -0.741522    0.000000
      4          1           0       -1.901316    0.462492   -0.000000
      5          1           0       -0.720131   -1.316725    0.000000
      6          1           0        0.770854    1.392188   -0.000000
      7          1           0        2.264438   -0.735664    0.000000
      8          8           0       -1.286335    1.203285   -0.000000
 ---------------------------------------------------------------------

 SCF Done:  E(UHF) =  -190.726434613     A.U. after   24 cycles
 E2 =    -0.7074741791D+00 EUMP2 =    -0.19143390879167D+03
 CCSD(T)
 CCSD(T)= -0.19150204743D+03

 The electronic state is 2-A".
 Alpha  occ. eigenvalues --  -20.42070 -11.09351 -11.01424 -10.96783  -1.22211
 Alpha  occ. eigenvalues --   -0.84127  -0.69782  -0.58482  -0.48164  -0.43495
 Alpha  occ. eigenvalues --   -0.42703  -0.36582  -0.28697  -0.22063  -0.10665
 Alpha  occ. eigenvalues --   -0.07542
 Alpha virt. eigenvalues --    0.15373   0.16357   0.18720   0.19717   0.25141
 Alpha virt. eigenvalues --    0.25419   0.27241   0.28756   0.29695   0.30654
 Alpha virt. eigenvalues --    0.31676   0.32457   0.34108   0.35516   0.36534

  Beta  occ. eigenvalues --  -20.41735 -11.07335 -11.02625 -10.95325  -1.21035
  Beta  occ. eigenvalues --   -0.83062  -0.65403  -0.56492  -0.47618  -0.42895
  Beta  occ. eigenvalues --   -0.37499  -0.36185  -0.28393  -0.17688  -0.07354
  Beta virt. eigenvalues --    0.15375   0.16385   0.18752   0.19733   0.25068
  Beta virt. eigenvalues --    0.25205   0.27330   0.27642   0.29779   0.29843
  Beta virt. eigenvalues --    0.31580   0.32670   0.34087   0.35774   0.36711

 Mulliken charges and spin densities:
               1          2
     1  C   -0.924136   0.892230
     2  C    0.162444   1.087567
     3  C    0.169337  -0.871934
     4  H    0.234353  -0.003664
     5  H   -0.009719   0.031881
     6  H    0.114369  -0.074169
     7  H    0.004084  -0.066433
     8  O   -0.750731   0.004523
 Sum of Mulliken charges =  -1.00000   1.00000

 Dipole moment (field-independent basis, Debye):
    X=             -5.0626    Y=              5.4517    Z=             -0.0000  Tot=              7.4398
 Quadrupole moment (field-independent basis, Debye-Ang):
   XX=            -36.2107   YY=            -48.4656   ZZ=            -31.4555
   XY=             15.5245   XZ=             -0.0000   YZ=              0.0000

 1.4666458\MP4SDQ=-191.4652293\CCSD=-191.4677011\CCSD(T)=-191.5020474\S
 Normal termination of Gaussian 09 at Fri Mar  8 23:15:36 2019.
