 Gaussian 09, Revision E.01,
 Gaussian 09:  EM64L-G09RevE.01 30-Nov-2015

 --------------------------------------
 #p ccsd(t,maxcyc=200)/6-311++G(3df,2p)
 --------------------------------------

 -------------
 ccsd(t) iener
 -------------
 Symbolic Z-matrix:
 Charge = -1 Multiplicity = 2

                         Standard orientation:
 ---------------------------------------------------------------------
 Center     Atomic      Atomic             Coordinates (Angstroms)
 Number     Number       Type             X           Y           Z
 ---------------------------------------------------------------------
      1          6           0        0.612839   -0.029162    0.000012
      2          6           0       -0.595612    0.454294   -0.000415
      3          6           0        1.941771   -0.109521    0.000066
      4          1           0       -1.592146   -1.181795    0.001009
      5          1           0        2.509401   -0.195711    0.921666
      6          1           0       -0.784196    1.527430   -0.000985
      7          1           0        2.509211   -0.200398   -0.921214
      8          8           0       -1.799532   -0.230399    0.000193
 ---------------------------------------------------------------------

 SCF Done:  E(UHF) =  -190.738993212     A.U. after   54 cycles
 E2 =    -0.7235515236D+00 EUMP2 =    -0.19146254473511D+03
 CCSD(T)
 CCSD(T)= -0.19152497288D+03

 The electronic state is 2-A.
 Alpha  occ. eigenvalues --  -20.46364 -11.16699 -11.11448 -11.11248  -1.26592
 Alpha  occ. eigenvalues --   -0.93212  -0.80679  -0.65595  -0.53488  -0.51289
 Alpha  occ. eigenvalues --   -0.47673  -0.43927  -0.43894  -0.24882  -0.21984
 Alpha  occ. eigenvalues --    0.03798
 Alpha virt. eigenvalues --    0.14181   0.14560   0.15451   0.20808   0.21656
 Alpha virt. eigenvalues --    0.23259   0.23278   0.25460   0.27664   0.27736
 Alpha virt. eigenvalues --    0.30298   0.31261   0.32113   0.32369   0.34594

  Beta  occ. eigenvalues --  -20.46339 -11.16901 -11.11568 -11.10837  -1.26528
  Beta  occ. eigenvalues --   -0.92607  -0.81104  -0.65307  -0.53215  -0.50920
  Beta  occ. eigenvalues --   -0.47562  -0.44335  -0.43787  -0.24608  -0.21829
  Beta virt. eigenvalues --    0.15371   0.16192   0.17488   0.18303   0.22272
  Beta virt. eigenvalues --    0.23252   0.24069   0.24715   0.26266   0.28557
  Beta virt. eigenvalues --    0.28683   0.31075   0.32034   0.33123   0.33472

 Mulliken charges and spin densities:
               1          2
     1  C    0.229624   0.375108
     2  C   -3.378370   3.415921
     3  C    5.545940  -6.197508
     4  H   -0.128541   0.385433
     5  H   -0.908839   1.075422
     6  H   -0.700756   0.857166
     7  H   -0.907605   1.074159
     8  O   -0.751453   0.014300
 Sum of Mulliken charges =  -1.00000   1.00000

 Dipole moment (field-independent basis, Debye):
    X=             -6.2894    Y=             -1.2064    Z=              0.0004  Tot=              6.4041
 Quadrupole moment (field-independent basis, Debye-Ang):
   XX=            -71.0820   YY=            -46.5340   ZZ=            -50.3716
   XY=             -1.8692   XZ=             -0.0011   YZ=             -0.0180

 5\PMP3-0=-191.480747\MP4SDQ=-191.48637\CCSD=-191.4884257\CCSD(T)=-191.
 Normal termination of Gaussian 09 at Fri Mar  8 21:16:19 2019.
