 Gaussian 09, Revision E.01,
 Gaussian 09:  EM64L-G09RevE.01 30-Nov-2015

 --------------------------------------
 #p ccsd(t,maxcyc=200)/6-311++G(3df,2p)
 --------------------------------------

 -------------
 ccsd(t) iener
 -------------
 Symbolic Z-matrix:
 Charge = -1 Multiplicity = 4

                         Standard orientation:
 ---------------------------------------------------------------------
 Center     Atomic      Atomic             Coordinates (Angstroms)
 Number     Number       Type             X           Y           Z
 ---------------------------------------------------------------------
      1          6           0        1.015571   -0.607838    0.096682
      2          6           0       -0.236826   -0.041098   -0.471871
      3          6           0        0.850087    0.876235   -0.043605
      4          1           0       -2.032820    0.552232   -0.089711
      5          1           0        1.684322   -1.089687   -0.621355
      6          1           0        1.033177   -1.070303    1.080163
      7          1           0        0.843441    1.588847    0.770893
      8          8           0       -1.412639   -0.168111    0.171596
 ---------------------------------------------------------------------

 SCF Done:  E(UHF) =  -190.652136386     A.U. after   32 cycles
 E2 =    -0.6822035428D+00 EUMP2 =    -0.19133433992890D+03
 CCSD(T)
 CCSD(T)= -0.19139717271D+03

 The electronic state is 4-A.
 Alpha  occ. eigenvalues --  -20.44869 -11.17414 -11.13235 -11.11076  -1.26913
 Alpha  occ. eigenvalues --   -1.02328  -0.70836  -0.68512  -0.58196  -0.52483
 Alpha  occ. eigenvalues --   -0.49101  -0.43700  -0.37450  -0.33713  -0.27090
 Alpha  occ. eigenvalues --   -0.20314   0.03782
 Alpha virt. eigenvalues --    0.13547   0.15094   0.15465   0.20644   0.22451
 Alpha virt. eigenvalues --    0.23908   0.24032   0.24647   0.27416   0.28823
 Alpha virt. eigenvalues --    0.29139   0.30851   0.31292   0.32380   0.32629

  Beta  occ. eigenvalues --  -20.43899 -11.14848 -11.11349 -11.10443  -1.23983
  Beta  occ. eigenvalues --   -0.97603  -0.66862  -0.63449  -0.54789  -0.47440
  Beta  occ. eigenvalues --   -0.45114  -0.37541  -0.33159  -0.27917
  Beta virt. eigenvalues --    0.13719   0.15760   0.16262   0.18965   0.20084
  Beta virt. eigenvalues --    0.23022   0.23576   0.24129   0.25261   0.26785
  Beta virt. eigenvalues --    0.28486   0.29662   0.30225   0.31024   0.31921

 Mulliken charges and spin densities:
               1          2
     1  C   -0.534263   0.146200
     2  C    2.244467  -0.754198
     3  C    0.018925   0.866282
     4  H   -1.386904   1.669805
     5  H   -0.029504   0.182448
     6  H    0.156022  -0.043472
     7  H   -0.600819   0.709988
     8  O   -0.867924   0.222947
 Sum of Mulliken charges =  -1.00000   3.00000

 Dipole moment (field-independent basis, Debye):
    X=              9.8439    Y=             -5.7660    Z=             -0.1093  Tot=             11.4088
 Quadrupole moment (field-independent basis, Debye-Ang):
   XX=            -69.0570   YY=            -49.0017   ZZ=            -42.4031
   XY=              8.5627   XZ=             -0.1210   YZ=             -1.3740

 28\PMP3-0=-191.3590399\MP4SDQ=-191.364361\CCSD=-191.3653154\CCSD(T)=-1
 Normal termination of Gaussian 09 at Sat Mar  9 00:32:47 2019.
