 Gaussian 09, Revision E.01,
 Gaussian 09:  EM64L-G09RevE.01 30-Nov-2015

 --------------------------------------
 #p ccsd(t,maxcyc=200)/6-311++G(3df,2p)
 --------------------------------------

 -------------
 ccsd(t) iener
 -------------
 Symbolic Z-matrix:
 Charge = -1 Multiplicity = 2

                         Standard orientation:
 ---------------------------------------------------------------------
 Center     Atomic      Atomic             Coordinates (Angstroms)
 Number     Number       Type             X           Y           Z
 ---------------------------------------------------------------------
      1          8           0        2.371112   -0.495430    0.017375
      2          6           0       -2.472082   -0.157722    0.142938
      3          6           0       -1.113058    0.106517   -0.368621
      4          6           0        0.093137    0.201335   -0.074123
      5          6           0        1.463912    0.387410    0.085858
      6          1           0       -2.498673   -0.275040    1.243898
      7          1           0       -2.891429   -1.071291   -0.289395
      8          1           0       -3.166095    0.648229   -0.112445
      9          1           0        1.755850    1.436308    0.302631
 ---------------------------------------------------------------------

 SCF Done:  E(UHF) =  -228.641278992     A.U. after   31 cycles
 E2 =    -0.8647293622D+00 EUMP2 =    -0.22950600835472D+03
 CCSD(T)
 CCSD(T)= -0.22957991587D+03

 The electronic state is 2-A.
 Alpha  occ. eigenvalues --  -20.30037 -11.09273 -11.08375 -11.04144 -11.02280
 Alpha  occ. eigenvalues --   -1.12510  -0.88975  -0.78778  -0.68247  -0.48521
 Alpha  occ. eigenvalues --   -0.44781  -0.43299  -0.42639  -0.39207  -0.35677
 Alpha  occ. eigenvalues --   -0.23632  -0.20646  -0.18581  -0.05635
 Alpha virt. eigenvalues --    0.13787   0.16536   0.16670   0.17453   0.22260
 Alpha virt. eigenvalues --    0.24082   0.25353   0.25914   0.26115   0.27638
 Alpha virt. eigenvalues --    0.27824   0.29568   0.31097   0.31566   0.33962

  Beta  occ. eigenvalues --  -20.28443 -11.09364 -11.07623 -11.03441 -11.02147
  Beta  occ. eigenvalues --   -1.08862  -0.87097  -0.79106  -0.64365  -0.47353
  Beta  occ. eigenvalues --   -0.43328  -0.42489  -0.41685  -0.37899  -0.26399
  Beta  occ. eigenvalues --   -0.19268  -0.18167  -0.14994
  Beta virt. eigenvalues --    0.13740   0.16564   0.16749   0.17467   0.22048
  Beta virt. eigenvalues --    0.24145   0.25410   0.25754   0.26226   0.27121
  Beta virt. eigenvalues --    0.27670   0.29482   0.30860   0.31761   0.32071

 Mulliken charges and spin densities:
               1          2
     1  O   -0.963874   0.282661
     2  C   -0.372784  -0.173650
     3  C   -0.551522   0.980582
     4  C    0.763036  -0.637259
     5  C   -0.135123   0.492960
     6  H    0.050624   0.086281
     7  H    0.090280   0.016534
     8  H    0.092707   0.007765
     9  H    0.026656  -0.055874
 Sum of Mulliken charges =  -1.00000   1.00000

 Dipole moment (field-independent basis, Debye):
    X=             -5.5518    Y=              1.1878    Z=              0.7975  Tot=              5.7332
 Quadrupole moment (field-independent basis, Debye-Ang):
   XX=            -53.2233   YY=            -35.1830   ZZ=            -36.0314
   XY=              4.8369   XZ=             -0.7905   YZ=              0.3237

 32433\CCSD=-229.5346447\CCSD(T)=-229.5799159\S2=0.911342\S2-1=0.853597
 Normal termination of Gaussian 09 at Sat Mar  9 08:03:16 2019.
