 Gaussian 09, Revision E.01,
 Gaussian 09:  EM64L-G09RevE.01 30-Nov-2015

 --------------------------------------
 #p ccsd(t,maxcyc=200)/6-311++G(3df,2p)
 --------------------------------------

 -------------
 ccsd(t) iener
 -------------
 Symbolic Z-matrix:
 Charge = -1 Multiplicity = 4

                         Standard orientation:
 ---------------------------------------------------------------------
 Center     Atomic      Atomic             Coordinates (Angstroms)
 Number     Number       Type             X           Y           Z
 ---------------------------------------------------------------------
      1          6           0       -1.471494   -0.922364    0.000743
      2          6           0       -0.373420    0.097469   -0.003029
      3          8           0       -0.754720    1.374093    0.000992
      4          6           0        0.985077   -0.107453   -0.001079
      5          6           0        2.199479   -0.239378    0.000728
      6          1           0       -2.095461   -0.838124    0.897599
      7          1           0       -1.027552   -1.918028   -0.022759
      8          1           0       -2.126987   -0.810593   -0.869933
      9          1           0        3.249908   -0.395642    0.002981
 ---------------------------------------------------------------------

 SCF Done:  E(UHF) =  -228.562441452     A.U. after   73 cycles
 E2 =    -0.7826129840D+00 EUMP2 =    -0.22934505443590D+03
 CCSD(T)
 CCSD(T)= -0.22944058821D+03

 The electronic state is 4-A.
 Alpha  occ. eigenvalues --  -20.55523 -11.20124 -11.14364 -11.12784 -11.10995
 Alpha  occ. eigenvalues --   -1.35680  -0.96259  -0.90621  -0.79153  -0.64425
 Alpha  occ. eigenvalues --   -0.59716  -0.57233  -0.56730  -0.47422  -0.46868
 Alpha  occ. eigenvalues --   -0.45489  -0.34629  -0.29252  -0.20176   0.03630
 Alpha virt. eigenvalues --    0.11533   0.14661   0.15193   0.18455   0.21769
 Alpha virt. eigenvalues --    0.22273   0.22416   0.23538   0.24307   0.25115
 Alpha virt. eigenvalues --    0.27060   0.27362   0.28725   0.29001   0.31119

  Beta  occ. eigenvalues --  -20.50970 -11.18139 -11.14506 -11.12789 -11.10475
  Beta  occ. eigenvalues --   -1.20848  -0.93490  -0.88649  -0.72705  -0.58891
  Beta  occ. eigenvalues --   -0.55261  -0.49747  -0.49425  -0.45762  -0.42681
  Beta  occ. eigenvalues --   -0.29469  -0.28666
  Beta virt. eigenvalues --    0.12492   0.15223   0.16319   0.17017   0.17727
  Beta virt. eigenvalues --    0.19701   0.21494   0.22897   0.23528   0.23806
  Beta virt. eigenvalues --    0.24741   0.25122   0.26915   0.28641   0.29535

 Mulliken charges and spin densities:
               1          2
     1  C    0.644144  -0.989454
     2  C   -4.052273   5.219547
     3  O   -0.545549   1.094757
     4  C    8.499269  -9.647351
     5  C   -0.553146   1.611049
     6  H   -0.042890   0.197497
     7  H   -0.516399   0.661721
     8  H   -0.053012   0.204746
     9  H   -4.380144   4.647487
 Sum of Mulliken charges =  -1.00000   3.00000

 Dipole moment (field-independent basis, Debye):
    X=            -14.2321    Y=              3.4138    Z=              0.0111  Tot=             14.6358
 Quadrupole moment (field-independent basis, Debye-Ang):
   XX=           -111.7908   YY=            -59.8729   ZZ=            -52.3094
   XY=              9.6201   XZ=             -0.0630   YZ=             -0.0487

 29.4001884\CCSD(T)=-229.4405882\S2=3.969373\S2-1=3.893908\S2A=3.76691\
 Normal termination of Gaussian 09 at Fri Mar  8 23:46:16 2019.
