 Gaussian 09, Revision E.01,
 Gaussian 09:  EM64L-G09RevE.01 30-Nov-2015

 --------------------------------------
 #p ccsd(t,maxcyc=200)/6-311++G(3df,2p)
 --------------------------------------

 -------------
 ccsd(t) iener
 -------------
 Symbolic Z-matrix:
 Charge = -1 Multiplicity = 2

                         Standard orientation:
 ---------------------------------------------------------------------
 Center     Atomic      Atomic             Coordinates (Angstroms)
 Number     Number       Type             X           Y           Z
 ---------------------------------------------------------------------
      1          6           0       -1.266304    0.395292   -0.000692
      2          6           0        1.150506    0.196962    0.000763
      3          8           0       -1.550395   -0.924219    0.000063
      4          6           0        2.188254   -0.418699   -0.000591
      5          6           0       -0.045287    0.950478    0.000428
      6          1           0       -2.161004    1.000512   -0.001815
      7          1           0       -0.721550   -1.428202    0.002470
      8          1           0        3.103239   -0.957689   -0.001293
      9          1           0        0.019467    2.034934    0.000681
 ---------------------------------------------------------------------

 SCF Done:  E(UHF) =  -228.619176723     A.U. after   47 cycles
 E2 =    -0.8651918466D+00 EUMP2 =    -0.22948436856959D+03
 CCSD(T)
 CCSD(T)= -0.22954855184D+03

 The electronic state is 2-A.
 Alpha  occ. eigenvalues --  -20.49877 -11.21156 -11.13913 -11.12041 -11.11225
 Alpha  occ. eigenvalues --   -1.31555  -0.97520  -0.88879  -0.75701  -0.63759
 Alpha  occ. eigenvalues --   -0.59385  -0.57477  -0.49207  -0.48480  -0.45997
 Alpha  occ. eigenvalues --   -0.33968  -0.28115  -0.21531   0.03533
 Alpha virt. eigenvalues --    0.11477   0.13911   0.15497   0.19504   0.20699
 Alpha virt. eigenvalues --    0.22312   0.23098   0.23122   0.24018   0.24727
 Alpha virt. eigenvalues --    0.26871   0.27193   0.27905   0.29320   0.29602

  Beta  occ. eigenvalues --  -20.49833 -11.21054 -11.14000 -11.12002 -11.11197
  Beta  occ. eigenvalues --   -1.31425  -0.97565  -0.88849  -0.75628  -0.63636
  Beta  occ. eigenvalues --   -0.59343  -0.57269  -0.48879  -0.48460  -0.45965
  Beta  occ. eigenvalues --   -0.34174  -0.28134  -0.21586
  Beta virt. eigenvalues --    0.12076   0.14678   0.16297   0.18321   0.20043
  Beta virt. eigenvalues --    0.21573   0.23102   0.24187   0.24327   0.24798
  Beta virt. eigenvalues --    0.25742   0.27507   0.27530   0.28641   0.29998

 Mulliken charges and spin densities:
               1          2
     1  C    1.476107  -1.298289
     2  C    8.210865  -8.471618
     3  O   -0.807843   0.036851
     4  C    0.069026  -0.145460
     5  C   -4.887091   4.923234
     6  H   -0.045097   0.199433
     7  H   -0.009939   0.301684
     8  H   -4.413140   4.739242
     9  H   -0.592888   0.714923
 Sum of Mulliken charges =  -1.00000   1.00000

 Dipole moment (field-independent basis, Debye):
    X=            -13.5581    Y=              5.3414    Z=              0.0072  Tot=             14.5723
 Quadrupole moment (field-independent basis, Debye-Ang):
   XX=           -105.7785   YY=            -63.3196   ZZ=            -53.3931
   XY=             16.7703   XZ=              0.0271   YZ=             -0.0134

 3749\CCSD=-229.5036425\CCSD(T)=-229.5485518\S2=0.752079\S2-1=0.751504\
 Normal termination of Gaussian 09 at Sat Mar  9 14:56:46 2019.
