 Gaussian 09, Revision E.01,
 Gaussian 09:  EM64L-G09RevE.01 30-Nov-2015

 --------------------------------------
 #p ccsd(t,maxcyc=200)/6-311++G(3df,2p)
 --------------------------------------

 -------------
 ccsd(t) iener
 -------------
 Symbolic Z-matrix:
 Charge = -1 Multiplicity = 2

                         Standard orientation:
 ---------------------------------------------------------------------
 Center     Atomic      Atomic             Coordinates (Angstroms)
 Number     Number       Type             X           Y           Z
 ---------------------------------------------------------------------
      1          6           0       -0.945510   -0.451228    0.000000
      2          6           0        2.575260    0.015730   -0.000000
      3          8           0       -2.276884   -0.278505    0.000000
      4          6           0        1.384007    0.207576   -0.000000
      5          6           0        0.000000    0.503465   -0.000000
      6          1           0       -0.680573   -1.500077    0.000000
      7          1           0       -2.517509    0.671123    0.000000
      8          1           0        3.625691   -0.144028   -0.000000
      9          1           0       -0.295081    1.547767    0.000000
 ---------------------------------------------------------------------

 SCF Done:  E(UHF) =  -228.619109879     A.U. after   47 cycles
 E2 =    -0.8620310800D+00 EUMP2 =    -0.22948114095866D+03
 CCSD(T)
 CCSD(T)= -0.22954718790D+03

 The electronic state is 2-A'.
 Alpha  occ. eigenvalues --  -20.46996 -11.19607 -11.13450 -11.11227 -11.10818
 Alpha  occ. eigenvalues --   -1.28842  -0.96619  -0.88043  -0.73637  -0.63272
 Alpha  occ. eigenvalues --   -0.57819  -0.56817  -0.46939  -0.46517  -0.43022
 Alpha  occ. eigenvalues --   -0.33589  -0.28294  -0.19999   0.02847
 Alpha virt. eigenvalues --    0.11513   0.14127   0.17109   0.19499   0.20145
 Alpha virt. eigenvalues --    0.22772   0.22958   0.23671   0.24054   0.25401
 Alpha virt. eigenvalues --    0.26489   0.28334   0.29361   0.30497   0.30633

  Beta  occ. eigenvalues --  -20.46730 -11.19199 -11.13010 -11.11600 -11.11267
  Beta  occ. eigenvalues --   -1.28141  -0.96525  -0.88158  -0.73301  -0.63274
  Beta  occ. eigenvalues --   -0.57731  -0.56561  -0.46276  -0.45358  -0.42738
  Beta  occ. eigenvalues --   -0.34018  -0.28366  -0.20674
  Beta virt. eigenvalues --    0.11610   0.14271   0.18432   0.20066   0.20424
  Beta virt. eigenvalues --    0.20946   0.22928   0.23877   0.25396   0.25415
  Beta virt. eigenvalues --    0.25671   0.27270   0.28815   0.30114   0.31136

 Mulliken charges and spin densities:
               1          2
     1  C    3.422242  -3.035249
     2  C   -1.030598   0.667252
     3  O   -0.922509   0.199234
     4  C    2.711170  -2.730011
     5  C   -1.996160   1.805590
     6  H   -0.055422   0.184205
     7  H   -0.986067   1.304056
     8  H    0.101269   0.186197
     9  H   -2.243924   2.418725
 Sum of Mulliken charges =  -1.00000   1.00000

 Dipole moment (field-independent basis, Debye):
    X=              8.8349    Y=             -8.5404    Z=             -0.0000  Tot=             12.2880
 Quadrupole moment (field-independent basis, Debye-Ang):
   XX=            -74.7697   YY=            -64.9270   ZZ=            -48.8753
   XY=             15.0481   XZ=              0.0000   YZ=             -0.0000

 CCSD=-229.5023504\CCSD(T)=-229.5471879\S2=0.793964\S2-1=0.784676\S2A=0
 Normal termination of Gaussian 09 at Sat Mar  9 18:57:41 2019.
