 Gaussian 09, Revision E.01,
 Gaussian 09:  EM64L-G09RevE.01 30-Nov-2015

 --------------------------------------
 #p ccsd(t,maxcyc=200)/6-311++G(3df,2p)
 --------------------------------------

 -------------
 ccsd(t) iener
 -------------
 Symbolic Z-matrix:
 Charge = -1 Multiplicity = 2

                         Standard orientation:
 ---------------------------------------------------------------------
 Center     Atomic      Atomic             Coordinates (Angstroms)
 Number     Number       Type             X           Y           Z
 ---------------------------------------------------------------------
      1          6           0       -1.359653   -0.236856   -0.681062
      2          6           0        1.061533    0.439452   -0.000053
      3          8           0        1.642973   -0.654198    0.000039
      4          6           0       -0.360004    0.725011   -0.000017
      5          6           0       -1.359623   -0.236856    0.681073
      6          1           0       -1.075175   -1.035147   -1.369260
      7          1           0       -0.577076    1.792631   -0.000007
      8          1           0        1.690062    1.366746    0.000056
      9          1           0       -1.075114   -1.035147    1.369258
 ---------------------------------------------------------------------

 SCF Done:  E(UHF) =  -228.582337954     A.U. after   24 cycles
 E2 =    -0.8849401792D+00 EUMP2 =    -0.22946727813323D+03
 CCSD(T)
 CCSD(T)= -0.22953209746D+03

 The electronic state is 2-A.
 Alpha  occ. eigenvalues --  -20.36401 -11.14292 -11.04676 -11.02126 -11.01987
 Alpha  occ. eigenvalues --   -1.19271  -0.93793  -0.74164  -0.56025  -0.55742
 Alpha  occ. eigenvalues --   -0.49295  -0.45736  -0.39313  -0.37058  -0.29756
 Alpha  occ. eigenvalues --   -0.23163  -0.22080  -0.21078  -0.05254
 Alpha virt. eigenvalues --    0.15288   0.17166   0.17594   0.17675   0.23281
 Alpha virt. eigenvalues --    0.24086   0.24852   0.26482   0.27319   0.28862
 Alpha virt. eigenvalues --    0.29987   0.30429   0.31529   0.31638   0.32790

  Beta  occ. eigenvalues --  -20.35582 -11.14485 -11.04663 -11.00854 -11.00703
  Beta  occ. eigenvalues --   -1.17577  -0.92691  -0.73031  -0.55295  -0.51886
  Beta  occ. eigenvalues --   -0.48567  -0.44696  -0.38438  -0.32935  -0.28169
  Beta  occ. eigenvalues --   -0.22425  -0.19411  -0.09701
  Beta virt. eigenvalues --    0.15275   0.17262   0.17608   0.17739   0.23278
  Beta virt. eigenvalues --    0.24330   0.24893   0.24970   0.27694   0.28722
  Beta virt. eigenvalues --    0.30055   0.30059   0.30426   0.31627   0.31878

 Mulliken charges and spin densities:
               1          2
     1  C   -0.346005   0.479364
     2  C    0.179305  -0.087943
     3  O   -0.902948   0.161404
     4  C    0.177798  -0.116155
     5  C   -0.346026   0.479327
     6  H    0.071783   0.049058
     7  H    0.078544  -0.010971
     8  H    0.015759  -0.003139
     9  H    0.071790   0.049055
 Sum of Mulliken charges =  -1.00000   1.00000

 Dipole moment (field-independent basis, Debye):
    X=              2.6639    Y=              1.3170    Z=             -0.0002  Tot=              2.9717
 Quadrupole moment (field-independent basis, Debye-Ang):
   XX=            -52.4207   YY=            -34.9630   ZZ=            -37.4178
   XY=              5.0766   XZ=             -0.0001   YZ=              0.0000

 6\CCSD=-229.4848594\CCSD(T)=-229.5320975\S2=0.804766\S2-1=0.778072\S2A
 Normal termination of Gaussian 09 at Sat Mar  9 20:57:39 2019.
