 Gaussian 09, Revision E.01,
 Gaussian 09:  EM64L-G09RevE.01 30-Nov-2015

 --------------------------------------
 #p ccsd(t,maxcyc=200)/6-311++G(3df,2p)
 --------------------------------------

 -------------
 ccsd(t) iener
 -------------
 Symbolic Z-matrix:
 Charge = -1 Multiplicity = 4

                         Standard orientation:
 ---------------------------------------------------------------------
 Center     Atomic      Atomic             Coordinates (Angstroms)
 Number     Number       Type             X           Y           Z
 ---------------------------------------------------------------------
      1          6           0       -1.471990   -0.921968    0.000174
      2          6           0       -0.373414    0.097349   -0.000781
      3          8           0       -0.754037    1.374180    0.000232
      4          6           0        0.985010   -0.107836   -0.000501
      5          6           0        2.199418   -0.239670    0.000787
      6          1           0       -2.115881   -0.820184   -0.880428
      7          1           0       -2.107658   -0.826984    0.887595
      8          1           0       -1.028217   -1.917955   -0.005772
      9          1           0        3.249906   -0.395566   -0.001329
 ---------------------------------------------------------------------

 SCF Done:  E(UHF) =  -228.562437166     A.U. after   81 cycles
 E2 =    -0.7826115026D+00 EUMP2 =    -0.22934504866856D+03
 CCSD(T)
 CCSD(T)= -0.22944058556D+03

 The electronic state is 4-A.
 Alpha  occ. eigenvalues --  -20.55521 -11.20123 -11.14365 -11.12784 -11.10994
 Alpha  occ. eigenvalues --   -1.35679  -0.96259  -0.90622  -0.79155  -0.64424
 Alpha  occ. eigenvalues --   -0.59715  -0.57233  -0.56729  -0.47422  -0.46870
 Alpha  occ. eigenvalues --   -0.45490  -0.34630  -0.29252  -0.20176   0.03630
 Alpha virt. eigenvalues --    0.11532   0.14661   0.15192   0.18455   0.21770
 Alpha virt. eigenvalues --    0.22272   0.22416   0.23539   0.24303   0.25116
 Alpha virt. eigenvalues --    0.27061   0.27361   0.28725   0.29000   0.31120

  Beta  occ. eigenvalues --  -20.50969 -11.18138 -11.14508 -11.12788 -11.10475
  Beta  occ. eigenvalues --   -1.20848  -0.93489  -0.88650  -0.72705  -0.58890
  Beta  occ. eigenvalues --   -0.55260  -0.49748  -0.49426  -0.45763  -0.42681
  Beta  occ. eigenvalues --   -0.29468  -0.28667
  Beta virt. eigenvalues --    0.12492   0.15222   0.16317   0.17017   0.17728
  Beta virt. eigenvalues --    0.19701   0.21493   0.22896   0.23528   0.23806
  Beta virt. eigenvalues --    0.24744   0.25115   0.26916   0.28641   0.29536

 Mulliken charges and spin densities:
               1          2
     1  C    0.644388  -0.989595
     2  C   -4.052751   5.220075
     3  O   -0.545509   1.094702
     4  C    8.502638  -9.651032
     5  C   -0.556037   1.614120
     6  H   -0.050081   0.202934
     7  H   -0.045337   0.198871
     8  H   -0.516596   0.661863
     9  H   -4.380715   4.648062
 Sum of Mulliken charges =  -1.00000   3.00000

 Dipole moment (field-independent basis, Debye):
    X=            -14.2341    Y=              3.4117    Z=              0.0257  Tot=             14.6373
 Quadrupole moment (field-independent basis, Debye-Ang):
   XX=           -111.7962   YY=            -59.8714   ZZ=            -52.3085
   XY=              9.6101   XZ=              0.0658   YZ=             -0.0334

 -229.400185\CCSD(T)=-229.4405856\S2=3.969403\S2-1=3.893929\S2A=3.76691
 Normal termination of Gaussian 09 at Fri Mar  8 12:57:06 2019.
