 Gaussian 09, Revision E.01,
 Gaussian 09:  EM64L-G09RevE.01 30-Nov-2015

 --------------------------------------
 #p ccsd(t,maxcyc=200)/6-311++G(3df,2p)
 --------------------------------------

 -------------
 ccsd(t) iener
 -------------
 Symbolic Z-matrix:
 Charge = -1 Multiplicity = 2

                         Standard orientation:
 ---------------------------------------------------------------------
 Center     Atomic      Atomic             Coordinates (Angstroms)
 Number     Number       Type             X           Y           Z
 ---------------------------------------------------------------------
      1          6           0        0.917876   -0.000001   -0.319521
      2          6           0       -1.520193   -0.678101   -0.016465
      3          8           0        2.103944    0.000000    0.044141
      4          6           0       -1.520193    0.678101   -0.016463
      5          6           0       -0.257112   -0.000001    0.531015
      6          1           0        0.673829    0.000004   -1.406570
      7          1           0       -1.587318    1.425789   -0.808956
      8          1           0       -1.587319   -1.425785   -0.808963
      9          1           0       -0.053004   -0.000004    1.599972
 ---------------------------------------------------------------------

 SCF Done:  E(UHF) =  -228.592190058     A.U. after   24 cycles
 E2 =    -0.8869054439D+00 EUMP2 =    -0.22947909550164D+03
 CCSD(T)
 CCSD(T)= -0.22954323767D+03

 The electronic state is 2-A.
 Alpha  occ. eigenvalues --  -20.36249 -11.13932 -11.04934 -11.03007 -11.02865
 Alpha  occ. eigenvalues --   -1.18996  -0.95314  -0.72562  -0.58756  -0.57352
 Alpha  occ. eigenvalues --   -0.47519  -0.45863  -0.40742  -0.36977  -0.29561
 Alpha  occ. eigenvalues --   -0.24104  -0.22454  -0.21219  -0.05012
 Alpha virt. eigenvalues --    0.15357   0.16776   0.17299   0.18241   0.23312
 Alpha virt. eigenvalues --    0.24493   0.24918   0.26684   0.26752   0.29351
 Alpha virt. eigenvalues --    0.29528   0.30569   0.31083   0.31906   0.32625

  Beta  occ. eigenvalues --  -20.35561 -11.14040 -11.05007 -11.01807 -11.01653
  Beta  occ. eigenvalues --   -1.17557  -0.94296  -0.71165  -0.58547  -0.53383
  Beta  occ. eigenvalues --   -0.46762  -0.44864  -0.40023  -0.33374  -0.28429
  Beta  occ. eigenvalues --   -0.23049  -0.20347  -0.11048
  Beta virt. eigenvalues --    0.15429   0.16877   0.17328   0.18304   0.23300
  Beta virt. eigenvalues --    0.23427   0.24584   0.25577   0.27134   0.29415
  Beta virt. eigenvalues --    0.29819   0.30627   0.30850   0.31404   0.31944

 Mulliken charges and spin densities:
               1          2
     1  C    0.221711   0.002529
     2  C   -0.417844   0.474488
     3  O   -0.891803   0.144647
     4  C   -0.417845   0.474488
     5  C    0.193844  -0.170703
     6  H    0.084444  -0.016460
     7  H    0.059797   0.047938
     8  H    0.059796   0.047938
     9  H    0.107899  -0.004866
 Sum of Mulliken charges =  -1.00000   1.00000

 Dipole moment (field-independent basis, Debye):
    X=              0.8556    Y=              0.0000    Z=             -1.9431  Tot=              2.1231
 Quadrupole moment (field-independent basis, Debye-Ang):
   XX=            -57.4160   YY=            -37.1091   ZZ=            -34.4900
   XY=             -0.0000   XZ=              2.4897   YZ=             -0.0000

 4959244\CCSD(T)=-229.5432377\S2=0.795718\S2-1=0.771526\S2A=0.751314\RM
 Normal termination of Gaussian 09 at Sat Mar  9 19:43:13 2019.
