 Gaussian 09, Revision E.01,
 Gaussian 09:  EM64L-G09RevE.01 30-Nov-2015

 --------------------------------------
 #p ccsd(t,maxcyc=200)/6-311++G(3df,2p)
 --------------------------------------

 -------------
 ccsd(t) iener
 -------------
 Symbolic Z-matrix:
 Charge = -1 Multiplicity = 2

                         Standard orientation:
 ---------------------------------------------------------------------
 Center     Atomic      Atomic             Coordinates (Angstroms)
 Number     Number       Type             X           Y           Z
 ---------------------------------------------------------------------
      1          8           0        2.371475   -0.495068    0.017495
      2          6           0       -2.472446   -0.157664    0.142963
      3          6           0       -1.113092    0.106532   -0.368461
      4          6           0        0.093149    0.201035   -0.074689
      5          6           0        1.463993    0.387116    0.085864
      6          1           0       -2.498773   -0.274282    1.244112
      7          1           0       -2.891206   -1.071721   -0.288651
      8          1           0       -3.166308    0.648154   -0.112884
      9          1           0        1.754868    1.436278    0.303390
 ---------------------------------------------------------------------

 SCF Done:  E(UHF) =  -228.641291654     A.U. after   31 cycles
 E2 =    -0.8647251825D+00 EUMP2 =    -0.22950601683668D+03
 CCSD(T)
 CCSD(T)= -0.22957990942D+03

 The electronic state is 2-A.
 Alpha  occ. eigenvalues --  -20.30037 -11.09277 -11.08375 -11.04140 -11.02278
 Alpha  occ. eigenvalues --   -1.12524  -0.88970  -0.78779  -0.68246  -0.48512
 Alpha  occ. eigenvalues --   -0.44774  -0.43308  -0.42639  -0.39217  -0.35685
 Alpha  occ. eigenvalues --   -0.23629  -0.20646  -0.18583  -0.05623
 Alpha virt. eigenvalues --    0.13787   0.16536   0.16671   0.17454   0.22258
 Alpha virt. eigenvalues --    0.24081   0.25353   0.25914   0.26115   0.27637
 Alpha virt. eigenvalues --    0.27824   0.29568   0.31099   0.31568   0.33958

  Beta  occ. eigenvalues --  -20.28445 -11.09367 -11.07622 -11.03439 -11.02145
  Beta  occ. eigenvalues --   -1.08877  -0.87094  -0.79106  -0.64364  -0.47344
  Beta  occ. eigenvalues --   -0.43321  -0.42499  -0.41686  -0.37908  -0.26405
  Beta  occ. eigenvalues --   -0.19269  -0.18168  -0.15001
  Beta virt. eigenvalues --    0.13740   0.16564   0.16750   0.17468   0.22047
  Beta virt. eigenvalues --    0.24143   0.25410   0.25755   0.26226   0.27121
  Beta virt. eigenvalues --    0.27668   0.29483   0.30861   0.31765   0.32075

 Mulliken charges and spin densities:
               1          2
     1  O   -0.963931   0.282587
     2  C   -0.372166  -0.173862
     3  C   -0.550034   0.977583
     4  C    0.762013  -0.634673
     5  C   -0.136057   0.493681
     6  H    0.050580   0.086331
     7  H    0.090300   0.016563
     8  H    0.092760   0.007713
     9  H    0.026536  -0.055923
 Sum of Mulliken charges =  -1.00000   1.00000

 Dipole moment (field-independent basis, Debye):
    X=             -5.5526    Y=              1.1856    Z=              0.7979  Tot=              5.7335
 Quadrupole moment (field-independent basis, Debye-Ang):
   XX=            -53.2272   YY=            -35.1812   ZZ=            -36.0330
   XY=              4.8313   XZ=             -0.7904   YZ=              0.3249

 \CCSD=-229.5346431\CCSD(T)=-229.5799094\S2=0.911073\S2-1=0.853387\S2A=
 Normal termination of Gaussian 09 at Sat Mar  9 20:10:32 2019.
