 Gaussian 09, Revision E.01,
 Gaussian 09:  EM64L-G09RevE.01 30-Nov-2015

 --------------------------------------
 #p ccsd(t,maxcyc=200)/6-311++G(3df,2p)
 --------------------------------------

 -------------
 ccsd(t) iener
 -------------
 Symbolic Z-matrix:
 Charge = -1 Multiplicity = 4

                         Standard orientation:
 ---------------------------------------------------------------------
 Center     Atomic      Atomic             Coordinates (Angstroms)
 Number     Number       Type             X           Y           Z
 ---------------------------------------------------------------------
      1          6           0        1.170263    0.083785   -0.492720
      2          6           0       -2.310238   -0.182160   -0.182603
      3          8           0        2.106296   -0.470598    0.063456
      4          6           0       -1.054020   -0.239092    0.322266
      5          6           0        0.011195    0.807350    0.130109
      6          1           0        0.331643    1.283520    1.082404
      7          1           0       -2.960850   -0.874748   -0.707003
      8          1           0       -0.764883   -1.054358    0.987378
      9          1           0       -0.359480    1.591066   -0.532738
 ---------------------------------------------------------------------

 SCF Done:  E(UHF) =  -228.545597162     A.U. after   74 cycles
 E2 =    -0.8274461551D+00 EUMP2 =    -0.22937304331708D+03
 CCSD(T)
 CCSD(T)= -0.22946173281D+03

 The electronic state is 4-A.
 Alpha  occ. eigenvalues --  -20.31714 -11.08571 -11.07013 -11.06667 -11.05965
 Alpha  occ. eigenvalues --   -1.16163  -0.90656  -0.80035  -0.60912  -0.55014
 Alpha  occ. eigenvalues --   -0.48042  -0.42655  -0.40588  -0.39761  -0.34547
 Alpha  occ. eigenvalues --   -0.32405  -0.26657  -0.21119  -0.11969  -0.00422
 Alpha virt. eigenvalues --    0.14638   0.16867   0.17319   0.18399   0.22635
 Alpha virt. eigenvalues --    0.23101   0.24612   0.26710   0.26822   0.28183
 Alpha virt. eigenvalues --    0.29066   0.29928   0.30643   0.31020   0.32613

  Beta  occ. eigenvalues --  -20.29320 -11.08049 -11.06171 -11.04942 -11.03144
  Beta  occ. eigenvalues --   -1.10118  -0.88539  -0.73688  -0.55073  -0.48690
  Beta  occ. eigenvalues --   -0.44638  -0.40286  -0.36323  -0.34931  -0.24238
  Beta  occ. eigenvalues --   -0.22397  -0.19017
  Beta virt. eigenvalues --    0.14731   0.16579   0.17303   0.18506   0.21620
  Beta virt. eigenvalues --    0.22637   0.23243   0.25721   0.26881   0.28534
  Beta virt. eigenvalues --    0.29361   0.29928   0.30610   0.30955   0.31501

 Mulliken charges and spin densities:
               1          2
     1  C   -0.094902   1.712881
     2  C   -0.590715   1.857548
     3  O   -0.877179   0.308865
     4  C    0.149825  -0.857052
     5  C    0.153704  -0.233702
     6  H   -0.013874   0.109266
     7  H    0.118496  -0.023464
     8  H    0.118693   0.101857
     9  H    0.035951   0.023801
 Sum of Mulliken charges =  -1.00000   3.00000

 Dipole moment (field-independent basis, Debye):
    X=             -3.9207    Y=              0.7466    Z=              0.8157  Tot=              4.0737
 Quadrupole moment (field-independent basis, Debye-Ang):
   XX=            -56.2866   YY=            -35.7085   ZZ=            -36.6272
   XY=              4.3438   XZ=              2.3534   YZ=             -0.5565

 41\CCSD=-229.4165603\CCSD(T)=-229.4617328\S2=3.99998\S2-1=3.930333\S2A
 Normal termination of Gaussian 09 at Fri Mar  8 14:55:08 2019.
