 Gaussian 09, Revision E.01,
 Gaussian 09:  EM64L-G09RevE.01 30-Nov-2015

 --------------------------------------
 #p ccsd(t,maxcyc=200)/6-311++G(3df,2p)
 --------------------------------------

 -------------
 ccsd(t) iener
 -------------
 Symbolic Z-matrix:
 Charge = -1 Multiplicity = 4

                         Standard orientation:
 ---------------------------------------------------------------------
 Center     Atomic      Atomic             Coordinates (Angstroms)
 Number     Number       Type             X           Y           Z
 ---------------------------------------------------------------------
      1          8           0        2.290026   -0.593060    0.000076
      2          6           0       -2.501163   -0.157156    0.001039
      3          6           0       -1.070564    0.083092   -0.002011
      4          6           0        0.139868    0.254323    0.000591
      5          6           0        1.494133    0.478691    0.000473
      6          1           0       -2.834366   -0.635231    0.930364
      7          1           0       -2.806593   -0.798152   -0.835428
      8          1           0       -3.050302    0.782069   -0.095247
      9          1           0        1.997410    1.442094   -0.000853
 ---------------------------------------------------------------------

 SCF Done:  E(UHF) =  -228.566335791     A.U. after   40 cycles
 E2 =    -0.7858561783D+00 EUMP2 =    -0.22935219196908D+03
 CCSD(T)
 CCSD(T)= -0.22944250550D+03

 The electronic state is 4-A.
 Alpha  occ. eigenvalues --  -20.56119 -11.20174 -11.13665 -11.11121 -11.10465
 Alpha  occ. eigenvalues --   -1.35766  -0.96495  -0.88339  -0.79925  -0.66981
 Alpha  occ. eigenvalues --   -0.58242  -0.56104  -0.52026  -0.48421  -0.46912
 Alpha  occ. eigenvalues --   -0.45968  -0.33572  -0.27161  -0.20469   0.03411
 Alpha virt. eigenvalues --    0.12279   0.16066   0.16394   0.18173   0.19685
 Alpha virt. eigenvalues --    0.20308   0.23533   0.25536   0.26506   0.26827
 Alpha virt. eigenvalues --    0.28100   0.28333   0.28876   0.29186   0.30572

  Beta  occ. eigenvalues --  -20.51480 -11.18232 -11.12092 -11.11562 -11.11222
  Beta  occ. eigenvalues --   -1.20487  -0.93882  -0.86101  -0.74079  -0.58170
  Beta  occ. eigenvalues --   -0.53529  -0.49488  -0.45338  -0.44831  -0.44031
  Beta  occ. eigenvalues --   -0.28504  -0.27455
  Beta virt. eigenvalues --    0.12812   0.15693   0.16937   0.18650   0.18775
  Beta virt. eigenvalues --    0.19993   0.20495   0.21800   0.23693   0.25169
  Beta virt. eigenvalues --    0.26130   0.27776   0.28329   0.29465   0.29528

 Mulliken charges and spin densities:
               1          2
     1  O   -0.434382   1.089313
     2  C    8.019271  -8.679900
     3  C   -4.634534   5.787295
     4  C   -0.893110   0.333106
     5  C    0.483994   0.273382
     6  H   -1.083756   1.260513
     7  H   -1.069462   1.242238
     8  H   -1.284471   1.448981
     9  H   -0.103549   0.245072
 Sum of Mulliken charges =  -1.00000   3.00000

 Dipole moment (field-independent basis, Debye):
    X=             13.4403    Y=              0.9302    Z=              0.0215  Tot=             13.4725
 Quadrupole moment (field-independent basis, Debye-Ang):
   XX=           -103.2337   YY=            -55.6334   ZZ=            -54.6268
   XY=              1.7033   XZ=             -0.0803   YZ=              0.1293

 9.3970145\CCSD=-229.4027797\CCSD(T)=-229.4425055\S2=3.936252\S2-1=3.86
 Normal termination of Gaussian 09 at Fri Mar  8 13:04:48 2019.
