 Gaussian 09, Revision E.01,
 Gaussian 09:  EM64L-G09RevE.01 30-Nov-2015

 --------------------------------------
 #p ccsd(t,maxcyc=200)/6-311++G(3df,2p)
 --------------------------------------

 -------------
 ccsd(t) iener
 -------------
 Symbolic Z-matrix:
 Charge = -1 Multiplicity = 4

                         Standard orientation:
 ---------------------------------------------------------------------
 Center     Atomic      Atomic             Coordinates (Angstroms)
 Number     Number       Type             X           Y           Z
 ---------------------------------------------------------------------
      1          8           0        2.310336    0.017346   -0.000000
      2          6           0       -1.839156   -0.947302    0.000000
      3          6           0        1.091560   -0.205227   -0.000000
      4          6           0       -1.363784    0.413035    0.000000
      5          6           0       -0.000000    0.708344    0.000000
      6          1           0       -2.896417   -1.180977    0.000000
      7          1           0       -1.135036   -1.766315    0.000000
      8          1           0       -2.073950    1.230159    0.000000
      9          1           0        0.290993    1.765264   -0.000000
 ---------------------------------------------------------------------

 SCF Done:  E(UHF) =  -228.600333699     A.U. after   27 cycles
 E2 =    -0.8425937951D+00 EUMP2 =    -0.22944292749432D+03
 CCSD(T)
 CCSD(T)= -0.22951550762D+03

 The electronic state is 4-A'.
 Alpha  occ. eigenvalues --  -20.34395 -11.08440 -11.07229 -11.06742 -11.03183
 Alpha  occ. eigenvalues --   -1.17650  -0.90687  -0.79174  -0.66071  -0.52562
 Alpha  occ. eigenvalues --   -0.48249  -0.43805  -0.39400  -0.39225  -0.35863
 Alpha  occ. eigenvalues --   -0.34170  -0.30691  -0.16993  -0.14429  -0.00487
 Alpha virt. eigenvalues --    0.14372   0.15790   0.17043   0.18299   0.22866
 Alpha virt. eigenvalues --    0.25728   0.27285   0.28109   0.28261   0.28792
 Alpha virt. eigenvalues --    0.29808   0.29844   0.30638   0.31899   0.32809

  Beta  occ. eigenvalues --  -20.31785 -11.06572 -11.05902 -11.04757 -11.02484
  Beta  occ. eigenvalues --   -1.11108  -0.86090  -0.71684  -0.59532  -0.47540
  Beta  occ. eigenvalues --   -0.46479  -0.39754  -0.35959  -0.33931  -0.27406
  Beta  occ. eigenvalues --   -0.24151  -0.16057
  Beta virt. eigenvalues --    0.14443   0.15812   0.16979   0.18428   0.21129
  Beta virt. eigenvalues --    0.22878   0.26421   0.27315   0.27974   0.28176
  Beta virt. eigenvalues --    0.29483   0.29548   0.30407   0.31063   0.32246

 Mulliken charges and spin densities:
               1          2
     1  O   -0.845755   0.370732
     2  C   -0.738659   1.262329
     3  C    0.109006   1.411822
     4  C   -0.139383   0.350348
     5  C    0.220196  -0.204462
     6  H    0.086034  -0.088291
     7  H    0.126931  -0.070263
     8  H    0.115376  -0.079485
     9  H    0.066253   0.047270
 Sum of Mulliken charges =  -1.00000   3.00000

 Dipole moment (field-independent basis, Debye):
    X=             -3.4808    Y=              0.8563    Z=              0.0000  Tot=              3.5846
 Quadrupole moment (field-independent basis, Debye-Ang):
   XX=            -53.6573   YY=            -35.3230   ZZ=            -38.0626
   XY=             -0.2522   XZ=              0.0000   YZ=             -0.0000

 CSD=-229.4717019\CCSD(T)=-229.5155076\S2=3.798447\S2-1=3.764916\S2A=3.
 Normal termination of Gaussian 09 at Fri Mar  8 20:58:51 2019.
