 Gaussian 09, Revision E.01,
 Gaussian 09:  EM64L-G09RevE.01 30-Nov-2015

 --------------------------------------
 #p ccsd(t,maxcyc=200)/6-311++G(3df,2p)
 --------------------------------------

 -------------
 ccsd(t) iener
 -------------
 Symbolic Z-matrix:
 Charge = -1 Multiplicity = 2

                         Standard orientation:
 ---------------------------------------------------------------------
 Center     Atomic      Atomic             Coordinates (Angstroms)
 Number     Number       Type             X           Y           Z
 ---------------------------------------------------------------------
      1          8           0        0.029111   -0.551032   -0.000006
      2          6           0       -0.995469    0.394015   -0.000004
      3          6           0       -2.259065    0.014245    0.000006
      4          6           0        1.262637   -0.130273   -0.000001
      5          6           0        2.419234    0.185219    0.000005
      6          1           0       -0.651434    1.418567   -0.000013
      7          1           0       -3.037196    0.767529    0.000006
      8          1           0       -2.550894   -1.025482    0.000014
      9          1           0        3.442609    0.468405    0.000012
 ---------------------------------------------------------------------

 SCF Done:  E(UHF) =  -228.579881663     A.U. after   43 cycles
 E2 =    -0.8571708128D+00 EUMP2 =    -0.22943705247578D+03
 CCSD(T)
 CCSD(T)= -0.22950468264D+03

 The electronic state is 2-A.
 Alpha  occ. eigenvalues --  -20.53510 -11.22052 -11.17409 -11.13976 -11.10423
 Alpha  occ. eigenvalues --   -1.36223  -0.97340  -0.89696  -0.75058  -0.67942
 Alpha  occ. eigenvalues --   -0.57828  -0.56887  -0.54662  -0.50748  -0.45846
 Alpha  occ. eigenvalues --   -0.30905  -0.27652  -0.24301   0.03745
 Alpha virt. eigenvalues --    0.11320   0.12888   0.15085   0.18651   0.18847
 Alpha virt. eigenvalues --    0.20786   0.21786   0.23729   0.23827   0.24532
 Alpha virt. eigenvalues --    0.27243   0.27446   0.28361   0.28652   0.29283

  Beta  occ. eigenvalues --  -20.53499 -11.22011 -11.17469 -11.13995 -11.10285
  Beta  occ. eigenvalues --   -1.36210  -0.97328  -0.89650  -0.75026  -0.67847
  Beta  occ. eigenvalues --   -0.57538  -0.56881  -0.54664  -0.50743  -0.45822
  Beta  occ. eigenvalues --   -0.30937  -0.27647  -0.24285
  Beta virt. eigenvalues --    0.11938   0.13370   0.16179   0.17698   0.18845
  Beta virt. eigenvalues --    0.19852   0.21734   0.22589   0.24424   0.25464
  Beta virt. eigenvalues --    0.26192   0.27533   0.27694   0.28802   0.29709

 Mulliken charges and spin densities:
               1          2
     1  O   -0.905541   0.103810
     2  C    0.065007   0.173885
     3  C    0.398940  -0.669799
     4  C   10.633131 -10.943054
     5  C   -5.936696   6.281665
     6  H   -0.565540   0.738804
     7  H    0.125771   0.010034
     8  H    0.022524   0.112058
     9  H   -4.837597   5.192597
 Sum of Mulliken charges =  -1.00000   1.00000

 Dipole moment (field-independent basis, Debye):
    X=            -16.1281    Y=             -4.3167    Z=             -0.0001  Tot=             16.6958
 Quadrupole moment (field-independent basis, Debye-Ang):
   XX=           -119.2382   YY=            -58.8105   ZZ=            -53.1977
   XY=            -12.4227   XZ=             -0.0004   YZ=             -0.0001

 7\CCSD=-229.4607656\CCSD(T)=-229.5046826\S2=0.750465\S2-1=0.750191\S2A
 Normal termination of Gaussian 09 at Sat Mar  9 20:06:08 2019.
