 Gaussian 09, Revision E.01,
 Gaussian 09:  EM64L-G09RevE.01 30-Nov-2015

 --------------------------------------
 #p ccsd(t,maxcyc=200)/6-311++G(3df,2p)
 --------------------------------------

 -------------
 ccsd(t) iener
 -------------
 Symbolic Z-matrix:
 Charge = -1 Multiplicity = 2

                         Standard orientation:
 ---------------------------------------------------------------------
 Center     Atomic      Atomic             Coordinates (Angstroms)
 Number     Number       Type             X           Y           Z
 ---------------------------------------------------------------------
      1          8           0        0.029162   -0.550912   -0.000005
      2          6           0       -0.995718    0.394607   -0.000004
      3          6           0       -2.258943    0.014046    0.000007
      4          6           0        1.262599   -0.130568   -0.000005
      5          6           0        2.419147    0.185143    0.000002
      6          1           0       -0.650967    1.418869   -0.000017
      7          1           0       -3.038021    0.766313    0.000006
      8          1           0       -2.549131   -1.026155    0.000019
      9          1           0        3.442313    0.468899    0.000040
 ---------------------------------------------------------------------

 SCF Done:  E(UHF) =  -228.579869928     A.U. after   76 cycles
 E2 =    -0.8571785633D+00 EUMP2 =    -0.22943704849091D+03
 CCSD(T)
 CCSD(T)= -0.22950467775D+03

 The electronic state is 2-A.
 Alpha  occ. eigenvalues --  -20.53498 -11.22047 -11.17406 -11.13974 -11.10415
 Alpha  occ. eigenvalues --   -1.36207  -0.97341  -0.89691  -0.75049  -0.67934
 Alpha  occ. eigenvalues --   -0.57827  -0.56875  -0.54650  -0.50751  -0.45849
 Alpha  occ. eigenvalues --   -0.30905  -0.27644  -0.24296   0.03746
 Alpha virt. eigenvalues --    0.11320   0.12891   0.15086   0.18654   0.18850
 Alpha virt. eigenvalues --    0.20788   0.21788   0.23729   0.23829   0.24532
 Alpha virt. eigenvalues --    0.27248   0.27449   0.28358   0.28651   0.29285

  Beta  occ. eigenvalues --  -20.53487 -11.22007 -11.17466 -11.13993 -11.10279
  Beta  occ. eigenvalues --   -1.36194  -0.97328  -0.89645  -0.75017  -0.67838
  Beta  occ. eigenvalues --   -0.57537  -0.56869  -0.54652  -0.50747  -0.45825
  Beta  occ. eigenvalues --   -0.30937  -0.27639  -0.24281
  Beta virt. eigenvalues --    0.11944   0.13376   0.16184   0.17695   0.18849
  Beta virt. eigenvalues --    0.19855   0.21739   0.22592   0.24425   0.25461
  Beta virt. eigenvalues --    0.26188   0.27539   0.27698   0.28799   0.29713

 Mulliken charges and spin densities:
               1          2
     1  O   -0.905859   0.103921
     2  C    0.061429   0.177451
     3  C    0.408253  -0.679111
     4  C   10.609071 -10.918539
     5  C   -5.920454   6.264927
     6  H   -0.571682   0.745163
     7  H    0.125220   0.010745
     8  H    0.021848   0.112724
     9  H   -4.827826   5.182720
 Sum of Mulliken charges =  -1.00000   1.00000

 Dipole moment (field-independent basis, Debye):
    X=            -16.0860    Y=             -4.3354    Z=             -0.0004  Tot=             16.6600
 Quadrupole moment (field-independent basis, Debye-Ang):
   XX=           -119.0712   YY=            -58.8617   ZZ=            -53.1973
   XY=            -12.4082   XZ=             -0.0017   YZ=             -0.0003

 03\CCSD=-229.4607588\CCSD(T)=-229.5046777\S2=0.750464\S2-1=0.75019\S2A
 Normal termination of Gaussian 09 at Sat Mar  9 08:12:36 2019.
