 Gaussian 09, Revision E.01,
 Gaussian 09:  EM64L-G09RevE.01 30-Nov-2015

 --------------------------------------
 #p ccsd(t,maxcyc=200)/6-311++G(3df,2p)
 --------------------------------------

 -------------
 ccsd(t) iener
 -------------
 Symbolic Z-matrix:
 Charge = -1 Multiplicity = 4

                         Standard orientation:
 ---------------------------------------------------------------------
 Center     Atomic      Atomic             Coordinates (Angstroms)
 Number     Number       Type             X           Y           Z
 ---------------------------------------------------------------------
      1          6           0        1.442308    0.392716    0.043665
      2          6           0       -2.402480   -0.226864    0.003397
      3          8           0        1.985894   -0.739644   -0.015828
      4          6           0       -1.014826   -0.251496   -0.052351
      5          6           0        0.017230    0.637065   -0.006579
      6          1           0        2.062615    1.307858    0.050196
      7          1           0       -2.951547    0.713639   -0.049652
      8          1           0       -2.994007   -1.112731    0.217361
      9          1           0       -0.257601    1.699858   -0.020073
 ---------------------------------------------------------------------

 SCF Done:  E(UHF) =  -228.564529325     A.U. after   46 cycles
 E2 =    -0.8395571001D+00 EUMP2 =    -0.22940408642482D+03
 CCSD(T)
 CCSD(T)= -0.22947823801D+03

 The electronic state is 4-A.
 Alpha  occ. eigenvalues --  -20.36591 -11.11495 -11.09724 -11.09698 -11.07353
 Alpha  occ. eigenvalues --   -1.18871  -0.93634  -0.83005  -0.68187  -0.55272
 Alpha  occ. eigenvalues --   -0.50641  -0.47096  -0.43550  -0.41403  -0.41009
 Alpha  occ. eigenvalues --   -0.32399  -0.25786  -0.21562  -0.18967   0.02702
 Alpha virt. eigenvalues --    0.14646   0.15269   0.15955   0.18331   0.22358
 Alpha virt. eigenvalues --    0.23954   0.24830   0.24976   0.27127   0.27862
 Alpha virt. eigenvalues --    0.28536   0.30067   0.30658   0.31491   0.31969

  Beta  occ. eigenvalues --  -20.34567 -11.11383 -11.09054 -11.08042 -11.04934
  Beta  occ. eigenvalues --   -1.14047  -0.86415  -0.76676  -0.63540  -0.50602
  Beta  occ. eigenvalues --   -0.48214  -0.43780  -0.41278  -0.39124  -0.28346
  Beta  occ. eigenvalues --   -0.23525  -0.17974
  Beta virt. eigenvalues --    0.14969   0.15812   0.16651   0.18676   0.19106
  Beta virt. eigenvalues --    0.22137   0.23933   0.24827   0.25735   0.26394
  Beta virt. eigenvalues --    0.28787   0.29335   0.30071   0.30887   0.31287

 Mulliken charges and spin densities:
               1          2
     1  C    0.330084  -0.220988
     2  C    0.224227   0.054001
     3  O   -0.858401   0.407386
     4  C    0.038181   1.355336
     5  C   -0.055473   0.414324
     6  H   -0.025858   0.035423
     7  H   -0.119945   0.229382
     8  H   -0.105436   0.179681
     9  H   -0.427379   0.545455
 Sum of Mulliken charges =  -1.00000   3.00000

 Dipole moment (field-independent basis, Debye):
    X=             -0.5110    Y=              0.6568    Z=             -1.4861  Tot=              1.7032
 Quadrupole moment (field-independent basis, Debye-Ang):
   XX=            -59.0337   YY=            -43.9630   ZZ=            -42.1024
   XY=              5.0681   XZ=              2.3857   YZ=             -2.3401

 906\CCSD=-229.4345398\CCSD(T)=-229.478238\S2=3.818204\S2-1=3.783695\S2
 Normal termination of Gaussian 09 at Fri Mar  8 15:38:34 2019.
