 Gaussian 09, Revision E.01,
 Gaussian 09:  EM64L-G09RevE.01 30-Nov-2015

 --------------------------------------
 #p ccsd(t,maxcyc=200)/6-311++G(3df,2p)
 --------------------------------------

 -------------
 ccsd(t) iener
 -------------
 Symbolic Z-matrix:
 Charge = -1 Multiplicity = 2

                         Standard orientation:
 ---------------------------------------------------------------------
 Center     Atomic      Atomic             Coordinates (Angstroms)
 Number     Number       Type             X           Y           Z
 ---------------------------------------------------------------------
      1          6           0       -0.000000    1.153631    0.000000
      2          6           0       -0.576760   -1.035208    0.000000
      3          8           0       -1.125060    0.367298    0.000000
      4          6           0        0.914302   -0.990450    0.000000
      5          6           0        1.168325    0.380848    0.000000
      6          1           0       -0.171337    2.220456    0.000000
      7          1           0       -1.008457   -1.525726    0.886774
      8          1           0       -1.008457   -1.525726   -0.886774
      9          1           0        2.153533    0.839684    0.000000
 ---------------------------------------------------------------------

 SCF Done:  E(UHF) =  -228.609920683     A.U. after   24 cycles
 E2 =    -0.8600160419D+00 EUMP2 =    -0.22946993672480D+03
 CCSD(T)
 CCSD(T)= -0.22954707208D+03

 The electronic state is 2-A".
 Alpha  occ. eigenvalues --  -20.37849 -11.08091 -11.08075 -11.00748 -10.97072
 Alpha  occ. eigenvalues --   -1.19555  -0.84767  -0.78657  -0.60374  -0.54070
 Alpha  occ. eigenvalues --   -0.48024  -0.46104  -0.38326  -0.33162  -0.32237
 Alpha  occ. eigenvalues --   -0.29504  -0.20308  -0.12410  -0.05426
 Alpha virt. eigenvalues --    0.14854   0.16751   0.16843   0.18633   0.23933
 Alpha virt. eigenvalues --    0.24032   0.26680   0.27296   0.28379   0.28688
 Alpha virt. eigenvalues --    0.30396   0.30972   0.31467   0.32233   0.33520

  Beta  occ. eigenvalues --  -20.37348 -11.08347 -11.06240 -11.01926 -10.95586
  Beta  occ. eigenvalues --   -1.18102  -0.83848  -0.76591  -0.57316  -0.53463
  Beta  occ. eigenvalues --   -0.46815  -0.43040  -0.37721  -0.32101  -0.28930
  Beta  occ. eigenvalues --   -0.28384  -0.16961  -0.09044
  Beta virt. eigenvalues --    0.14904   0.16744   0.16876   0.18612   0.24002
  Beta virt. eigenvalues --    0.24086   0.25512   0.27365   0.28389   0.28707
  Beta virt. eigenvalues --    0.30527   0.30624   0.31518   0.32423   0.33450

 Mulliken charges and spin densities:
               1          2
     1  C    0.059810   1.103390
     2  C    0.325748  -0.250330
     3  O   -0.973089   0.026224
     4  C   -0.713247   1.066172
     5  C    0.057669  -0.992284
     6  H    0.142395  -0.089411
     7  H    0.025248   0.053203
     8  H    0.025248   0.053203
     9  H    0.050220   0.029835
 Sum of Mulliken charges =  -1.00000   1.00000

 Dipole moment (field-independent basis, Debye):
    X=             -2.8354    Y=              3.1726    Z=             -0.0000  Tot=              4.2550
 Quadrupole moment (field-independent basis, Debye-Ang):
   XX=            -43.6515   YY=            -41.5961   ZZ=            -36.0334
   XY=              8.1101   XZ=             -0.0000   YZ=              0.0000

 29.4994543\MP4SDQ=-229.50025\CCSD=-229.5022694\CCSD(T)=-229.5470721\S2
 Normal termination of Gaussian 09 at Sat Mar  9 05:48:06 2019.
