 Gaussian 09, Revision E.01,
 Gaussian 09:  EM64L-G09RevE.01 30-Nov-2015

 --------------------------------------
 #p ccsd(t,maxcyc=200)/6-311++G(3df,2p)
 --------------------------------------

 -------------
 ccsd(t) iener
 -------------
 Symbolic Z-matrix:
 Charge = -1 Multiplicity = 4

                         Standard orientation:
 ---------------------------------------------------------------------
 Center     Atomic      Atomic             Coordinates (Angstroms)
 Number     Number       Type             X           Y           Z
 ---------------------------------------------------------------------
      1          8           0        2.442671    0.040895    0.000048
      2          6           0        0.062767    0.456187   -0.000065
      3          6           0        1.198432   -0.375131    0.000007
      4          6           0       -1.216619    0.065933   -0.000019
      5          6           0       -2.505705   -0.134245    0.000010
      6          1           0        0.256404    1.528363   -0.000116
      7          1           0        1.122604   -1.463710    0.000105
      8          1           0       -3.076864   -0.233936   -0.922893
      9          1           0       -3.076763   -0.234339    0.922931
 ---------------------------------------------------------------------

 SCF Done:  E(UHF) =  -228.561160426     A.U. after   48 cycles
 E2 =    -0.7763441325D+00 EUMP2 =    -0.22933750455873D+03
 CCSD(T)
 CCSD(T)= -0.22943801218D+03

 The electronic state is 4-A.
 Alpha  occ. eigenvalues --  -20.55560 -11.18021 -11.13149 -11.12787 -11.10605
 Alpha  occ. eigenvalues --   -1.35977  -0.98169  -0.87812  -0.75210  -0.66670
 Alpha  occ. eigenvalues --   -0.58003  -0.56326  -0.55636  -0.50282  -0.49125
 Alpha  occ. eigenvalues --   -0.44242  -0.32031  -0.26487  -0.18249   0.03961
 Alpha virt. eigenvalues --    0.13392   0.13770   0.14935   0.19290   0.20913
 Alpha virt. eigenvalues --    0.22079   0.22431   0.23672   0.24395   0.26357
 Alpha virt. eigenvalues --    0.27168   0.27373   0.29889   0.30706   0.32005

  Beta  occ. eigenvalues --  -20.50902 -11.16243 -11.14134 -11.11732 -11.10558
  Beta  occ. eigenvalues --   -1.20747  -0.95050  -0.86920  -0.69132  -0.59357
  Beta  occ. eigenvalues --   -0.53845  -0.50917  -0.46556  -0.45533  -0.44488
  Beta  occ. eigenvalues --   -0.28521  -0.26538
  Beta virt. eigenvalues --    0.14531   0.15924   0.16403   0.17407   0.17421
  Beta virt. eigenvalues --    0.20646   0.22150   0.23409   0.23894   0.25387
  Beta virt. eigenvalues --    0.25825   0.26352   0.27350   0.27775   0.28255

 Mulliken charges and spin densities:
               1          2
     1  O   -0.533796   1.148138
     2  C   -7.760803   6.760353
     3  C    1.537930  -0.684446
     4  C    4.439382  -2.678416
     5  C    5.638256  -6.693714
     6  H   -1.746155   1.936332
     7  H   -1.293359   1.473438
     8  H   -0.640651   0.869081
     9  H   -0.640805   0.869234
 Sum of Mulliken charges =  -1.00000   3.00000

 Dipole moment (field-independent basis, Debye):
    X=              5.7002    Y=             -0.4267    Z=             -0.0005  Tot=              5.7162
 Quadrupole moment (field-independent basis, Debye-Ang):
   XX=            -77.7068   YY=            -62.7237   ZZ=            -58.6787
   XY=              0.9850   XZ=              0.0007   YZ=              0.0022

 3874025\CCSD=-229.3974689\CCSD(T)=-229.4380122\S2=4.072681\S2-1=3.9784
 Normal termination of Gaussian 09 at Fri Mar  8 22:56:56 2019.
