 Gaussian 09, Revision E.01,
 Gaussian 09:  EM64L-G09RevE.01 30-Nov-2015

 --------------------------------------
 #p ccsd(t,maxcyc=200)/6-311++G(3df,2p)
 --------------------------------------

 -------------
 ccsd(t) iener
 -------------
 Symbolic Z-matrix:
 Charge = -1 Multiplicity = 4

                         Standard orientation:
 ---------------------------------------------------------------------
 Center     Atomic      Atomic             Coordinates (Angstroms)
 Number     Number       Type             X           Y           Z
 ---------------------------------------------------------------------
      1          6           0       -1.077046    0.358688    0.000000
      2          6           0        0.582631   -1.055795    0.000000
      3          8           0       -0.775329   -1.004829    0.000000
      4          6           0        1.252854    0.281587    0.000000
      5          6           0        0.000000    1.134163    0.000000
      6          1           0       -2.130204    0.587767    0.000000
      7          1           0        1.891387    0.462722    0.879321
      8          1           0        1.891387    0.462722   -0.879321
      9          1           0       -0.000573    2.213565    0.000000
 ---------------------------------------------------------------------

 SCF Done:  E(UHF) =  -228.560866190     A.U. after   45 cycles
 E2 =    -0.8180807738D+00 EUMP2 =    -0.22937894696387D+03
 CCSD(T)
 CCSD(T)= -0.22945239962D+03

 The electronic state is 4-A".
 Alpha  occ. eigenvalues --  -20.48448 -11.18600 -11.16741 -11.12811 -11.10796
 Alpha  occ. eigenvalues --   -1.32685  -0.96717  -0.88491  -0.70706  -0.65330
 Alpha  occ. eigenvalues --   -0.59256  -0.55155  -0.47323  -0.45269  -0.44151
 Alpha  occ. eigenvalues --   -0.42155  -0.33474  -0.26888  -0.19127   0.03687
 Alpha virt. eigenvalues --    0.13393   0.14849   0.15580   0.18734   0.21155
 Alpha virt. eigenvalues --    0.22310   0.23450   0.24905   0.25390   0.26361
 Alpha virt. eigenvalues --    0.26965   0.28525   0.29515   0.30210   0.31374

  Beta  occ. eigenvalues --  -20.47848 -11.16967 -11.13492 -11.12854 -11.10278
  Beta  occ. eigenvalues --   -1.30275  -0.94979  -0.84004  -0.67891  -0.61179
  Beta  occ. eigenvalues --   -0.54866  -0.49230  -0.44482  -0.42481  -0.42451
  Beta  occ. eigenvalues --   -0.40392  -0.22688
  Beta virt. eigenvalues --    0.14467   0.15622   0.17277   0.17373   0.19614
  Beta virt. eigenvalues --    0.21755   0.22811   0.23949   0.24310   0.24561
  Beta virt. eigenvalues --    0.26660   0.26797   0.28073   0.29767   0.30721

 Mulliken charges and spin densities:
               1          2
     1  C    1.555672  -1.583448
     2  C   -0.139049   2.489558
     3  O   -0.818891  -0.033274
     4  C    2.371651  -2.813452
     5  C    0.144185   0.169065
     6  H   -0.710191   0.894155
     7  H   -0.372924   0.521364
     8  H   -0.372924   0.521364
     9  H   -2.657530   2.834667
 Sum of Mulliken charges =  -1.00000   3.00000

 Dipole moment (field-independent basis, Debye):
    X=             -0.2181    Y=             -9.6294    Z=             -0.0000  Tot=              9.6319
 Quadrupole moment (field-independent basis, Debye-Ang):
   XX=            -60.0993   YY=            -82.1339   ZZ=            -52.9953
   XY=             -1.1765   XZ=             -0.0000   YZ=             -0.0000

 9.4055093\MP4SDQ=-229.4109486\CCSD=-229.4117369\CCSD(T)=-229.4523996\S
 Normal termination of Gaussian 09 at Sat Mar  9 18:36:52 2019.
