 Gaussian 09, Revision E.01,
 Gaussian 09:  EM64L-G09RevE.01 30-Nov-2015

 --------------------------------------
 #p ccsd(t,maxcyc=200)/6-311++G(3df,2p)
 --------------------------------------

 -------------
 ccsd(t) iener
 -------------
 Symbolic Z-matrix:
 Charge = -1 Multiplicity = 2

                         Standard orientation:
 ---------------------------------------------------------------------
 Center     Atomic      Atomic             Coordinates (Angstroms)
 Number     Number       Type             X           Y           Z
 ---------------------------------------------------------------------
      1          6           0        0.000000    1.093072    0.345434
      2          6           0       -0.000000   -1.093072    0.345434
      3          8           0        0.000000    0.000000    1.157510
      4          6           0        0.000000   -0.715472   -0.955135
      5          6           0        0.000000    0.715472   -0.955135
      6          1           0        0.000000    2.049283    0.839710
      7          1           0       -0.000000   -2.049283    0.839710
      8          1           0        0.000000   -1.370900   -1.811551
      9          1           0        0.000000    1.370900   -1.811551
 ---------------------------------------------------------------------

 SCF Done:  E(UHF) =  -228.656004544     A.U. after   30 cycles
 E2 =    -0.8738686772D+00 EUMP2 =    -0.22952987322156D+03
 CCSD(T)
 CCSD(T)= -0.22958996999D+03

 The electronic state is 2-B2.
 Alpha  occ. eigenvalues --  -20.51160 -11.17250 -11.17245 -11.11655 -11.11556
 Alpha  occ. eigenvalues --   -1.34705  -0.97350  -0.89268  -0.69488  -0.66885
 Alpha  occ. eigenvalues --   -0.62784  -0.52272  -0.49643  -0.46528  -0.45361
 Alpha  occ. eigenvalues --   -0.42838  -0.28756  -0.20793   0.04797
 Alpha virt. eigenvalues --    0.11001   0.13785   0.14376   0.20592   0.20747
 Alpha virt. eigenvalues --    0.23002   0.24569   0.24641   0.24771   0.25691
 Alpha virt. eigenvalues --    0.25788   0.27625   0.28487   0.29015   0.29496

  Beta  occ. eigenvalues --  -20.51159 -11.17224 -11.17220 -11.11646 -11.11547
  Beta  occ. eigenvalues --   -1.34700  -0.97341  -0.89217  -0.69447  -0.66790
  Beta  occ. eigenvalues --   -0.62683  -0.52278  -0.49528  -0.46414  -0.45345
  Beta  occ. eigenvalues --   -0.42801  -0.28770  -0.20796
  Beta virt. eigenvalues --    0.14232   0.15537   0.15592   0.16510   0.21085
  Beta virt. eigenvalues --    0.21988   0.23227   0.25128   0.25697   0.25930
  Beta virt. eigenvalues --    0.26277   0.26478   0.28670   0.29011   0.29712

 Mulliken charges and spin densities:
               1          2
     1  C    1.874538  -1.771765
     2  C    1.874538  -1.771765
     3  O   -0.846044   0.068422
     4  C    0.542755  -0.623334
     5  C    0.542755  -0.623334
     6  H   -1.771156   1.960949
     7  H   -1.771156   1.960949
     8  H   -0.723115   0.899940
     9  H   -0.723115   0.899940
 Sum of Mulliken charges =  -1.00000   1.00000

 Dipole moment (field-independent basis, Debye):
    X=              0.0000    Y=              0.0000    Z=             -0.5785  Tot=              0.5785
 Quadrupole moment (field-independent basis, Debye-Ang):
   XX=            -51.3467   YY=           -104.1448   ZZ=            -56.3645
   XY=             -0.0000   XZ=              0.0000   YZ=              0.0000

 .5461004\CCSD=-229.5444003\CCSD(T)=-229.58997\S2=0.750057\S2-1=0.74999
 Normal termination of Gaussian 09 at Sat Mar  9 04:27:15 2019.
