 Gaussian 09, Revision E.01,
 Gaussian 09:  EM64L-G09RevE.01 30-Nov-2015

 --------------------------------------
 #p ccsd(t,maxcyc=200)/6-311++G(3df,2p)
 --------------------------------------

 -------------
 ccsd(t) iener
 -------------
 Symbolic Z-matrix:
 Charge = -1 Multiplicity = 4

                         Standard orientation:
 ---------------------------------------------------------------------
 Center     Atomic      Atomic             Coordinates (Angstroms)
 Number     Number       Type             X           Y           Z
 ---------------------------------------------------------------------
      1          6           0        0.684155    0.140540   -0.014416
      2          1           0       -2.548844    0.926763    0.004827
      3          1           0        1.079315    0.004943    1.019189
      4          1           0        1.347456   -0.497047   -0.624233
      5          1           0        0.802817    1.202854   -0.267541
      6          8           0       -0.598209   -0.310094   -0.005718
 ---------------------------------------------------------------------

 SCF Done:  E(UHF) =  -114.921958373     A.U. after   35 cycles
 E2 =    -0.3745208266D+00 EUMP2 =    -0.11529647919933D+03
 CCSD(T)
 CCSD(T)= -0.11534057510D+03

 The electronic state is 4-A.
 Alpha  occ. eigenvalues --  -20.49031 -11.13226  -1.27966  -0.78013  -0.57096
 Alpha  occ. eigenvalues --   -0.52198  -0.50392  -0.37332  -0.36817  -0.32953
 Alpha  occ. eigenvalues --    0.03720
 Alpha virt. eigenvalues --    0.16621   0.16779   0.18059   0.22121   0.26148
 Alpha virt. eigenvalues --    0.27179   0.30157   0.37600   0.39674   0.41857
 Alpha virt. eigenvalues --    0.42322   0.45410   0.46625   0.47615   0.57503

  Beta  occ. eigenvalues --  -20.44862 -11.13359  -1.14537  -0.74276  -0.49810
  Beta  occ. eigenvalues --   -0.46218  -0.42549  -0.30778
  Beta virt. eigenvalues --    0.13880   0.17933   0.20173   0.20547   0.21926
  Beta virt. eigenvalues --    0.23982   0.26149   0.28378   0.29356   0.32185
  Beta virt. eigenvalues --    0.38799   0.41871   0.43151   0.46991   0.47466

 Mulliken charges and spin densities:
               1          2
     1  C    3.495423  -3.493045
     2  H   -0.050822   1.039041
     3  H   -1.459649   1.688090
     4  H   -1.273151   1.429762
     5  H   -1.020484   1.134761
     6  O   -0.691318   1.201391
 Sum of Mulliken charges =  -1.00000   3.00000

 Dipole moment (field-independent basis, Debye):
    X=             -7.3120    Y=             -1.1165    Z=             -0.9624  Tot=              7.4591
 Quadrupole moment (field-independent basis, Debye-Ang):
   XX=            -50.0085   YY=            -38.8893   ZZ=            -39.1926
   XY=              0.4226   XZ=             -1.2147   YZ=             -0.2372

 Normal termination of Gaussian 09 at Fri Mar  8 23:54:07 2019.
