 Gaussian 09, Revision E.01,
 Gaussian 09:  EM64L-G09RevE.01 30-Nov-2015

 --------------------------------------
 #p ccsd(t,maxcyc=200)/6-311++G(3df,2p)
 --------------------------------------

 -------------
 ccsd(t) iener
 -------------
 Symbolic Z-matrix:
 Charge = -1 Multiplicity = 3

                         Standard orientation:
 ---------------------------------------------------------------------
 Center     Atomic      Atomic             Coordinates (Angstroms)
 Number     Number       Type             X           Y           Z
 ---------------------------------------------------------------------
      1          6           0        0.042183   -0.399584    0.087911
      2          6           0       -1.277732   -0.008273   -0.085674
      3          1           0       -1.540303    1.015653    0.249685
      4          8           0        1.119200    0.178936   -0.032888
 ---------------------------------------------------------------------

 SCF Done:  E(UHF) =  -151.099355747     A.U. after   28 cycles
 E2 =    -0.5152158072D+00 EUMP2 =    -0.15161457155409D+03
 CCSD(T)
 CCSD(T)= -0.15165581922D+03

 The electronic state is 3-A.
 Alpha  occ. eigenvalues --  -20.35224 -11.08982 -11.00680  -1.18471  -0.78119
 Alpha  occ. eigenvalues --   -0.51119  -0.41264  -0.40569  -0.35519  -0.19144
 Alpha  occ. eigenvalues --   -0.13437  -0.09454
 Alpha virt. eigenvalues --    0.18169   0.22868   0.26551   0.27023   0.27684
 Alpha virt. eigenvalues --    0.28659   0.30293   0.33201   0.35417   0.40876
 Alpha virt. eigenvalues --    0.45312   0.47129   0.50063   0.50291   0.53240

  Beta  occ. eigenvalues --  -20.33083 -11.07234 -10.98451  -1.12938  -0.68196
  Beta  occ. eigenvalues --   -0.45186  -0.37072  -0.31457  -0.25178  -0.09944
  Beta virt. eigenvalues --    0.18003   0.22638   0.24030   0.27137   0.27537
  Beta virt. eigenvalues --    0.28579   0.29855   0.31594   0.34685   0.37374
  Beta virt. eigenvalues --    0.39738   0.45795   0.46102   0.50048   0.50903

 Mulliken charges and spin densities:
               1          2
     1  C    0.387804   0.856759
     2  C   -0.636428   0.772648
     3  H    0.018953   0.083011
     4  O   -0.770329   0.287582
 Sum of Mulliken charges =  -1.00000   2.00000

 Dipole moment (field-independent basis, Debye):
    X=              1.1760    Y=              0.7646    Z=              1.2108  Tot=              1.8530
 Quadrupole moment (field-independent basis, Debye-Ang):
   XX=            -31.8118   YY=            -22.3222   ZZ=            -22.3401
   XY=             -1.9584   XZ=             -2.2946   YZ=             -0.1677

 \CCSD(T)=-151.6558192\S2=2.035315\S2-1=2.013969\S2A=2.000567\RMSD=8.41
 Normal termination of Gaussian 09 at Sat Mar  9 00:09:58 2019.
