 Gaussian 09, Revision E.01,
 Gaussian 09:  EM64L-G09RevE.01 30-Nov-2015

 --------------------------------------
 #p ccsd(t,maxcyc=200)/6-311++G(3df,2p)
 --------------------------------------

 -------------
 ccsd(t) iener
 -------------
 Symbolic Z-matrix:
 Charge = -1 Multiplicity = 3

                         Standard orientation:
 ---------------------------------------------------------------------
 Center     Atomic      Atomic             Coordinates (Angstroms)
 Number     Number       Type             X           Y           Z
 ---------------------------------------------------------------------
      1          6           0        0.918101   -0.392676    0.041951
      2          6           0       -0.551008   -0.497576   -0.145606
      3          1           0       -1.380267   -0.835333    0.507674
      4          8           0       -0.102786    0.772105    0.014282
 ---------------------------------------------------------------------

 SCF Done:  E(UHF) =  -151.020959940     A.U. after   20 cycles
 E2 =    -0.5213692929D+00 EUMP2 =    -0.15154232923272D+03
 CCSD(T)
 CCSD(T)= -0.15158308557D+03

 The electronic state is 3-A.
 Alpha  occ. eigenvalues --  -20.36518 -11.06160 -11.02012  -1.19187  -0.67836
 Alpha  occ. eigenvalues --   -0.56912  -0.43474  -0.37730  -0.24387  -0.18441
 Alpha  occ. eigenvalues --   -0.15092  -0.06316
 Alpha virt. eigenvalues --    0.16917   0.24209   0.25018   0.26828   0.28021
 Alpha virt. eigenvalues --    0.30107   0.30931   0.33593   0.35281   0.43241
 Alpha virt. eigenvalues --    0.46175   0.47559   0.50484   0.52689   0.54822

  Beta  occ. eigenvalues --  -20.35040 -11.04239 -10.99763  -1.15141  -0.60613
  Beta  occ. eigenvalues --   -0.50843  -0.36873  -0.25955  -0.21212  -0.13210
  Beta virt. eigenvalues --    0.17038   0.24182   0.24447   0.26115   0.28022
  Beta virt. eigenvalues --    0.28596   0.30271   0.33876   0.35387   0.37378
  Beta virt. eigenvalues --    0.43727   0.45406   0.48274   0.50277   0.51816

 Mulliken charges and spin densities:
               1          2
     1  C   -0.501654   1.088281
     2  C    0.156035   0.740552
     3  H   -0.001571   0.052179
     4  O   -0.652809   0.118988
 Sum of Mulliken charges =  -1.00000   2.00000

 Dipole moment (field-independent basis, Debye):
    X=             -3.1970    Y=              0.1372    Z=              0.3072  Tot=              3.2146
 Quadrupole moment (field-independent basis, Debye-Ang):
   XX=            -27.5040   YY=            -23.4916   ZZ=            -22.4653
   XY=              1.9749   XZ=             -1.2128   YZ=             -0.4453

 7844\CCSD(T)=-151.5830856\S2=2.028791\S2-1=2.009089\S2A=2.000385\RMSD=
 Normal termination of Gaussian 09 at Sat Mar  9 00:22:37 2019.
