 Gaussian 09, Revision E.01,
 Gaussian 09:  EM64L-G09RevE.01 30-Nov-2015

 --------------------------------------
 #p ccsd(t,maxcyc=200)/6-311++G(3df,2p)
 --------------------------------------

 -------------
 ccsd(t) iener
 -------------
 Symbolic Z-matrix:
 Charge = -1 Multiplicity = 1

                         Standard orientation:
 ---------------------------------------------------------------------
 Center     Atomic      Atomic             Coordinates (Angstroms)
 Number     Number       Type             X           Y           Z
 ---------------------------------------------------------------------
      1          6           0       -1.253143   -0.114709    0.000032
      2          6           0       -0.005153    0.022952   -0.000097
      3          1           0       -2.155837    0.454041    0.000070
      4          8           0        1.213201    0.012062    0.000040
 ---------------------------------------------------------------------

 SCF Done:  E(RHF) =  -151.175324229     A.U. after   17 cycles
 E2 =    -0.5596706166D+00 EUMP2 =    -0.15173499484593D+03
 CCSD(T)
 CCSD(T)= -0.15176303284D+03

 The electronic state is 1-A.
 Alpha  occ. eigenvalues --  -20.32471 -11.08731 -10.96436  -1.15216  -0.76495
 Alpha  occ. eigenvalues --   -0.47627  -0.41816  -0.34573  -0.33723  -0.10987
 Alpha  occ. eigenvalues --   -0.10081
 Alpha virt. eigenvalues --    0.16899   0.22428   0.26328   0.28121   0.28164
 Alpha virt. eigenvalues --    0.28688   0.30425   0.33179   0.34816   0.42105
 Alpha virt. eigenvalues --    0.47653   0.49502   0.50983   0.51756   0.53304

 Mulliken charges:
               1
     1  C   -0.796904
     2  C    0.612882
     3  H    0.146587
     4  O   -0.962565
 Sum of Mulliken charges =  -1.00000

 Dipole moment (field-independent basis, Debye):
    X=              0.1951    Y=              1.2904    Z=             -0.0001  Tot=              1.3050
 Quadrupole moment (field-independent basis, Debye-Ang):
   XX=            -28.7774   YY=            -21.9150   ZZ=            -22.2450
   XY=             -2.5452   XZ=             -0.0004   YZ=              0.0000

 =-151.7324692\CCSD(T)=-151.7630328\RMSD=4.979e-09\PG=C01 [X(C2H1O1)]\\
 Normal termination of Gaussian 09 at Fri Mar  8 23:51:38 2019.
