 Gaussian 09, Revision E.01,
 Gaussian 09:  EM64L-G09RevE.01 30-Nov-2015

 --------------------------------------
 #p ccsd(t,maxcyc=200)/6-311++G(3df,2p)
 --------------------------------------

 -------------
 ccsd(t) iener
 -------------
 Symbolic Z-matrix:
 Charge = -1 Multiplicity = 1

                         Standard orientation:
 ---------------------------------------------------------------------
 Center     Atomic      Atomic             Coordinates (Angstroms)
 Number     Number       Type             X           Y           Z
 ---------------------------------------------------------------------
      1          6           0       -1.484861    0.025453    0.000004
      2          6           0       -0.246765   -0.014923   -0.000009
      3          1           0        1.464239    0.789437    0.000001
      4          8           0        1.115690   -0.106577    0.000003
 ---------------------------------------------------------------------

 SCF Done:  E(RHF) =  -151.099952720     A.U. after   16 cycles
 E2 =    -0.5520464410D+00 EUMP2 =    -0.15165199916143D+03
 CCSD(T)
 CCSD(T)= -0.15168502835D+03

 The electronic state is 1-A.
 Alpha  occ. eigenvalues --  -20.42430 -11.01482 -10.95186  -1.21614  -0.73870
 Alpha  occ. eigenvalues --   -0.57248  -0.45211  -0.39636  -0.16327  -0.12248
 Alpha  occ. eigenvalues --   -0.10720
 Alpha virt. eigenvalues --    0.15445   0.23802   0.26133   0.28341   0.29180
 Alpha virt. eigenvalues --    0.30170   0.30430   0.33838   0.36862   0.39504
 Alpha virt. eigenvalues --    0.45989   0.46512   0.48416   0.51045   0.52080

 Mulliken charges:
               1
     1  C   -0.841415
     2  C    0.225910
     3  H    0.246042
     4  O   -0.630537
 Sum of Mulliken charges =  -1.00000

 Dipole moment (field-independent basis, Debye):
    X=              7.0782    Y=              1.3269    Z=              0.0000  Tot=              7.2015
 Quadrupole moment (field-independent basis, Debye-Ang):
   XX=            -33.9934   YY=            -20.9159   ZZ=            -22.8466
   XY=              3.0462   XZ=             -0.0000   YZ=              0.0000

 -151.6562781\CCSD(T)=-151.6850283\RMSD=4.368e-09\PG=C01 [X(C2H1O1)]\\@
 Normal termination of Gaussian 09 at Fri Mar  8 23:58:14 2019.
