 Gaussian 09, Revision E.01,
 Gaussian 09:  EM64L-G09RevE.01 30-Nov-2015

 --------------------------------------
 #p ccsd(t,maxcyc=200)/6-311++G(3df,2p)
 --------------------------------------

 -------------
 ccsd(t) iener
 -------------
 Symbolic Z-matrix:
 Charge = -1 Multiplicity = 3

                         Standard orientation:
 ---------------------------------------------------------------------
 Center     Atomic      Atomic             Coordinates (Angstroms)
 Number     Number       Type             X           Y           Z
 ---------------------------------------------------------------------
      1          6           0       -1.475919    0.060214   -0.000002
      2          6           0       -0.198867   -0.065560    0.000003
      3          1           0        1.551174    0.860827    0.000001
      4          8           0        1.062192   -0.103594   -0.000001
 ---------------------------------------------------------------------

 SCF Done:  E(UHF) =  -151.035730056     A.U. after   27 cycles
 E2 =    -0.5120573856D+00 EUMP2 =    -0.15154778744206D+03
 CCSD(T)
 CCSD(T)= -0.15159006271D+03

 The electronic state is 3-A.
 Alpha  occ. eigenvalues --  -20.51146 -11.18641 -11.10861  -1.32902  -0.90104
 Alpha  occ. eigenvalues --   -0.68046  -0.53585  -0.51626  -0.31343  -0.26838
 Alpha  occ. eigenvalues --   -0.24441  -0.00170
 Alpha virt. eigenvalues --    0.20500   0.21598   0.23565   0.24846   0.25432
 Alpha virt. eigenvalues --    0.26123   0.29081   0.31841   0.33520   0.36873
 Alpha virt. eigenvalues --    0.41161   0.44894   0.45271   0.45601   0.48471

  Beta  occ. eigenvalues --  -20.49883 -11.18170 -11.09740  -1.29985  -0.82363
  Beta  occ. eigenvalues --   -0.65744  -0.52364  -0.43384  -0.28486  -0.22674
  Beta virt. eigenvalues --    0.16291   0.19711   0.21961   0.22458   0.25739
  Beta virt. eigenvalues --    0.26313   0.26988   0.28113   0.31523   0.33165
  Beta virt. eigenvalues --    0.36313   0.43434   0.44849   0.46597   0.47197

 Mulliken charges and spin densities:
               1          2
     1  C    0.321672  -0.222558
     2  C    0.578919   0.367829
     3  H   -1.406959   1.874524
     4  O   -0.493632  -0.019796
 Sum of Mulliken charges =  -1.00000   2.00000

 Dipole moment (field-independent basis, Debye):
    X=             -3.9287    Y=             -5.0335    Z=              0.0000  Tot=              6.3852
 Quadrupole moment (field-independent basis, Debye-Ang):
   XX=            -53.3732   YY=            -37.1201   ZZ=            -27.0931
   XY=            -10.8706   XZ=             -0.0000   YZ=             -0.0000

 04\CCSD(T)=-151.5900627\S2=2.011125\S2-1=2.003015\S2A=2.000068\RMSD=7.
 Normal termination of Gaussian 09 at Sat Mar  9 00:21:05 2019.
