 Gaussian 09, Revision E.01,
 Gaussian 09:  EM64L-G09RevE.01 30-Nov-2015

 --------------------------------------
 #p ccsd(t,maxcyc=200)/6-311++G(3df,2p)
 --------------------------------------

 -------------
 ccsd(t) iener
 -------------
 Symbolic Z-matrix:
 Charge = -1 Multiplicity = 1

                         Standard orientation:
 ---------------------------------------------------------------------
 Center     Atomic      Atomic             Coordinates (Angstroms)
 Number     Number       Type             X           Y           Z
 ---------------------------------------------------------------------
      1          6           0        0.005116    0.023085   -0.000029
      2          6           0        1.253164   -0.115032    0.000009
      3          1           0        2.154804    0.455313    0.000021
      4          8           0       -1.213060    0.012046    0.000012
 ---------------------------------------------------------------------

 SCF Done:  E(RHF) =  -151.175327165     A.U. after   17 cycles
 E2 =    -0.5596648138D+00 EUMP2 =    -0.15173499197884D+03
 CCSD(T)
 CCSD(T)= -0.15176303357D+03

 The electronic state is 1-A.
 Alpha  occ. eigenvalues --  -20.32481 -11.08734 -10.96432  -1.15236  -0.76496
 Alpha  occ. eigenvalues --   -0.47627  -0.41814  -0.34587  -0.33731  -0.10991
 Alpha  occ. eigenvalues --   -0.10078
 Alpha virt. eigenvalues --    0.16904   0.22426   0.26327   0.28121   0.28162
 Alpha virt. eigenvalues --    0.28688   0.30426   0.33181   0.34820   0.42095
 Alpha virt. eigenvalues --    0.47653   0.49489   0.50975   0.51749   0.53301

 Mulliken charges:
               1
     1  C    0.613716
     2  C   -0.797755
     3  H    0.146341
     4  O   -0.962303
 Sum of Mulliken charges =  -1.00000

 Dipole moment (field-independent basis, Debye):
    X=             -0.2018    Y=              1.2940    Z=             -0.0000  Tot=              1.3097
 Quadrupole moment (field-independent basis, Debye-Ang):
   XX=            -28.7864   YY=            -21.9138   ZZ=            -22.2461
   XY=              2.5514   XZ=              0.0001   YZ=              0.0000

 151.7324689\CCSD(T)=-151.7630336\RMSD=5.017e-09\PG=C01 [X(C2H1O1)]\\@
 Normal termination of Gaussian 09 at Fri Mar  8 23:50:32 2019.
