 Gaussian 09, Revision E.01,
 Gaussian 09:  EM64L-G09RevE.01 30-Nov-2015

 --------------------------------------
 #p ccsd(t,maxcyc=200)/6-311++G(3df,2p)
 --------------------------------------

 -------------
 ccsd(t) iener
 -------------
 Symbolic Z-matrix:
 Charge = -1 Multiplicity = 1

                         Standard orientation:
 ---------------------------------------------------------------------
 Center     Atomic      Atomic             Coordinates (Angstroms)
 Number     Number       Type             X           Y           Z
 ---------------------------------------------------------------------
      1          6           0       -1.322716    0.005023    0.000055
      2          6           0        1.220369   -0.180030    0.000036
      3          1           0        1.620317    0.853420    0.000061
      4          8           0       -0.125779    0.024578   -0.000076
 ---------------------------------------------------------------------

 SCF Done:  E(RHF) =  -150.957382944     A.U. after   19 cycles
 E2 =    -0.5818056305D+00 EUMP2 =    -0.15153918857486D+03
 CCSD(T)
 CCSD(T)= -0.15157646811D+03

 The electronic state is 1-A.
 Alpha  occ. eigenvalues --  -20.51593 -11.10843 -11.03850  -1.32801  -0.84154
 Alpha  occ. eigenvalues --   -0.50121  -0.47117  -0.44236  -0.32225  -0.13606
 Alpha  occ. eigenvalues --   -0.01652
 Alpha virt. eigenvalues --    0.17653   0.22007   0.22555   0.23728   0.26275
 Alpha virt. eigenvalues --    0.28600   0.30800   0.31419   0.33006   0.36575
 Alpha virt. eigenvalues --    0.36622   0.45368   0.49460   0.50745   0.50884

 Mulliken charges:
               1
     1  C   -0.237053
     2  C   -0.605526
     3  H    0.073341
     4  O   -0.230762
 Sum of Mulliken charges =  -1.00000

 Dipole moment (field-independent basis, Debye):
    X=             -1.3030    Y=              1.8997    Z=              0.0001  Tot=              2.3036
 Quadrupole moment (field-independent basis, Debye-Ang):
   XX=            -36.6855   YY=            -22.4546   ZZ=            -25.6301
   XY=              3.6545   XZ=              0.0004   YZ=              0.0001

 151.5385872\CCSD(T)=-151.5764681\RMSD=2.578e-09\PG=C01 [X(C2H1O1)]\\@
 Normal termination of Gaussian 09 at Fri Mar  8 23:51:06 2019.
