 Gaussian 09, Revision E.01,
 Gaussian 09:  EM64L-G09RevE.01 30-Nov-2015

 --------------------------------------
 #p ccsd(t,maxcyc=200)/6-311++G(3df,2p)
 --------------------------------------

 -------------
 ccsd(t) iener
 -------------
 Symbolic Z-matrix:
 Charge = -1 Multiplicity = 3

                         Standard orientation:
 ---------------------------------------------------------------------
 Center     Atomic      Atomic             Coordinates (Angstroms)
 Number     Number       Type             X           Y           Z
 ---------------------------------------------------------------------
      1          6           0       -0.035288    0.333348   -0.000112
      2          6           0        1.253485   -0.268933   -0.000040
      3          1           0        2.024263    0.514670    0.000418
      4          8           0       -1.166681   -0.112645    0.000061
 ---------------------------------------------------------------------

 SCF Done:  E(UHF) =  -151.103942546     A.U. after   27 cycles
 E2 =    -0.5162032947D+00 EUMP2 =    -0.15162014584063D+03
 CCSD(T)
 CCSD(T)= -0.15166349402D+03

 The electronic state is 3-A.
 Alpha  occ. eigenvalues --  -20.36461 -11.09524 -11.01055  -1.20093  -0.78107
 Alpha  occ. eigenvalues --   -0.51669  -0.42837  -0.38284  -0.36410  -0.21200
 Alpha  occ. eigenvalues --   -0.15013  -0.06606
 Alpha virt. eigenvalues --    0.17939   0.22710   0.25247   0.26826   0.28389
 Alpha virt. eigenvalues --    0.28951   0.29906   0.33583   0.35735   0.41007
 Alpha virt. eigenvalues --    0.44227   0.45953   0.48445   0.50846   0.54561

  Beta  occ. eigenvalues --  -20.34206 -11.08214 -10.99240  -1.14546  -0.68147
  Beta  occ. eigenvalues --   -0.47022  -0.36115  -0.28684  -0.28383  -0.11906
  Beta virt. eigenvalues --    0.17773   0.22504   0.23797   0.25430   0.27694
  Beta virt. eigenvalues --    0.28235   0.29890   0.32700   0.33442   0.36331
  Beta virt. eigenvalues --    0.41139   0.45022   0.46234   0.46601   0.51439

 Mulliken charges and spin densities:
               1          2
     1  C    0.174384   0.960510
     2  C   -0.549542   0.803270
     3  H    0.050465  -0.055426
     4  O   -0.675306   0.291646
 Sum of Mulliken charges =  -1.00000   2.00000

 Dipole moment (field-independent basis, Debye):
    X=             -0.9351    Y=              1.8589    Z=              0.0007  Tot=              2.0809
 Quadrupole moment (field-independent basis, Debye-Ang):
   XX=            -30.0151   YY=            -25.6610   ZZ=            -21.1646
   XY=              3.4421   XZ=              0.0015   YZ=             -0.0005

 52\CCSD(T)=-151.663494\S2=2.038745\S2-1=2.016274\S2A=2.000764\RMSD=5.7
 Normal termination of Gaussian 09 at Sat Mar  9 00:04:59 2019.
