 Gaussian 09, Revision E.01,
 Gaussian 09:  EM64L-G09RevE.01 30-Nov-2015

 --------------------------------------
 #p ccsd(t,maxcyc=200)/6-311++G(3df,2p)
 --------------------------------------

 -------------
 ccsd(t) iener
 -------------
 Symbolic Z-matrix:
 Charge = -1 Multiplicity = 3

                         Standard orientation:
 ---------------------------------------------------------------------
 Center     Atomic      Atomic             Coordinates (Angstroms)
 Number     Number       Type             X           Y           Z
 ---------------------------------------------------------------------
      1          6           0        0.198855   -0.062071    0.010634
      2          6           0        1.476093    0.058577   -0.005202
      3          1           0       -1.554284    0.858056    0.002471
      4          8           0       -1.061926   -0.104636   -0.004382
 ---------------------------------------------------------------------

 SCF Done:  E(UHF) =  -151.035779795     A.U. after   37 cycles
 E2 =    -0.5120241786D+00 EUMP2 =    -0.15154780397332D+03
 CCSD(T)
 CCSD(T)= -0.15159006509D+03

 The electronic state is 3-A.
 Alpha  occ. eigenvalues --  -20.51161 -11.18655 -11.10864  -1.32920  -0.90122
 Alpha  occ. eigenvalues --   -0.68053  -0.53611  -0.51645  -0.31347  -0.26849
 Alpha  occ. eigenvalues --   -0.24453  -0.00170
 Alpha virt. eigenvalues --    0.20498   0.21605   0.23559   0.24850   0.25426
 Alpha virt. eigenvalues --    0.26104   0.29092   0.31884   0.33505   0.36854
 Alpha virt. eigenvalues --    0.41161   0.44882   0.45216   0.45653   0.48442

  Beta  occ. eigenvalues --  -20.49898 -11.18179 -11.09746  -1.30000  -0.82382
  Beta  occ. eigenvalues --   -0.65748  -0.52385  -0.43399  -0.28497  -0.22688
  Beta virt. eigenvalues --    0.16280   0.19714   0.21959   0.22460   0.25737
  Beta virt. eigenvalues --    0.26315   0.26977   0.28103   0.31557   0.33175
  Beta virt. eigenvalues --    0.36324   0.43380   0.44819   0.46579   0.47196

 Mulliken charges and spin densities:
               1          2
     1  C    0.568378   0.383987
     2  C    0.337458  -0.244280
     3  H   -1.410628   1.878271
     4  O   -0.495207  -0.017977
 Sum of Mulliken charges =  -1.00000   2.00000

 Dipole moment (field-independent basis, Debye):
    X=              3.9542    Y=             -5.0246    Z=              0.0413  Tot=              6.3941
 Quadrupole moment (field-independent basis, Debye-Ang):
   XX=            -53.4830   YY=            -37.0880   ZZ=            -27.1014
   XY=             10.8845   XZ=              0.0820   YZ=             -0.0273

 \CCSD(T)=-151.5900651\S2=2.011095\S2-1=2.002988\S2A=2.000067\RMSD=4.48
 Normal termination of Gaussian 09 at Sat Mar  9 00:27:18 2019.
