 Gaussian 09, Revision E.01,
 Gaussian 09:  EM64L-G09RevE.01 30-Nov-2015

 --------------------------------------
 #p ccsd(t,maxcyc=200)/6-311++G(3df,2p)
 --------------------------------------

 -------------
 ccsd(t) iener
 -------------
 Symbolic Z-matrix:
 Charge = -1 Multiplicity = 1

                         Standard orientation:
 ---------------------------------------------------------------------
 Center     Atomic      Atomic             Coordinates (Angstroms)
 Number     Number       Type             X           Y           Z
 ---------------------------------------------------------------------
      1          6           0       -0.246731   -0.015019    0.000033
      2          6           0       -1.484980    0.025511   -0.000017
      3          1           0        1.464452    0.789437   -0.000005
      4          8           0        1.115727   -0.106548   -0.000011
 ---------------------------------------------------------------------

 SCF Done:  E(RHF) =  -151.099940291     A.U. after   16 cycles
 E2 =    -0.5520652207D+00 EUMP2 =    -0.15165200551182D+03
 CCSD(T)
 CCSD(T)= -0.15168503381D+03

 The electronic state is 1-A.
 Alpha  occ. eigenvalues --  -20.42431 -11.01487 -10.95192  -1.21613  -0.73866
 Alpha  occ. eigenvalues --   -0.57250  -0.45209  -0.39636  -0.16329  -0.12245
 Alpha  occ. eigenvalues --   -0.10718
 Alpha virt. eigenvalues --    0.15444   0.23801   0.26133   0.28341   0.29180
 Alpha virt. eigenvalues --    0.30170   0.30430   0.33838   0.36861   0.39502
 Alpha virt. eigenvalues --    0.45991   0.46511   0.48417   0.51044   0.52075

 Mulliken charges:
               1
     1  C    0.225655
     2  C   -0.841170
     3  H    0.246048
     4  O   -0.630533
 Sum of Mulliken charges =  -1.00000

 Dipole moment (field-independent basis, Debye):
    X=              7.0783    Y=              1.3271    Z=             -0.0000  Tot=              7.2017
 Quadrupole moment (field-independent basis, Debye-Ang):
   XX=            -33.9925   YY=            -20.9170   ZZ=            -22.8478
   XY=              3.0465   XZ=              0.0000   YZ=             -0.0000

 -151.6562793\CCSD(T)=-151.6850338\RMSD=4.386e-09\PG=C01 [X(C2H1O1)]\\@
 Normal termination of Gaussian 09 at Fri Mar  8 23:51:28 2019.
