 Gaussian 09, Revision E.01,
 Gaussian 09:  EM64L-G09RevE.01 30-Nov-2015

 --------------------------------------
 #p ccsd(t,maxcyc=200)/6-311++G(3df,2p)
 --------------------------------------

 -------------
 ccsd(t) iener
 -------------
 Symbolic Z-matrix:
 Charge = -1 Multiplicity = 1

                         Standard orientation:
 ---------------------------------------------------------------------
 Center     Atomic      Atomic             Coordinates (Angstroms)
 Number     Number       Type             X           Y           Z
 ---------------------------------------------------------------------
      1          6           0       -0.943511    0.844489    0.000036
      2          6           0        0.252563    0.022035    0.000029
      3          6           0       -1.003417   -0.541874   -0.000160
      4          1           0       -1.721933   -1.365226    0.000515
      5          8           0        1.486016   -0.072834    0.000007
 ---------------------------------------------------------------------

 SCF Done:  E(RHF) =  -189.005188033     A.U. after   15 cycles
 E2 =    -0.6902311049D+00 EUMP2 =    -0.18969541913771D+03
 CCSD(T)
 CCSD(T)= -0.18973693587D+03

 The electronic state is 1-A.
 Alpha  occ. eigenvalues --  -20.30870 -11.10939 -11.04620 -11.01970  -1.13845
 Alpha  occ. eigenvalues --   -0.95924  -0.57019  -0.48098  -0.41790  -0.34658
 Alpha  occ. eigenvalues --   -0.31416  -0.22197  -0.18103  -0.11517
 Alpha virt. eigenvalues --    0.15041   0.22211   0.23112   0.25424   0.26875
 Alpha virt. eigenvalues --    0.26986   0.28169   0.28381   0.30663   0.30867
 Alpha virt. eigenvalues --    0.31542   0.35662   0.37344   0.39894   0.43528

 Mulliken charges:
               1
     1  C   -0.414916
     2  C    0.640338
     3  C   -0.332678
     4  H    0.124759
     5  O   -1.017503
 Sum of Mulliken charges =  -1.00000

 Dipole moment (field-independent basis, Debye):
    X=             -1.2097    Y=             -3.0621    Z=              0.0004  Tot=              3.2924
 Quadrupole moment (field-independent basis, Debye-Ang):
   XX=            -37.6554   YY=            -31.1021   ZZ=            -25.9052
   XY=              5.5883   XZ=             -0.0005   YZ=             -0.0014

 197\MP4SDQ=-189.7016639\CCSD=-189.6992758\CCSD(T)=-189.7369359\RMSD=5.
 Normal termination of Gaussian 09 at Sat Mar  9 00:26:58 2019.
