 Gaussian 09, Revision E.01,
 Gaussian 09:  EM64L-G09RevE.01 30-Nov-2015

 --------------------------------------
 #p ccsd(t,maxcyc=200)/6-311++G(3df,2p)
 --------------------------------------

 -------------
 ccsd(t) iener
 -------------
 Symbolic Z-matrix:
 Charge = -1 Multiplicity = 1

                         Standard orientation:
 ---------------------------------------------------------------------
 Center     Atomic      Atomic             Coordinates (Angstroms)
 Number     Number       Type             X           Y           Z
 ---------------------------------------------------------------------
      1          6           0        0.753376   -0.140387    0.000152
      2          6           0       -0.517531   -0.671547   -0.000029
      3          6           0        1.944158    0.260477   -0.000096
      4          1           0       -1.096277    1.163201    0.000227
      5          8           0       -1.497968    0.268193   -0.000049
 ---------------------------------------------------------------------

 SCF Done:  E(RHF) =  -188.950924479     A.U. after   18 cycles
 E2 =    -0.6822940236D+00 EUMP2 =    -0.18963321850222D+03
 CCSD(T)
 CCSD(T)= -0.18968292484D+03

 The electronic state is 1-A.
 Alpha  occ. eigenvalues --  -20.43888 -11.11605 -11.02698 -10.98979  -1.24093
 Alpha  occ. eigenvalues --   -0.82509  -0.68860  -0.57518  -0.43305  -0.40407
 Alpha  occ. eigenvalues --   -0.23998  -0.21423  -0.18452  -0.13329
 Alpha virt. eigenvalues --    0.17143   0.22065   0.23466   0.24187   0.25441
 Alpha virt. eigenvalues --    0.26308   0.27018   0.28721   0.31682   0.32460
 Alpha virt. eigenvalues --    0.33596   0.33645   0.38724   0.40204   0.42431

 Mulliken charges:
               1
     1  C    0.680180
     2  C   -0.515980
     3  C   -0.761348
     4  H    0.203501
     5  O   -0.606353
 Sum of Mulliken charges =  -1.00000

 Dipole moment (field-independent basis, Debye):
    X=             -4.3197    Y=              1.9324    Z=              0.0007  Tot=              4.7322
 Quadrupole moment (field-independent basis, Debye-Ang):
   XX=            -46.7110   YY=            -30.2343   ZZ=            -27.0857
   XY=             -5.0016   XZ=             -0.0002   YZ=              0.0003

 .6343953\MP4SDQ=-189.6450882\CCSD=-189.6435399\CCSD(T)=-189.6829248\RM
 Normal termination of Gaussian 09 at Sat Mar  9 00:25:13 2019.
