 Gaussian 09, Revision E.01,
 Gaussian 09:  EM64L-G09RevE.01 30-Nov-2015

 --------------------------------------
 #p ccsd(t,maxcyc=200)/6-311++G(3df,2p)
 --------------------------------------

 -------------
 ccsd(t) iener
 -------------
 Symbolic Z-matrix:
 Charge = -1 Multiplicity = 3

                         Standard orientation:
 ---------------------------------------------------------------------
 Center     Atomic      Atomic             Coordinates (Angstroms)
 Number     Number       Type             X           Y           Z
 ---------------------------------------------------------------------
      1          6           0       -0.651726    0.034410   -0.000248
      2          6           0        0.620178    0.005240    0.000065
      3          6           0       -1.955305   -0.130401    0.000094
      4          1           0       -2.817816    0.518856    0.000235
      5          8           0        1.842367    0.003206    0.000037
 ---------------------------------------------------------------------

 SCF Done:  E(UHF) =  -189.001500969     A.U. after   25 cycles
 E2 =    -0.6537928222D+00 EUMP2 =    -0.18965529379154D+03
 CCSD(T)
 CCSD(T)= -0.18971072283D+03

 The electronic state is 3-A.
 Alpha  occ. eigenvalues --  -20.34546 -11.09420 -11.04946 -11.00662  -1.17689
 Alpha  occ. eigenvalues --   -0.84825  -0.73119  -0.48484  -0.44813  -0.39836
 Alpha  occ. eigenvalues --   -0.39072  -0.27044  -0.25036  -0.09496  -0.07459
 Alpha virt. eigenvalues --    0.15707   0.21418   0.23199   0.24559   0.24699
 Alpha virt. eigenvalues --    0.25603   0.28541   0.30973   0.31565   0.33542
 Alpha virt. eigenvalues --    0.33768   0.38861   0.41085   0.43305   0.48797

  Beta  occ. eigenvalues --  -20.32864 -11.07697 -11.02097 -11.01314  -1.13722
  Beta  occ. eigenvalues --   -0.81611  -0.63040  -0.45531  -0.42798  -0.31535
  Beta  occ. eigenvalues --   -0.31462  -0.16525  -0.16051
  Beta virt. eigenvalues --    0.15835   0.21451   0.22163   0.23961   0.24541
  Beta virt. eigenvalues --    0.25709   0.27269   0.29132   0.31614   0.33874
  Beta virt. eigenvalues --    0.33917   0.35005   0.36904   0.38988   0.42471

 Mulliken charges and spin densities:
               1          2
     1  C    0.370950  -0.863929
     2  C    0.152171   0.694406
     3  C   -0.639266   1.955653
     4  H    0.127356  -0.033397
     5  O   -1.011212   0.247267
 Sum of Mulliken charges =  -1.00000   2.00000

 Dipole moment (field-independent basis, Debye):
    X=             -1.1142    Y=              0.6216    Z=              0.0004  Tot=              1.2759
 Quadrupole moment (field-independent basis, Debye-Ang):
   XX=            -41.2110   YY=            -26.8627   ZZ=            -27.3369
   XY=             -2.1559   XZ=             -0.0007   YZ=              0.0002

 DQ=-189.6716163\CCSD=-189.6736623\CCSD(T)=-189.7107228\S2=2.196749\S2-
 Normal termination of Gaussian 09 at Sat Mar  9 01:14:00 2019.
