 Gaussian 09, Revision E.01,
 Gaussian 09:  EM64L-G09RevE.01 30-Nov-2015

 --------------------------------------
 #p ccsd(t,maxcyc=200)/6-311++G(3df,2p)
 --------------------------------------

 -------------
 ccsd(t) iener
 -------------
 Symbolic Z-matrix:
 Charge = -1 Multiplicity = 3

                         Standard orientation:
 ---------------------------------------------------------------------
 Center     Atomic      Atomic             Coordinates (Angstroms)
 Number     Number       Type             X           Y           Z
 ---------------------------------------------------------------------
      1          6           0        0.820318   -0.088226    0.000007
      2          6           0       -0.433402   -0.495849    0.000093
      3          6           0        2.072524    0.213034   -0.000038
      4          1           0       -1.486323    1.093545    0.000399
      5          8           0       -1.658790    0.141588   -0.000096
 ---------------------------------------------------------------------

 SCF Done:  E(UHF) =  -188.943448377     A.U. after   23 cycles
 E2 =    -0.6289041429D+00 EUMP2 =    -0.18957235251963D+03
 CCSD(T)
 CCSD(T)= -0.18963861194D+03

 The electronic state is 3-A.
 Alpha  occ. eigenvalues --  -20.43320 -11.11030 -11.00030 -10.98744  -1.23609
 Alpha  occ. eigenvalues --   -0.83207  -0.71916  -0.58816  -0.44487  -0.44149
 Alpha  occ. eigenvalues --   -0.29181  -0.24232  -0.22045  -0.14192  -0.10109
 Alpha virt. eigenvalues --    0.16178   0.20631   0.24210   0.25126   0.26177
 Alpha virt. eigenvalues --    0.27280   0.28631   0.29853   0.31652   0.32518
 Alpha virt. eigenvalues --    0.33621   0.38763   0.39771   0.42812   0.44175

  Beta  occ. eigenvalues --  -20.42859 -11.06713 -11.00486 -10.97617  -1.21653
  Beta  occ. eigenvalues --   -0.81005  -0.62218  -0.55528  -0.43865  -0.38359
  Beta  occ. eigenvalues --   -0.18771  -0.18555  -0.16617
  Beta virt. eigenvalues --    0.15981   0.20455   0.24378   0.25196   0.25362
  Beta virt. eigenvalues --    0.26607   0.27387   0.27522   0.30590   0.32995
  Beta virt. eigenvalues --    0.34275   0.36179   0.38111   0.39137   0.40724

 Mulliken charges and spin densities:
               1          2
     1  C    0.560169  -1.356664
     2  C   -0.065743   1.789493
     3  C   -0.985997   1.563302
     4  H    0.232597   0.057441
     5  O   -0.741025  -0.053572
 Sum of Mulliken charges =  -1.00000   2.00000

 Dipole moment (field-independent basis, Debye):
    X=             -6.6334    Y=              0.8429    Z=              0.0009  Tot=              6.6867
 Quadrupole moment (field-independent basis, Debye-Ang):
   XX=            -50.8661   YY=            -25.9342   ZZ=            -28.2188
   XY=             -4.7378   XZ=             -0.0010   YZ=              0.0014

 Q=-189.5977008\CCSD=-189.6038443\CCSD(T)=-189.6386119\S2=2.294806\S2-1
 Normal termination of Gaussian 09 at Sat Mar  9 01:06:50 2019.
