 Gaussian 09, Revision E.01,
 Gaussian 09:  EM64L-G09RevE.01 30-Nov-2015

 --------------------------------------
 #p ccsd(t,maxcyc=200)/6-311++G(3df,2p)
 --------------------------------------

 -------------
 ccsd(t) iener
 -------------
 Symbolic Z-matrix:
 Charge = -1 Multiplicity = 1

                         Standard orientation:
 ---------------------------------------------------------------------
 Center     Atomic      Atomic             Coordinates (Angstroms)
 Number     Number       Type             X           Y           Z
 ---------------------------------------------------------------------
      1          6           0       -0.947628   -0.077560   -0.802453
      2          6           0        1.023801    0.084932    0.866549
      3          6           0        0.000459    0.000800    0.000152
      4          6           0        1.957282    0.161873    1.656831
      5          1           0        2.763904    0.216367    2.340420
      6          8           0       -1.870923   -0.154580   -1.583363
 ---------------------------------------------------------------------

 SCF Done:  E(RHF) =  -226.902387012     A.U. after   14 cycles
 E2 =    -0.8537927595D+00 EUMP2 =    -0.22775617977166D+03
 CCSD(T)
 CCSD(T)= -0.22779781300D+03

 The electronic state is 1-A.
 Alpha  occ. eigenvalues --  -20.35850 -11.13074 -11.09220 -11.04241 -11.00716
 Alpha  occ. eigenvalues --   -1.18899  -0.88139  -0.79717  -0.63135  -0.52325
 Alpha  occ. eigenvalues --   -0.47322  -0.38352  -0.38352  -0.27063  -0.27063
 Alpha  occ. eigenvalues --   -0.11233  -0.11233
 Alpha virt. eigenvalues --    0.13516   0.20758   0.23120   0.23121   0.24795
 Alpha virt. eigenvalues --    0.24809   0.24814   0.26313   0.28847   0.31251
 Alpha virt. eigenvalues --    0.31252   0.36222   0.36223   0.37512   0.37877

 Mulliken charges:
               1
     1  C    0.731053
     2  C   -0.721506
     3  C   -0.410710
     4  C    0.158451
     5  H    0.269291
     6  O   -1.026578
 Sum of Mulliken charges =  -1.00000

 Dipole moment (field-independent basis, Debye):
    X=              1.7248    Y=              0.1246    Z=              1.4606  Tot=              2.2636
 Quadrupole moment (field-independent basis, Debye-Ang):
   XX=            -43.4398   YY=            -33.1600   ZZ=            -40.4947
   XY=             -0.9068   XZ=             -8.7632   YZ=             -0.7672

 8\CCSD(T)=-227.797813\RMSD=1.914e-09\PG=C01 [X(C4H1O1)]\\@
 Normal termination of Gaussian 09 at Sat Mar  9 01:10:59 2019.
