 Gaussian 09, Revision E.01,
 Gaussian 09:  EM64L-G09RevE.01 30-Nov-2015

 --------------------------------------
 #p ccsd(t,maxcyc=200)/6-311++G(3df,2p)
 --------------------------------------

 -------------
 ccsd(t) iener
 -------------
 Symbolic Z-matrix:
 Charge = -1 Multiplicity = 1

                         Standard orientation:
 ---------------------------------------------------------------------
 Center     Atomic      Atomic             Coordinates (Angstroms)
 Number     Number       Type             X           Y           Z
 ---------------------------------------------------------------------
      1          6           0       -0.579566    0.953540    0.000098
      2          6           0        0.942784   -0.614674   -0.000073
      3          6           0       -0.376664   -0.941508   -0.000004
      4          6           0       -1.492544   -0.178241   -0.000027
      5          1           0        1.865808   -1.165921    0.000482
      6          8           0        0.896266    0.731403   -0.000055
 ---------------------------------------------------------------------

 SCF Done:  E(RHF) =  -226.687857038     A.U. after   22 cycles
 E2 =    -0.9034383117D+00 EUMP2 =    -0.22759129534930D+03
 CCSD(T)
 CCSD(T)= -0.22763742207D+03

 The electronic state is 1-A.
 Alpha  occ. eigenvalues --  -20.42658 -11.10648 -11.10588 -11.09889 -11.02918
 Alpha  occ. eigenvalues --   -1.24189  -0.90810  -0.76851  -0.56924  -0.51748
 Alpha  occ. eigenvalues --   -0.48376  -0.43156  -0.35038  -0.22354  -0.21616
 Alpha  occ. eigenvalues --   -0.12055  -0.09881
 Alpha virt. eigenvalues --    0.14260   0.19566   0.23506   0.23750   0.23985
 Alpha virt. eigenvalues --    0.24069   0.27404   0.28012   0.28809   0.29953
 Alpha virt. eigenvalues --    0.30106   0.31094   0.31278   0.32068   0.35235

 Mulliken charges:
               1
     1  C   -0.219026
     2  C    0.164652
     3  C    0.223452
     4  C   -0.584677
     5  H    0.161395
     6  O   -0.745795
 Sum of Mulliken charges =  -1.00000

 Dipole moment (field-independent basis, Debye):
    X=              4.7522    Y=             -2.6494    Z=              0.0006  Tot=              5.4409
 Quadrupole moment (field-independent basis, Debye-Ang):
   XX=            -43.7069   YY=            -37.6092   ZZ=            -34.9821
   XY=             -0.5193   XZ=              0.0018   YZ=             -0.0008

 488\CCSD(T)=-227.6374221\RMSD=2.266e-09\PG=C01 [X(C4H1O1)]\\@
 Normal termination of Gaussian 09 at Sat Mar  9 02:05:44 2019.
