 Gaussian 09, Revision E.01,
 Gaussian 09:  EM64L-G09RevE.01 30-Nov-2015

 --------------------------------------
 #p ccsd(t,maxcyc=200)/6-311++G(3df,2p)
 --------------------------------------

 -------------
 ccsd(t) iener
 -------------
 Symbolic Z-matrix:
 Charge = -1 Multiplicity = 3

                         Standard orientation:
 ---------------------------------------------------------------------
 Center     Atomic      Atomic             Coordinates (Angstroms)
 Number     Number       Type             X           Y           Z
 ---------------------------------------------------------------------
      1          6           0        0.061656    0.781956    0.000000
      2          1           0       -0.863191   -0.953995    0.000000
      3          8           0        0.061656   -0.467218    0.000000
 ---------------------------------------------------------------------

 SCF Done:  E(UHF) =  -113.170014692     A.U. after   23 cycles
 E2 =    -0.3733086759D+00 EUMP2 =    -0.11354332336793D+03
 CCSD(T)
 CCSD(T)= -0.11357548684D+03

 The electronic state is 3-A".
 Alpha  occ. eigenvalues --  -20.37384 -10.98951  -1.20331  -0.63046  -0.42935
 Alpha  occ. eigenvalues --   -0.39559  -0.26195  -0.03119   0.01209
 Alpha virt. eigenvalues --    0.17602   0.26888   0.29277   0.29646   0.30260
 Alpha virt. eigenvalues --    0.40726   0.43456   0.45402   0.48866   0.56057
 Alpha virt. eigenvalues --    0.67789   0.71422   0.74596   0.77925   0.83969

  Beta  occ. eigenvalues --  -20.36801 -10.95675  -1.17991  -0.56965  -0.38507
  Beta  occ. eigenvalues --   -0.32285  -0.14482
  Beta virt. eigenvalues --    0.17907   0.26708   0.28026   0.29253   0.30587
  Beta virt. eigenvalues --    0.39043   0.43816   0.44790   0.47965   0.51671
  Beta virt. eigenvalues --    0.52013   0.56940   0.72683   0.76123   0.78092

 Mulliken charges and spin densities:
               1          2
     1  C   -0.789112   2.017936
     2  H    0.118475   0.228395
     3  O   -0.329363  -0.246331
 Sum of Mulliken charges =  -1.00000   2.00000

 Dipole moment (field-independent basis, Debye):
    X=             -1.4375    Y=             -4.9735    Z=              0.0000  Tot=              5.1770
 Quadrupole moment (field-independent basis, Debye-Ang):
   XX=            -16.6498   YY=            -23.2089   ZZ=            -19.7044
   XY=              0.6165   XZ=              0.0000   YZ=              0.0000

 65645\CCSD=-113.5581134\CCSD(T)=-113.5754868\S2=2.031021\S2-1=2.0125\S
 Normal termination of Gaussian 09 at Sat Mar  9 03:00:49 2019.
