 Gaussian 09, Revision E.01,
 Gaussian 09:  EM64L-G09RevE.01 30-Nov-2015

 --------------------------------------
 #p ccsd(t,maxcyc=200)/6-311++G(3df,2p)
 --------------------------------------

 -------------
 ccsd(t) iener
 -------------
 Symbolic Z-matrix:
 Charge = -1 Multiplicity = 1

                         Standard orientation:
 ---------------------------------------------------------------------
 Center     Atomic      Atomic             Coordinates (Angstroms)
 Number     Number       Type             X           Y           Z
 ---------------------------------------------------------------------
      1          6           0        0.077946    0.622655    0.000000
      2          1           0       -1.091249    1.060343    0.000000
      3          8           0        0.077946   -0.599534    0.000000
 ---------------------------------------------------------------------

 SCF Done:  E(RHF) =  -113.260350978     A.U. after   14 cycles
 E2 =    -0.4022266259D+00 EUMP2 =    -0.11366257760344D+03
 CCSD(T)
 CCSD(T)= -0.11368962429D+03

 The electronic state is 1-A'.
 Alpha  occ. eigenvalues --  -20.30413 -11.04371  -1.12643  -0.51118  -0.36581
 Alpha  occ. eigenvalues --   -0.28953  -0.27232  -0.04050
 Alpha virt. eigenvalues --    0.19575   0.25021   0.26218   0.28726   0.33433
 Alpha virt. eigenvalues --    0.41214   0.44780   0.47730   0.49015   0.49735
 Alpha virt. eigenvalues --    0.54559   0.67784   0.72273   0.74920   0.81271

 Mulliken charges:
               1
     1  C   -0.125082
     2  H   -0.232565
     3  O   -0.642353
 Sum of Mulliken charges =  -1.00000

 Dipole moment (field-independent basis, Debye):
    X=             -0.4578    Y=             -1.4966    Z=              0.0000  Tot=              1.5651
 Quadrupole moment (field-independent basis, Debye-Ang):
   XX=            -19.7161   YY=            -21.0989   ZZ=            -14.7000
   XY=             -0.3846   XZ=              0.0000   YZ=              0.0000

 Q=-113.6722769\CCSD=-113.6701598\CCSD(T)=-113.6896243\RMSD=6.017e-09\P
 Normal termination of Gaussian 09 at Sat Mar  9 03:00:02 2019.
