 Gaussian 09, Revision E.01,
 Gaussian 09:  EM64L-G09RevE.01 30-Nov-2015

 --------------------------------------
 #p ccsd(t,maxcyc=200)/6-311++G(3df,2p)
 --------------------------------------

 -------------
 ccsd(t) iener
 -------------
 Symbolic Z-matrix:
 Charge = -1 Multiplicity = 3

                         Standard orientation:
 ---------------------------------------------------------------------
 Center     Atomic      Atomic             Coordinates (Angstroms)
 Number     Number       Type             X           Y           Z
 ---------------------------------------------------------------------
      1          6           0        0.060252    0.621684    0.000000
      2          1           0       -0.843530    1.275064    0.000000
      3          8           0        0.060252   -0.625646    0.000000
 ---------------------------------------------------------------------

 SCF Done:  E(UHF) =  -113.239150242     A.U. after   17 cycles
 E2 =    -0.3829498117D+00 EUMP2 =    -0.11362210005414D+03
 CCSD(T)
 CCSD(T)= -0.11364880761D+03

 The electronic state is 3-A".
 Alpha  occ. eigenvalues --  -20.29132 -11.02842  -1.11760  -0.58510  -0.38599
 Alpha  occ. eigenvalues --   -0.33643  -0.32220  -0.10130  -0.00498
 Alpha virt. eigenvalues --    0.18295   0.25173   0.27598   0.29157   0.32876
 Alpha virt. eigenvalues --    0.45627   0.45717   0.49147   0.50889   0.54581
 Alpha virt. eigenvalues --    0.66305   0.69936   0.71906   0.78759   0.79806

  Beta  occ. eigenvalues --  -20.26362 -10.99887  -1.04734  -0.47269  -0.33154
  Beta  occ. eigenvalues --   -0.20210  -0.18716
  Beta virt. eigenvalues --    0.18617   0.25155   0.26553   0.27343   0.32881
  Beta virt. eigenvalues --    0.40896   0.45681   0.46169   0.49663   0.51971
  Beta virt. eigenvalues --    0.52753   0.55493   0.70179   0.73390   0.75349

 Mulliken charges and spin densities:
               1          2
     1  C   -0.284928   1.610332
     2  H    0.029865   0.100012
     3  O   -0.744937   0.289656
 Sum of Mulliken charges =  -1.00000   2.00000

 Dipole moment (field-independent basis, Debye):
    X=             -0.9367    Y=             -0.1461    Z=              0.0000  Tot=              0.9480
 Quadrupole moment (field-independent basis, Debye-Ang):
   XX=            -15.8162   YY=            -19.3295   ZZ=            -18.2137
   XY=             -0.7298   XZ=              0.0000   YZ=              0.0000

 14249\CCSD=-113.6308399\CCSD(T)=-113.6488076\S2=2.029121\S2-1=2.00922\
 Normal termination of Gaussian 09 at Sat Mar  9 03:00:36 2019.
