 Gaussian 09, Revision E.01,
 Gaussian 09:  EM64L-G09RevE.01 30-Nov-2015

 --------------------------------------
 #p ccsd(t,maxcyc=200)/6-311++G(3df,2p)
 --------------------------------------

 -------------
 ccsd(t) iener
 -------------
 Symbolic Z-matrix:
 Charge = -1 Multiplicity = 1

                         Standard orientation:
 ---------------------------------------------------------------------
 Center     Atomic      Atomic             Coordinates (Angstroms)
 Number     Number       Type             X           Y           Z
 ---------------------------------------------------------------------
      1          6           0        0.082221    0.602767    0.000000
      2          1           0       -1.151095    1.240566    0.000000
      3          8           0        0.082221   -0.607146    0.000000
 ---------------------------------------------------------------------

 SCF Done:  E(RHF) =  -113.254312162     A.U. after   14 cycles
 E2 =    -0.4028761506D+00 EUMP2 =    -0.11365718831223D+03
 CCSD(T)
 CCSD(T)= -0.11368500823D+03

 The electronic state is 1-A'.
 Alpha  occ. eigenvalues --  -20.32842 -11.06944  -1.15435  -0.51280  -0.36675
 Alpha  occ. eigenvalues --   -0.30768  -0.29781  -0.03993
 Alpha virt. eigenvalues --    0.20276   0.24568   0.26013   0.28418   0.33272
 Alpha virt. eigenvalues --    0.40358   0.44139   0.46759   0.48886   0.48922
 Alpha virt. eigenvalues --    0.53679   0.67368   0.71030   0.74782   0.78581

 Mulliken charges:
               1
     1  C    0.033768
     2  H   -0.423546
     3  O   -0.610222
 Sum of Mulliken charges =  -1.00000

 Dipole moment (field-independent basis, Debye):
    X=              0.8026    Y=             -2.1833    Z=              0.0000  Tot=              2.3261
 Quadrupole moment (field-independent basis, Debye-Ang):
   XX=            -21.7633   YY=            -22.1510   ZZ=            -14.9089
   XY=              1.7540   XZ=              0.0000   YZ=              0.0000

 DQ=-113.6672978\CCSD=-113.6648285\CCSD(T)=-113.6850082\RMSD=4.586e-09\
 Normal termination of Gaussian 09 at Sat Mar  9 01:14:28 2019.
