 Gaussian 09, Revision E.01,
 Gaussian 09:  EM64L-G09RevE.01 30-Nov-2015

 --------------------------------------
 #p ccsd(t,maxcyc=200)/6-311++G(3df,2p)
 --------------------------------------

 -------------
 ccsd(t) iener
 -------------
 Symbolic Z-matrix:
 Charge = -1 Multiplicity = 3

                         Standard orientation:
 ---------------------------------------------------------------------
 Center     Atomic      Atomic             Coordinates (Angstroms)
 Number     Number       Type             X           Y           Z
 ---------------------------------------------------------------------
      1          1           0        0.000000    0.000000   -0.888894
      2          8           0        0.000000    0.000000    0.111112
 ---------------------------------------------------------------------

 SCF Done:  E(UHF) =  -75.3744823834     A.U. after   13 cycles
 E2 =    -0.2052655580D+00 EUMP2 =    -0.75579747941491D+02
 CCSD(T)
 CCSD(T)= -0.75599941700D+02

 Unable to determine electronic state:  an orbital has unidentified symmetry.
 Alpha  occ. eigenvalues --  -20.44239  -1.18673  -0.48151  -0.46071  -0.36368
 Alpha  occ. eigenvalues --    0.04034
 Alpha virt. eigenvalues --    0.37022   0.37403   0.38967   0.40238   0.46516
 Alpha virt. eigenvalues --    0.84873   0.99441   1.01680   1.12026   1.12076
 Alpha virt. eigenvalues --    1.25400   1.34657   1.39419   1.43193   1.49613

  Beta  occ. eigenvalues --  -20.40004  -1.01961  -0.43492  -0.31441
  Beta virt. eigenvalues --    0.22287   0.26141   0.39195   0.41849   0.44776
  Beta virt. eigenvalues --    0.48825   0.49299   0.86972   1.01991   1.03227
  Beta virt. eigenvalues --    1.16128   1.16184   1.27390   1.41335   1.45083

 Mulliken charges and spin densities:
               1          2
     1  H   -1.092065   1.361845
     2  O    0.092065   0.638155
 Sum of Mulliken charges =  -1.00000   2.00000

 Dipole moment (field-independent basis, Debye):
    X=              0.0000    Y=              0.0000    Z=              4.8034  Tot=              4.8034
 Quadrupole moment (field-independent basis, Debye-Ang):
   XX=            -18.4272   YY=            -19.8137   ZZ=            -25.7706
   XY=              0.0000   XZ=              0.0000   YZ=              0.0000

 Q=-75.5931949\CCSD=-75.5938161\CCSD(T)=-75.5999417\S2=2.006842\S2-1=2.
 Normal termination of Gaussian 09 at Sat Mar  9 03:00:55 2019.
