 Gaussian 09, Revision E.01,
 Gaussian 09:  EM64L-G09RevE.01 30-Nov-2015

 --------------------------------------
 #p ccsd(t,maxcyc=200)/6-311++G(3df,2p)
 --------------------------------------

 -------------
 ccsd(t) iener
 -------------
 Symbolic Z-matrix:
 Charge = -1 Multiplicity = 2

                         Standard orientation:
 ---------------------------------------------------------------------
 Center     Atomic      Atomic             Coordinates (Angstroms)
 Number     Number       Type             X           Y           Z
 ---------------------------------------------------------------------
      1          8           0        0.000000    0.000000    0.000000
 ---------------------------------------------------------------------

 SCF Done:  E(UHF) =  -74.7879792728     A.U. after   11 cycles
 E2 =    -0.2125959026D+00 EUMP2 =    -0.75000575175423D+02
 CCSD(T)
 CCSD(T)= -0.75016905733D+02

 Unable to determine electronic state:  an orbital has unidentified symmetry.
 Alpha  occ. eigenvalues --  -20.21713  -0.90046  -0.23004  -0.13698  -0.13698
 Alpha virt. eigenvalues --    0.45219   0.46655   0.48672   0.48672   1.26474
 Alpha virt. eigenvalues --    1.27436   1.27436   1.30352   1.30352   1.52752
 Alpha virt. eigenvalues --    1.58250   1.58250   1.81615   4.04504   4.06356

  Beta  occ. eigenvalues --  -20.17681  -0.72516  -0.07832  -0.07832
  Beta virt. eigenvalues --    0.38376   0.45919   0.49584   0.49584   0.62866
  Beta virt. eigenvalues --    1.30122   1.30122   1.31434   1.31434   1.31968
  Beta virt. eigenvalues --    1.60843   1.60843   1.68086   1.86445   4.14779

 Mulliken charges and spin densities:
               1          2
     1  O   -1.000000   1.000000
 Sum of Mulliken charges =  -1.00000   1.00000

 Dipole moment (field-independent basis, Debye):
    X=              0.0000    Y=              0.0000    Z=              0.0000  Tot=              0.0000
 Quadrupole moment (field-independent basis, Debye-Ang):
   XX=             -6.8468   YY=             -8.8881   ZZ=             -8.8881
   XY=              0.0000   XZ=             -0.0000   YZ=              0.0000

 19\CCSD(T)=-75.0169057\S2=0.764681\S2-1=0.757156\S2A=0.750159\RMSD=1.8
 Normal termination of Gaussian 09 at Sat Mar  9 03:00:56 2019.
