 Gaussian 09, Revision E.01,
 Gaussian 09:  EM64L-G09RevE.01 30-Nov-2015

 --------------------------------------
 #p ccsd(t,maxcyc=200)/6-311++G(3df,2p)
 --------------------------------------

 -------------
 ccsd(t) iener
 -------------
 Symbolic Z-matrix:
 Charge = -1 Multiplicity = 4

                         Standard orientation:
 ---------------------------------------------------------------------
 Center     Atomic      Atomic             Coordinates (Angstroms)
 Number     Number       Type             X           Y           Z
 ---------------------------------------------------------------------
      1          6           0        0.000000    0.000000    0.000000
 ---------------------------------------------------------------------

 SCF Done:  E(UHF) =  -37.7072371621     A.U. after   10 cycles
 E2 =    -0.9521857430D-01 EUMP2 =    -0.37802455736438D+02
 CCSD(T)
 CCSD(T)= -0.37822921238D+02

 The electronic state is 4-A1G.
 Alpha  occ. eigenvalues --  -10.97452  -0.52477  -0.07754  -0.07754  -0.07754
 Alpha virt. eigenvalues --    0.28949   0.30798   0.30798   0.30798   0.69947
 Alpha virt. eigenvalues --    0.69947   0.69947   0.69947   0.69947   0.97551
 Alpha virt. eigenvalues --    0.97551   0.97551   1.09813   2.12290   2.12290

  Beta  occ. eigenvalues --  -10.92494  -0.21202
  Beta virt. eigenvalues --    0.27498   0.27498   0.27498   0.32085   0.49678
  Beta virt. eigenvalues --    0.49678   0.49678   0.76588   0.76588   0.76588
  Beta virt. eigenvalues --    0.76588   0.76588   1.10872   1.10872   1.10872

 Mulliken charges and spin densities:
               1          2
     1  C   -1.000000   3.000000
 Sum of Mulliken charges =  -1.00000   3.00000

 Dipole moment (field-independent basis, Debye):
    X=              0.0000    Y=              0.0000    Z=              0.0000  Tot=              0.0000
 Quadrupole moment (field-independent basis, Debye-Ang):
   XX=            -11.5417   YY=            -11.5417   ZZ=            -11.5417
   XY=             -0.0000   XZ=             -0.0000   YZ=              0.0000

 =-37.8186231\CCSD(T)=-37.8229212\S2=3.756883\S2-1=3.754252\S2A=3.75\RM
 Normal termination of Gaussian 09 at Mon Mar 11 21:42:41 2019.
