 Gaussian 09, Revision E.01,
 Gaussian 09:  EM64L-G09RevE.01 30-Nov-2015

 --------------------------------------
 #p ccsd(t,maxcyc=200)/6-311++G(3df,2p)
 --------------------------------------

 -------------
 ccsd(t) iener
 -------------
 Symbolic Z-matrix:
 Charge = -1 Multiplicity = 2

                         Standard orientation:
 ---------------------------------------------------------------------
 Center     Atomic      Atomic             Coordinates (Angstroms)
 Number     Number       Type             X           Y           Z
 ---------------------------------------------------------------------
      1          6           0        0.000000    0.000000    0.000000
 ---------------------------------------------------------------------

 SCF Done:  E(UHF) =  -37.6270614690     A.U. after   18 cycles
 E2 =    -0.9898573517D-01 EUMP2 =    -0.37726047204145D+02
 CCSD(T)
 CCSD(T)= -0.37764493407D+02

 Unable to determine electronic state:  an orbital has unidentified symmetry.
 Alpha  occ. eigenvalues --  -11.05385  -0.51738  -0.14188  -0.10145
 Alpha virt. eigenvalues --    0.23885   0.29024   0.29469   0.31193   0.37184
 Alpha virt. eigenvalues --    0.68535   0.68538   0.69899   0.70607   0.70882
 Alpha virt. eigenvalues --    0.92945   0.95904   0.98602   1.06928   2.07503

  Beta  occ. eigenvalues --  -11.01894  -0.34306   0.04503
  Beta virt. eigenvalues --    0.23908   0.25542   0.28483   0.35900   0.39422
  Beta virt. eigenvalues --    0.44378   0.69961   0.70119   0.71187   0.72202
  Beta virt. eigenvalues --    0.72437   1.00588   1.03079   1.05308   1.11852

 Mulliken charges and spin densities:
               1          2
     1  C   -1.000000   1.000000
 Sum of Mulliken charges =  -1.00000   1.00000

 Dipole moment (field-independent basis, Debye):
    X=              0.0000    Y=              0.0000    Z=              0.0000  Tot=              0.0000
 Quadrupole moment (field-independent basis, Debye-Ang):
   XX=            -21.3886   YY=            -12.5481   ZZ=            -10.0243
   XY=             -0.0000   XZ=              0.0000   YZ=             -0.0000

 Normal termination of Gaussian 09 at Mon Mar 11 21:42:42 2019.
