 Gaussian 09, Revision E.01,
 Gaussian 09:  EM64L-G09RevE.01 30-Nov-2015

 --------------------------------------
 #p ccsd(t,maxcyc=200)/6-311++G(3df,2p)
 --------------------------------------

 -------------
 ccsd(t) iener
 -------------
 Symbolic Z-matrix:
 Charge = -1 Multiplicity = 4

                         Standard orientation:
 ---------------------------------------------------------------------
 Center     Atomic      Atomic             Coordinates (Angstroms)
 Number     Number       Type             X           Y           Z
 ---------------------------------------------------------------------
      1          6           0        0.000000    0.000000    0.713510
      2          6           0        0.000000    0.000000   -0.713510
 ---------------------------------------------------------------------

 SCF Done:  E(UHF) =  -75.4229804951     A.U. after   14 cycles
 E2 =    -0.2546277435D+00 EUMP2 =    -0.75677608238678D+02
 CCSD(T)
 CCSD(T)= -0.75717535478D+02

 Unable to determine electronic state:  an orbital has unidentified symmetry.
 Alpha  occ. eigenvalues --  -11.05280 -11.05154  -0.78928  -0.41583  -0.24574
 Alpha  occ. eigenvalues --   -0.22916  -0.18345   0.01246
 Alpha virt. eigenvalues --    0.23976   0.26064   0.26653   0.28189   0.29074
 Alpha virt. eigenvalues --    0.31906   0.32097   0.36112   0.38518   0.63129
 Alpha virt. eigenvalues --    0.63388   0.66900   0.71709   0.75260   0.75864

  Beta  occ. eigenvalues --  -11.01999 -11.01949  -0.60470  -0.15936  -0.06787
  Beta virt. eigenvalues --    0.20124   0.22137   0.24637   0.28471   0.28863
  Beta virt. eigenvalues --    0.30625   0.31377   0.34364   0.34436   0.37046
  Beta virt. eigenvalues --    0.48367   0.51033   0.66460   0.66483   0.72402

 Mulliken charges and spin densities:
               1          2
     1  C   -0.500000   1.500000
     2  C   -0.500000   1.500000
 Sum of Mulliken charges =  -1.00000   3.00000

 Dipole moment (field-independent basis, Debye):
    X=             -0.0000    Y=             -0.0000    Z=              0.0000  Tot=              0.0000
 Quadrupole moment (field-independent basis, Debye-Ang):
   XX=            -15.0156   YY=            -21.5638   ZZ=            -21.8709
   XY=              0.0000   XZ=              0.0000   YZ=              0.0000

 6978438\CCSD=-75.6991356\CCSD(T)=-75.7175355\S2=3.800456\S2-1=3.773914
 Normal termination of Gaussian 09 at Mon Mar 11 21:42:57 2019.
