 Gaussian 09, Revision E.01,
 Gaussian 09:  EM64L-G09RevE.01 30-Nov-2015

 --------------------------------------
 #p ccsd(t,maxcyc=200)/6-311++G(3df,2p)
 --------------------------------------

 -------------
 ccsd(t) iener
 -------------
 Symbolic Z-matrix:
 Charge = -1 Multiplicity = 2

                         Standard orientation:
 ---------------------------------------------------------------------
 Center     Atomic      Atomic             Coordinates (Angstroms)
 Number     Number       Type             X           Y           Z
 ---------------------------------------------------------------------
      1          6           0        0.000000    0.000000    0.628966
      2          6           0        0.000000    0.000000   -0.628966
 ---------------------------------------------------------------------

 SCF Done:  E(UHF) =  -75.5668164784     A.U. after   14 cycles
 E2 =    -0.3080861161D+00 EUMP2 =    -0.75874902594484D+02
 CCSD(T)
 CCSD(T)= -0.75898297121D+02

 The electronic state is 2-SGG.
 Alpha  occ. eigenvalues --  -11.00444 -11.00136  -0.77869  -0.32161  -0.22730
 Alpha  occ. eigenvalues --   -0.14097  -0.14097
 Alpha virt. eigenvalues --    0.24172   0.26446   0.28623   0.28623   0.29451
 Alpha virt. eigenvalues --    0.29451   0.32499   0.36509   0.47438   0.47438
 Alpha virt. eigenvalues --    0.66689   0.66689   0.71344   0.71628   0.78506

  Beta  occ. eigenvalues --  -10.99007 -10.98813  -0.69465  -0.15978  -0.12837
  Beta  occ. eigenvalues --   -0.12837
  Beta virt. eigenvalues --    0.19776   0.24521   0.28802   0.28802   0.29619
  Beta virt. eigenvalues --    0.29619   0.31037   0.34742   0.36880   0.49540
  Beta virt. eigenvalues --    0.49540   0.66591   0.66591   0.72797   0.73892

 Mulliken charges and spin densities:
               1          2
     1  C   -0.500000   0.500000
     2  C   -0.500000   0.500000
 Sum of Mulliken charges =  -1.00000   1.00000

 Dipole moment (field-independent basis, Debye):
    X=             -0.0000    Y=              0.0000    Z=              0.0000  Tot=              0.0000
 Quadrupole moment (field-independent basis, Debye-Ang):
   XX=            -17.0391   YY=            -17.0391   ZZ=            -18.3820
   XY=             -0.0000   XZ=              0.0000   YZ=              0.0000

 4\MP4SDQ=-75.8770066\CCSD=-75.8755857\CCSD(T)=-75.8982971\S2=0.770269\
 Normal termination of Gaussian 09 at Mon Mar 11 21:42:55 2019.
