 Gaussian 09, Revision E.01,
 Gaussian 09:  EM64L-G09RevE.01 30-Nov-2015

 --------------------------------------
 #p ccsd(t,maxcyc=200)/6-311++G(3df,2p)
 --------------------------------------

 -------------
 ccsd(t) iener
 -------------
 Symbolic Z-matrix:
 Charge = -1 Multiplicity = 2

                         Standard orientation:
 ---------------------------------------------------------------------
 Center     Atomic      Atomic             Coordinates (Angstroms)
 Number     Number       Type             X           Y           Z
 ---------------------------------------------------------------------
      1          6           0        0.000000    0.000000    0.098400
      2          6           0        0.000000    0.000000    1.404492
      3          8           0       -0.000000   -0.000000   -1.127169
 ---------------------------------------------------------------------

 SCF Done:  E(UHF) =  -150.550984990     A.U. after   20 cycles
 E2 =    -0.5128353039D+00 EUMP2 =    -0.15106382029362D+03
 CCSD(T)
 CCSD(T)= -0.15109884293D+03

 Unable to determine electronic state:  an orbital has unidentified symmetry.
 Alpha  occ. eigenvalues --  -20.37913 -11.09536 -11.00593  -1.19811  -0.78561
 Alpha  occ. eigenvalues --   -0.49284  -0.40523  -0.38004  -0.22525  -0.15979
 Alpha  occ. eigenvalues --   -0.11856
 Alpha virt. eigenvalues --    0.21345   0.24798   0.27194   0.27803   0.29000
 Alpha virt. eigenvalues --    0.29482   0.30394   0.35855   0.45129   0.46776
 Alpha virt. eigenvalues --    0.48029   0.50371   0.51572   0.52330   0.62062

  Beta  occ. eigenvalues --  -20.36488 -11.09630 -10.99301  -1.16617  -0.71725
  Beta  occ. eigenvalues --   -0.47328  -0.37444  -0.29566  -0.19175  -0.09771
  Beta virt. eigenvalues --    0.21382   0.23614   0.24960   0.27828   0.28325
  Beta virt. eigenvalues --    0.29392   0.30579   0.32463   0.36009   0.47086
  Beta virt. eigenvalues --    0.48358   0.48785   0.51951   0.52387   0.57012

 Mulliken charges and spin densities:
               1          2
     1  C    0.572540  -0.038199
     2  C   -0.740857   0.758549
     3  O   -0.831683   0.279650
 Sum of Mulliken charges =  -1.00000   1.00000

 Dipole moment (field-independent basis, Debye):
    X=              0.0000    Y=             -0.0000    Z=             -3.2940  Tot=              3.2940
 Quadrupole moment (field-independent basis, Debye-Ang):
   XX=            -19.3896   YY=            -21.7494   ZZ=            -34.6166
   XY=             -0.0000   XZ=              0.0000   YZ=             -0.0000

 676\CCSD(T)=-151.0988429\S2=0.780834\S2-1=0.763611\S2A=0.750525\RMSD=4
 Normal termination of Gaussian 09 at Fri Mar  8 05:39:47 2019.
