 Gaussian 09, Revision E.01,
 Gaussian 09:  EM64L-G09RevE.01 30-Nov-2015

 --------------------------------------
 #p ccsd(t,maxcyc=200)/6-311++G(3df,2p)
 --------------------------------------

 -------------
 ccsd(t) iener
 -------------
 Symbolic Z-matrix:
 Charge = -1 Multiplicity = 2

                         Standard orientation:
 ---------------------------------------------------------------------
 Center     Atomic      Atomic             Coordinates (Angstroms)
 Number     Number       Type             X           Y           Z
 ---------------------------------------------------------------------
      1          6           0       -0.000000   -0.000000    1.379548
      2          6           0       -0.000000    0.000000    0.097580
      3          8           0        0.000000   -0.000000   -1.107846
 ---------------------------------------------------------------------

 SCF Done:  E(UHF) =  -150.553504492     A.U. after   20 cycles
 E2 =    -0.5092973861D+00 EUMP2 =    -0.15106280187803D+03
 CCSD(T)
 CCSD(T)= -0.15109760695D+03

 Unable to determine electronic state:  an orbital has unidentified symmetry.
 Alpha  occ. eigenvalues --  -20.37690 -11.08607 -10.99579  -1.20930  -0.79195
 Alpha  occ. eigenvalues --   -0.49668  -0.41232  -0.38729  -0.21995  -0.15978
 Alpha  occ. eigenvalues --   -0.11809
 Alpha virt. eigenvalues --    0.21296   0.24869   0.27109   0.27705   0.29103
 Alpha virt. eigenvalues --    0.29588   0.30359   0.35872   0.45979   0.47375
 Alpha virt. eigenvalues --    0.48102   0.50761   0.52216   0.52393   0.62210

  Beta  occ. eigenvalues --  -20.36259 -11.08668 -10.98311  -1.17762  -0.72276
  Beta  occ. eigenvalues --   -0.47697  -0.38059  -0.30275  -0.18637  -0.09742
  Beta virt. eigenvalues --    0.21333   0.23792   0.25030   0.27732   0.28238
  Beta virt. eigenvalues --    0.29515   0.30528   0.32668   0.36025   0.47578
  Beta virt. eigenvalues --    0.48422   0.48892   0.52453   0.52685   0.57995

 Mulliken charges and spin densities:
               1          2
     1  C   -0.778995   0.743909
     2  C    0.622390  -0.025678
     3  O   -0.843395   0.281769
 Sum of Mulliken charges =  -1.00000   1.00000

 Dipole moment (field-independent basis, Debye):
    X=              0.0000    Y=              0.0000    Z=             -3.4292  Tot=              3.4292
 Quadrupole moment (field-independent basis, Debye-Ang):
   XX=            -19.2681   YY=            -21.6141   ZZ=            -34.4789
   XY=              0.0000   XZ=              0.0000   YZ=              0.0000

 3734\CCSD(T)=-151.0976069\S2=0.778372\S2-1=0.761759\S2A=0.750427\RMSD=
 Normal termination of Gaussian 09 at Fri Mar  8 05:40:01 2019.
