 Gaussian 09, Revision E.01,
 Gaussian 09:  EM64L-G09RevE.01 30-Nov-2015

 --------------------------------------
 #p ccsd(t,maxcyc=200)/6-311++G(3df,2p)
 --------------------------------------

 -------------
 ccsd(t) iener
 -------------
 Symbolic Z-matrix:
 Charge = -1 Multiplicity = 4

                         Standard orientation:
 ---------------------------------------------------------------------
 Center     Atomic      Atomic             Coordinates (Angstroms)
 Number     Number       Type             X           Y           Z
 ---------------------------------------------------------------------
      1          6           0        1.211376   -0.221151   -0.000000
      2          6           0       -1.211376   -0.222205   -0.000000
      3          8           0       -0.000000    0.332517    0.000000
 ---------------------------------------------------------------------

 SCF Done:  E(UHF) =  -150.417201158     A.U. after   20 cycles
 E2 =    -0.4604717804D+00 EUMP2 =    -0.15087767293794D+03
 CCSD(T)
 CCSD(T)= -0.15092958087D+03

 The electronic state is 4-A".
 Alpha  occ. eigenvalues --  -20.45390 -11.06821 -11.06783  -1.25712  -0.79099
 Alpha  occ. eigenvalues --   -0.53547  -0.38551  -0.37730  -0.30523  -0.14098
 Alpha  occ. eigenvalues --   -0.11104  -0.08194
 Alpha virt. eigenvalues --    0.22896   0.23569   0.25097   0.25726   0.27723
 Alpha virt. eigenvalues --    0.28757   0.29906   0.33906   0.34128   0.46568
 Alpha virt. eigenvalues --    0.47505   0.50668   0.57915   0.59699   0.62851

  Beta  occ. eigenvalues --  -20.46729 -11.03176 -11.03133  -1.26510  -0.69307
  Beta  occ. eigenvalues --   -0.45012  -0.44595  -0.24648  -0.21049
  Beta virt. eigenvalues --    0.23709   0.23729   0.24825   0.25299   0.26613
  Beta virt. eigenvalues --    0.26812   0.27621   0.34184   0.40512   0.42445
  Beta virt. eigenvalues --    0.43159   0.44470   0.47659   0.48505   0.52155

 Mulliken charges and spin densities:
               1          2
     1  C   -0.402984   1.779177
     2  C   -0.404897   1.782577
     3  O   -0.192119  -0.561753
 Sum of Mulliken charges =  -1.00000   3.00000

 Dipole moment (field-independent basis, Debye):
    X=              0.0100    Y=              1.5390    Z=              0.0000  Tot=              1.5391
 Quadrupole moment (field-independent basis, Debye-Ang):
   XX=            -34.9722   YY=            -23.2003   ZZ=            -20.6789
   XY=             -0.0083   XZ=             -0.0000   YZ=             -0.0000

 =-150.9016195\CCSD=-150.904823\CCSD(T)=-150.9295809\S2=3.906225\S2-1=3
 Normal termination of Gaussian 09 at Fri Mar  8 05:41:34 2019.
