 Gaussian 09, Revision E.01,
 Gaussian 09:  EM64L-G09RevE.01 30-Nov-2015

 --------------------------------------
 #p ccsd(t,maxcyc=200)/6-311++G(3df,2p)
 --------------------------------------

 -------------
 ccsd(t) iener
 -------------
 Symbolic Z-matrix:
 Charge = -1 Multiplicity = 4

                         Standard orientation:
 ---------------------------------------------------------------------
 Center     Atomic      Atomic             Coordinates (Angstroms)
 Number     Number       Type             X           Y           Z
 ---------------------------------------------------------------------
      1          6           0        0.760045    0.025724    0.000001
      2          6           0        2.067313   -0.013198   -0.000003
      3          6           0       -0.510615   -0.011437    0.000007
      4          8           0       -1.737558   -0.000817   -0.000004
 ---------------------------------------------------------------------

 SCF Done:  E(UHF) =  -188.345126842     A.U. after   21 cycles
 E2 =    -0.6057415492D+00 EUMP2 =    -0.18895086839112D+03
 CCSD(T)
 CCSD(T)= -0.18900350215D+03

 The electronic state is 4-A.
 Alpha  occ. eigenvalues --  -20.33579 -11.08915 -11.08729 -11.01361  -1.16552
 Alpha  occ. eigenvalues --   -0.85496  -0.73044  -0.45812  -0.40811  -0.38848
 Alpha  occ. eigenvalues --   -0.38841  -0.27318  -0.27313  -0.08189  -0.08173
 Alpha virt. eigenvalues --    0.19378   0.21632   0.24421   0.24433   0.25223
 Alpha virt. eigenvalues --    0.27721   0.28473   0.29848   0.33992   0.34006
 Alpha virt. eigenvalues --    0.38754   0.44112   0.49010   0.50283   0.50458

  Beta  occ. eigenvalues --  -20.31899 -11.06827 -11.02568 -11.02187  -1.12531
  Beta  occ. eigenvalues --   -0.80362  -0.59116  -0.42885  -0.30788  -0.30784
  Beta  occ. eigenvalues --   -0.16439  -0.16424
  Beta virt. eigenvalues --    0.17203   0.21580   0.23946   0.23959   0.24555
  Beta virt. eigenvalues --    0.25683   0.27588   0.27700   0.32826   0.34230
  Beta virt. eigenvalues --    0.34256   0.38197   0.38312   0.39464   0.45155

 Mulliken charges and spin densities:
               1          2
     1  C    0.358838  -0.949669
     2  C   -0.257261   2.959664
     3  C   -0.086442   0.748784
     4  O   -1.015134   0.241222
 Sum of Mulliken charges =  -1.00000   3.00000

 Dipole moment (field-independent basis, Debye):
    X=              1.1704    Y=             -0.0388    Z=              0.0000  Tot=              1.1710
 Quadrupole moment (field-independent basis, Debye-Ang):
   XX=            -39.8432   YY=            -26.2316   ZZ=            -26.2323
   XY=             -0.0279   XZ=             -0.0000   YZ=             -0.0000

 Normal termination of Gaussian 09 at Fri Mar  8 07:24:22 2019.
