 Gaussian 09, Revision E.01,
 Gaussian 09:  EM64L-G09RevE.01 30-Nov-2015

 --------------------------------------
 #p ccsd(t,maxcyc=200)/6-311++G(3df,2p)
 --------------------------------------

 -------------
 ccsd(t) iener
 -------------
 Symbolic Z-matrix:
 Charge = -1 Multiplicity = 4

                         Standard orientation:
 ---------------------------------------------------------------------
 Center     Atomic      Atomic             Coordinates (Angstroms)
 Number     Number       Type             X           Y           Z
 ---------------------------------------------------------------------
      1          6           0       -0.982853   -0.835681   -0.000178
      2          6           0        0.258080   -0.159390    0.000504
      3          6           0        1.658466   -0.035357   -0.000226
      4          8           0       -0.700269    0.772821   -0.000074
 ---------------------------------------------------------------------

 SCF Done:  E(UHF) =  -188.271212109     A.U. after   24 cycles
 E2 =    -0.6099281898D+00 EUMP2 =    -0.18888114029879D+03
 CCSD(T)
 CCSD(T)= -0.18894007785D+03

 The electronic state is 4-A.
 Alpha  occ. eigenvalues --  -20.46232 -11.12966 -11.09028 -11.04006  -1.28589
 Alpha  occ. eigenvalues --   -0.82540  -0.73608  -0.52290  -0.50052  -0.35908
 Alpha  occ. eigenvalues --   -0.29097  -0.25056  -0.23871  -0.15152  -0.14220
 Alpha virt. eigenvalues --    0.22453   0.23206   0.23738   0.25090   0.25153
 Alpha virt. eigenvalues --    0.27823   0.29062   0.31170   0.31615   0.33498
 Alpha virt. eigenvalues --    0.36902   0.38544   0.39814   0.41857   0.44488

  Beta  occ. eigenvalues --  -20.43128 -11.13577 -11.06939 -11.00711  -1.21304
  Beta  occ. eigenvalues --   -0.72871  -0.63985  -0.46049  -0.30966  -0.30614
  Beta  occ. eigenvalues --   -0.22452  -0.18121
  Beta virt. eigenvalues --    0.21811   0.22348   0.22960   0.23958   0.25167
  Beta virt. eigenvalues --    0.25296   0.26035   0.28290   0.31654   0.32166
  Beta virt. eigenvalues --    0.34004   0.36529   0.38003   0.38724   0.39804

 Mulliken charges and spin densities:
               1          2
     1  C   -0.461260   1.069269
     2  C    0.943472  -0.336205
     3  C   -0.873591   1.737864
     4  O   -0.608621   0.529072
 Sum of Mulliken charges =  -1.00000   3.00000

 Dipole moment (field-independent basis, Debye):
    X=             -2.0883    Y=              0.9155    Z=              0.0025  Tot=              2.2802
 Quadrupole moment (field-independent basis, Debye-Ang):
   XX=            -44.6349   YY=            -30.2250   ZZ=            -26.1427
   XY=             -2.8694   XZ=              0.0027   YZ=             -0.0007

 Normal termination of Gaussian 09 at Fri Mar  8 06:36:34 2019.
