 Gaussian 09, Revision E.01,
 Gaussian 09:  EM64L-G09RevE.01 30-Nov-2015

 --------------------------------------
 #p ccsd(t,maxcyc=200)/6-311++G(3df,2p)
 --------------------------------------

 -------------
 ccsd(t) iener
 -------------
 Symbolic Z-matrix:
 Charge = -1 Multiplicity = 2

                         Standard orientation:
 ---------------------------------------------------------------------
 Center     Atomic      Atomic             Coordinates (Angstroms)
 Number     Number       Type             X           Y           Z
 ---------------------------------------------------------------------
      1          6           0       -0.939865   -1.782672    0.000000
      2          6           0       -0.378731   -0.655658    0.000000
      3          6           0       -0.000000    0.648406    0.000000
      4          8           0        0.988947    1.342443   -0.000000
 ---------------------------------------------------------------------

 SCF Done:  E(UHF) =  -188.415883025     A.U. after   31 cycles
 E2 =    -0.6511679552D+00 EUMP2 =    -0.18906705098058D+03
 CCSD(T)
 CCSD(T)= -0.18911760894D+03

 The electronic state is 2-A'.
 Alpha  occ. eigenvalues --  -20.39752 -11.15982 -11.03677 -11.00318  -1.23041
 Alpha  occ. eigenvalues --   -0.84026  -0.69327  -0.51331  -0.45314  -0.38142
 Alpha  occ. eigenvalues --   -0.25185  -0.22630  -0.18164  -0.13446
 Alpha virt. eigenvalues --    0.20359   0.23046   0.23928   0.24432   0.24813
 Alpha virt. eigenvalues --    0.25329   0.27863   0.31063   0.32306   0.33114
 Alpha virt. eigenvalues --    0.33652   0.38993   0.42128   0.43772   0.44910

  Beta  occ. eigenvalues --  -20.39020 -11.13924 -11.02446 -11.01072  -1.20913
  Beta  occ. eigenvalues --   -0.83153  -0.64059  -0.48939  -0.38904  -0.35539
  Beta  occ. eigenvalues --   -0.21663  -0.19004  -0.18495
  Beta virt. eigenvalues --    0.20094   0.23167   0.24050   0.24448   0.24962
  Beta virt. eigenvalues --    0.25736   0.26117   0.30143   0.32765   0.33682
  Beta virt. eigenvalues --    0.34019   0.35872   0.39161   0.43184   0.44147

 Mulliken charges and spin densities:
               1          2
     1  C   -0.896086   0.771286
     2  C    0.662834  -0.819756
     3  C    0.034880   1.004160
     4  O   -0.801627   0.044309
 Sum of Mulliken charges =  -1.00000   1.00000

 Dipole moment (field-independent basis, Debye):
    X=              1.2163    Y=              3.3417    Z=              0.0000  Tot=              3.5562
 Quadrupole moment (field-independent basis, Debye-Ang):
   XX=            -32.3588   YY=            -43.1983   ZZ=            -25.3684
   XY=             -9.1266   XZ=              0.0000   YZ=             -0.0000

 571\CCSD=-189.0780802\CCSD(T)=-189.1176089\S2=0.880134\S2-1=0.835085\S
 Normal termination of Gaussian 09 at Fri Mar  8 06:26:10 2019.
