 Gaussian 09, Revision E.01,
 Gaussian 09:  EM64L-G09RevE.01 30-Nov-2015

 --------------------------------------
 #p ccsd(t,maxcyc=200)/6-311++G(3df,2p)
 --------------------------------------

 -------------
 ccsd(t) iener
 -------------
 Symbolic Z-matrix:
 Charge = -1 Multiplicity = 2

                         Standard orientation:
 ---------------------------------------------------------------------
 Center     Atomic      Atomic             Coordinates (Angstroms)
 Number     Number       Type             X           Y           Z
 ---------------------------------------------------------------------
      1          6           0        0.758916   -0.027709    0.000037
      2          6           0        2.018453   -0.076751   -0.000022
      3          6           0       -0.555198    0.314948   -0.000006
      4          8           0       -1.666628   -0.157866   -0.000006
 ---------------------------------------------------------------------

 SCF Done:  E(UHF) =  -188.416084539     A.U. after   31 cycles
 E2 =    -0.6503892521D+00 EUMP2 =    -0.18906647379112D+03
 CCSD(T)
 CCSD(T)= -0.18911761949D+03

 The electronic state is 2-A.
 Alpha  occ. eigenvalues --  -20.39751 -11.15954 -11.03704 -11.00364  -1.23035
 Alpha  occ. eigenvalues --   -0.84044  -0.69269  -0.51305  -0.45298  -0.38121
 Alpha  occ. eigenvalues --   -0.25229  -0.22672  -0.18164  -0.13283
 Alpha virt. eigenvalues --    0.20371   0.23147   0.23932   0.24466   0.24844
 Alpha virt. eigenvalues --    0.25170   0.27764   0.31056   0.32500   0.33121
 Alpha virt. eigenvalues --    0.33494   0.38826   0.41843   0.43364   0.44909

  Beta  occ. eigenvalues --  -20.39038 -11.13906 -11.02429 -11.01167  -1.20949
  Beta  occ. eigenvalues --   -0.83204  -0.63957  -0.48983  -0.38942  -0.35618
  Beta  occ. eigenvalues --   -0.21653  -0.19040  -0.18613
  Beta virt. eigenvalues --    0.20127   0.23278   0.24048   0.24467   0.24872
  Beta virt. eigenvalues --    0.25776   0.26078   0.30281   0.32740   0.33564
  Beta virt. eigenvalues --    0.33912   0.35965   0.39043   0.42592   0.44102

 Mulliken charges and spin densities:
               1          2
     1  C    0.613701  -0.852424
     2  C   -0.879638   0.796408
     3  C    0.069297   1.016494
     4  O   -0.803360   0.039522
 Sum of Mulliken charges =  -1.00000   1.00000

 Dipole moment (field-independent basis, Debye):
    X=             -3.4992    Y=              0.5862    Z=              0.0000  Tot=              3.5479
 Quadrupole moment (field-independent basis, Debye-Ang):
   XX=            -48.5293   YY=            -27.1248   ZZ=            -25.3712
   XY=              0.2479   XZ=              0.0001   YZ=              0.0001

 Normal termination of Gaussian 09 at Fri Mar  8 06:34:44 2019.
