 Gaussian 09, Revision E.01,
 Gaussian 09:  EM64L-G09RevE.01 30-Nov-2015

 --------------------------------------
 #p ccsd(t,maxcyc=200)/6-311++G(3df,2p)
 --------------------------------------

 -------------
 ccsd(t) iener
 -------------
 Symbolic Z-matrix:
 Charge = -1 Multiplicity = 2

                         Standard orientation:
 ---------------------------------------------------------------------
 Center     Atomic      Atomic             Coordinates (Angstroms)
 Number     Number       Type             X           Y           Z
 ---------------------------------------------------------------------
      1          6           0       -0.554672    0.313653   -0.000045
      2          6           0        0.758984   -0.027758    0.000266
      3          6           0        2.018636   -0.076402   -0.000162
      4          8           0       -1.667211   -0.157120   -0.000044
 ---------------------------------------------------------------------

 SCF Done:  E(UHF) =  -188.416059596     A.U. after   31 cycles
 E2 =    -0.6503575729D+00 EUMP2 =    -0.18906641716869D+03
 CCSD(T)
 CCSD(T)= -0.18911759147D+03

 The electronic state is 2-A.
 Alpha  occ. eigenvalues --  -20.39742 -11.15941 -11.03714 -11.00367  -1.23008
 Alpha  occ. eigenvalues --   -0.84061  -0.69287  -0.51290  -0.45285  -0.38109
 Alpha  occ. eigenvalues --   -0.25235  -0.22690  -0.18171  -0.13253
 Alpha virt. eigenvalues --    0.20371   0.23143   0.23933   0.24468   0.24838
 Alpha virt. eigenvalues --    0.25170   0.27763   0.31054   0.32501   0.33117
 Alpha virt. eigenvalues --    0.33496   0.38828   0.41846   0.43385   0.44916

  Beta  occ. eigenvalues --  -20.39030 -11.13895 -11.02434 -11.01173  -1.20925
  Beta  occ. eigenvalues --   -0.83227  -0.63972  -0.48979  -0.38933  -0.35617
  Beta  occ. eigenvalues --   -0.21656  -0.19051  -0.18624
  Beta virt. eigenvalues --    0.20129   0.23275   0.24047   0.24466   0.24876
  Beta virt. eigenvalues --    0.25774   0.26077   0.30286   0.32740   0.33565
  Beta virt. eigenvalues --    0.33911   0.35968   0.39044   0.42596   0.44127

 Mulliken charges and spin densities:
               1          2
     1  C    0.068770   1.017688
     2  C    0.616144  -0.855183
     3  C   -0.880860   0.798334
     4  O   -0.804054   0.039160
 Sum of Mulliken charges =  -1.00000   1.00000

 Dipole moment (field-independent basis, Debye):
    X=             -3.4930    Y=              0.5820    Z=              0.0002  Tot=              3.5412
 Quadrupole moment (field-independent basis, Debye-Ang):
   XX=            -48.5375   YY=            -27.1220   ZZ=            -25.3682
   XY=              0.2462   XZ=              0.0007   YZ=              0.0005

 Normal termination of Gaussian 09 at Fri Mar  8 06:42:32 2019.
