 Gaussian 09, Revision E.01,
 Gaussian 09:  EM64L-G09RevE.01 30-Nov-2015

 --------------------------------------
 #p ccsd(t,maxcyc=200)/6-311++G(3df,2p)
 --------------------------------------

 -------------
 ccsd(t) iener
 -------------
 Symbolic Z-matrix:
 Charge = -1 Multiplicity = 2

                         Standard orientation:
 ---------------------------------------------------------------------
 Center     Atomic      Atomic             Coordinates (Angstroms)
 Number     Number       Type             X           Y           Z
 ---------------------------------------------------------------------
      1          6           0        0.778794    1.070429    2.368636
      2          6           0        0.414261    0.569833    1.260122
      3          6           0       -0.328063   -0.450889   -0.997174
      4          6           0        0.032682    0.045371    0.098925
      5          8           0       -0.673255   -0.926058   -2.047882
 ---------------------------------------------------------------------

 SCF Done:  E(UHF) =  -226.275914279     A.U. after   30 cycles
 E2 =    -0.7981447252D+00 EUMP2 =    -0.22707405900378D+03
 CCSD(T)
 CCSD(T)= -0.22713362984D+03

 The electronic state is 2-A.
 Alpha  occ. eigenvalues --  -20.43103 -11.17616 -11.08825 -11.05401 -11.04563
 Alpha  occ. eigenvalues --   -1.26200  -0.91519  -0.82398  -0.64406  -0.53926
 Alpha  occ. eigenvalues --   -0.46619  -0.44104  -0.29965  -0.28218  -0.25770
 Alpha  occ. eigenvalues --   -0.16856  -0.14265
 Alpha virt. eigenvalues --    0.18819   0.22425   0.22760   0.23009   0.25025
 Alpha virt. eigenvalues --    0.25458   0.25786   0.28103   0.30107   0.30890
 Alpha virt. eigenvalues --    0.34417   0.35259   0.37433   0.37629   0.37939

  Beta  occ. eigenvalues --  -20.42109 -11.17989 -11.07740 -11.06182 -11.03044
  Beta  occ. eigenvalues --   -1.24121  -0.89024  -0.78393  -0.62632  -0.52806
  Beta  occ. eigenvalues --   -0.45326  -0.38458  -0.28336  -0.22179  -0.22075
  Beta  occ. eigenvalues --   -0.12263
  Beta virt. eigenvalues --    0.18537   0.18823   0.22553   0.22925   0.22997
  Beta virt. eigenvalues --    0.25039   0.25275   0.25761   0.28293   0.31163
  Beta virt. eigenvalues --    0.31966   0.36617   0.37467   0.37627   0.37860

 Mulliken charges and spin densities:
               1          2
     1  C   -0.682470   0.716829
     2  C    0.078549  -0.242023
     3  C    0.743919  -0.388153
     4  C   -0.209013   0.701762
     5  O   -0.930984   0.211586
 Sum of Mulliken charges =  -1.00000   1.00000

 Dipole moment (field-independent basis, Debye):
    X=             -1.3815    Y=             -1.8983    Z=             -4.2002  Tot=              4.8119
 Quadrupole moment (field-independent basis, Debye-Ang):
   XX=            -33.9452   YY=            -38.0661   ZZ=            -59.8755
   XY=             -3.8468   XZ=             -9.7099   YZ=            -12.6121

 27.0846046\CCSD=-227.0843319\CCSD(T)=-227.1336298\S2=0.927893\S2-1=0.8
 Normal termination of Gaussian 09 at Fri Mar  8 08:30:42 2019.
