 Gaussian 09, Revision E.01,
 Gaussian 09:  EM64L-G09RevE.01 30-Nov-2015

 --------------------------------------
 #p ccsd(t,maxcyc=200)/6-311++G(3df,2p)
 --------------------------------------

 -------------
 ccsd(t) iener
 -------------
 Symbolic Z-matrix:
 Charge = -1 Multiplicity = 2

                         Standard orientation:
 ---------------------------------------------------------------------
 Center     Atomic      Atomic             Coordinates (Angstroms)
 Number     Number       Type             X           Y           Z
 ---------------------------------------------------------------------
      1          6           0        0.000000    0.000000    0.113597
      2          6           0        0.000000    0.000000    1.443732
      3          6           0       -0.000000   -0.000000   -1.142534
      4          6           0        0.000000    0.000000    2.713510
      5          8           0       -0.000000   -0.000000   -2.346229
 ---------------------------------------------------------------------

 SCF Done:  E(UHF) =  -226.275921284     A.U. after   35 cycles
 E2 =    -0.7981785509D+00 EUMP2 =    -0.22707409983517D+03
 CCSD(T)
 CCSD(T)= -0.22713367212D+03

 Unable to determine electronic state:  an orbital has unidentified symmetry.
 Alpha  occ. eigenvalues --  -20.43104 -11.17616 -11.08827 -11.05402 -11.04564
 Alpha  occ. eigenvalues --   -1.26202  -0.91517  -0.82397  -0.64403  -0.53927
 Alpha  occ. eigenvalues --   -0.46620  -0.44105  -0.29964  -0.28216  -0.25770
 Alpha  occ. eigenvalues --   -0.16856  -0.14265
 Alpha virt. eigenvalues --    0.18595   0.22114   0.22427   0.22760   0.23009
 Alpha virt. eigenvalues --    0.25458   0.25787   0.27791   0.30107   0.30890
 Alpha virt. eigenvalues --    0.33162   0.34417   0.35259   0.37433   0.37940

  Beta  occ. eigenvalues --  -20.42110 -11.17989 -11.07741 -11.06183 -11.03044
  Beta  occ. eigenvalues --   -1.24123  -0.89021  -0.78393  -0.62629  -0.52807
  Beta  occ. eigenvalues --   -0.45327  -0.38459  -0.28335  -0.22179  -0.22073
  Beta  occ. eigenvalues --   -0.12263
  Beta virt. eigenvalues --    0.18537   0.18602   0.22116   0.22554   0.22925
  Beta virt. eigenvalues --    0.22996   0.25276   0.25762   0.27909   0.31163
  Beta virt. eigenvalues --    0.31966   0.33285   0.36618   0.37468   0.37860

 Mulliken charges and spin densities:
               1          2
     1  C    0.112196   0.700252
     2  C    0.634201  -0.348220
     3  C    0.384540  -0.377806
     4  C   -1.213282   0.813977
     5  O   -0.917656   0.211797
 Sum of Mulliken charges =  -1.00000   1.00000

 Dipole moment (field-independent basis, Debye):
    X=             -0.0000    Y=             -0.0000    Z=             -4.8125  Tot=              4.8125
 Quadrupole moment (field-independent basis, Debye-Ang):
   XX=            -30.6583   YY=            -32.4610   ZZ=            -68.7658
   XY=              0.0000   XZ=             -0.0000   YZ=             -0.0000

 CCSD=-227.0843704\CCSD(T)=-227.1336721\S2=0.9279\S2-1=0.869798\S2A=0.7
 Normal termination of Gaussian 09 at Fri Mar  8 07:28:53 2019.
