 Gaussian 09, Revision E.01,
 Gaussian 09:  EM64L-G09RevE.01 30-Nov-2015

 --------------------------------------
 #p ccsd(t,maxcyc=200)/6-311++G(3df,2p)
 --------------------------------------

 -------------
 ccsd(t) iener
 -------------
 Symbolic Z-matrix:
 Charge = -1 Multiplicity = 4

                         Standard orientation:
 ---------------------------------------------------------------------
 Center     Atomic      Atomic             Coordinates (Angstroms)
 Number     Number       Type             X           Y           Z
 ---------------------------------------------------------------------
      1          6           0        0.622625   -0.853737    0.157415
      2          6           0        0.622624    0.853757    0.157407
      3          6           0        1.678936    0.000003   -0.183570
      4          6           0       -0.551858   -0.000047   -0.098864
      5          8           0       -1.779245    0.000018   -0.024291
 ---------------------------------------------------------------------

 SCF Done:  E(UHF) =  -226.128301915     A.U. after   25 cycles
 E2 =    -0.8028090371D+00 EUMP2 =    -0.22693111095183D+03
 CCSD(T)
 CCSD(T)= -0.22698375758D+03

 The electronic state is 4-A.
 Alpha  occ. eigenvalues --  -20.34137 -11.15028 -11.09537 -11.09127 -11.09122
 Alpha  occ. eigenvalues --   -1.18232  -1.04961  -0.71320  -0.60171  -0.47560
 Alpha  occ. eigenvalues --   -0.43683  -0.41570  -0.36265  -0.33172  -0.24745
 Alpha  occ. eigenvalues --   -0.23553  -0.12618  -0.08877
 Alpha virt. eigenvalues --    0.20261   0.20957   0.21892   0.23193   0.26615
 Alpha virt. eigenvalues --    0.26979   0.27572   0.27829   0.28329   0.30168
 Alpha virt. eigenvalues --    0.30906   0.32660   0.33509   0.34736   0.35276

  Beta  occ. eigenvalues --  -20.33082 -11.13884 -11.07821 -11.07781 -11.04834
  Beta  occ. eigenvalues --   -1.15531  -0.99217  -0.61089  -0.52950  -0.43484
  Beta  occ. eigenvalues --   -0.37909  -0.33187  -0.20949  -0.20065  -0.17055
  Beta virt. eigenvalues --    0.18191   0.20368   0.21992   0.23446   0.24884
  Beta virt. eigenvalues --    0.24892   0.26214   0.27229   0.27766   0.29099
  Beta virt. eigenvalues --    0.29981   0.30978   0.32228   0.32927   0.32953

 Mulliken charges and spin densities:
               1          2
     1  C   -0.215420   0.125028
     2  C   -0.215567   0.125004
     3  C   -0.249403   2.034232
     4  C    0.625525   0.536120
     5  O   -0.945134   0.179615
 Sum of Mulliken charges =  -1.00000   3.00000

 Dipole moment (field-independent basis, Debye):
    X=              1.5238    Y=             -0.0002    Z=             -0.7694  Tot=              1.7071
 Quadrupole moment (field-independent basis, Debye-Ang):
   XX=            -44.2290   YY=            -36.6234   ZZ=            -32.5174
   XY=              0.0002   XZ=             -0.4807   YZ=             -0.0000

 19797\CCSD=-226.932389\CCSD(T)=-226.9837576\S2=3.820591\S2-1=3.778921\
 Normal termination of Gaussian 09 at Fri Mar  8 08:38:51 2019.
