 Gaussian 09, Revision E.01,
 Gaussian 09:  EM64L-G09RevE.01 30-Nov-2015

 --------------------------------------
 #p ccsd(t,maxcyc=200)/6-311++G(3df,2p)
 --------------------------------------

 -------------
 ccsd(t) iener
 -------------
 Symbolic Z-matrix:
 Charge = -1 Multiplicity = 4

                         Standard orientation:
 ---------------------------------------------------------------------
 Center     Atomic      Atomic             Coordinates (Angstroms)
 Number     Number       Type             X           Y           Z
 ---------------------------------------------------------------------
      1          6           0       -0.370320   -0.132284    0.000084
      2          6           0       -1.456989    0.785013    0.000039
      3          6           0       -1.773347   -0.508460   -0.000116
      4          6           0        0.980470   -0.484020    0.000104
      5          8           0        1.965140    0.254814   -0.000084
 ---------------------------------------------------------------------

 SCF Done:  E(UHF) =  -226.176311559     A.U. after   32 cycles
 E2 =    -0.7880344703D+00 EUMP2 =    -0.22696434602904D+03
 CCSD(T)
 CCSD(T)= -0.22702023712D+03

 The electronic state is 4-A.
 Alpha  occ. eigenvalues --  -20.39725 -11.13788 -11.12940 -11.08041 -11.06977
 Alpha  occ. eigenvalues --   -1.23169  -1.03435  -0.79609  -0.53091  -0.51346
 Alpha  occ. eigenvalues --   -0.44366  -0.44052  -0.42522  -0.33107  -0.25271
 Alpha  occ. eigenvalues --   -0.23663  -0.15984  -0.10736
 Alpha virt. eigenvalues --    0.20934   0.21223   0.21718   0.23493   0.24362
 Alpha virt. eigenvalues --    0.25316   0.25720   0.27847   0.28684   0.30591
 Alpha virt. eigenvalues --    0.32960   0.33293   0.35094   0.35739   0.37818

  Beta  occ. eigenvalues --  -20.36626 -11.11734 -11.10728 -11.06295 -11.06035
  Beta  occ. eigenvalues --   -1.15579  -0.99362  -0.68383  -0.46427  -0.41351
  Beta  occ. eigenvalues --   -0.35202  -0.32370  -0.27456  -0.24917  -0.17943
  Beta virt. eigenvalues --    0.18608   0.20625   0.21538   0.22531   0.23825
  Beta virt. eigenvalues --    0.24453   0.24848   0.25969   0.26326   0.28671
  Beta virt. eigenvalues --    0.29850   0.29897   0.32652   0.34408   0.34923

 Mulliken charges and spin densities:
               1          2
     1  C    0.324330   0.418982
     2  C   -0.215530   0.754690
     3  C   -0.378998   0.266702
     4  C    0.044769   1.077204
     5  O   -0.774570   0.482423
 Sum of Mulliken charges =  -1.00000   3.00000

 Dipole moment (field-independent basis, Debye):
    X=              0.6683    Y=              0.1284    Z=              0.0003  Tot=              0.6805
 Quadrupole moment (field-independent basis, Debye-Ang):
   XX=            -51.5571   YY=            -36.8934   ZZ=            -31.3795
   XY=             -2.1907   XZ=             -0.0002   YZ=             -0.0003

 9738018\CCSD=-226.9724332\CCSD(T)=-227.0202371\S2=3.82067\S2-1=3.77346
 Normal termination of Gaussian 09 at Fri Mar  8 09:51:32 2019.
