 Gaussian 09, Revision E.01,
 Gaussian 09:  EM64L-G09RevE.01 30-Nov-2015

 --------------------------------------
 #p ccsd(t,maxcyc=200)/6-311++G(3df,2p)
 --------------------------------------

 -------------
 ccsd(t) iener
 -------------
 Symbolic Z-matrix:
 Charge = -1 Multiplicity = 2

                         Standard orientation:
 ---------------------------------------------------------------------
 Center     Atomic      Atomic             Coordinates (Angstroms)
 Number     Number       Type             X           Y           Z
 ---------------------------------------------------------------------
      1          6           0        0.000000    0.000000   -0.675908
      2          8           0        0.000000    0.000000    0.506931
 ---------------------------------------------------------------------

 SCF Done:  E(UHF) =  -112.699585089     A.U. after   19 cycles
 E2 =    -0.3726748057D+00 EUMP2 =    -0.11307225989497D+03
 CCSD(T)
 CCSD(T)= -0.11309462288D+03

 Unable to determine electronic state:  an orbital has unidentified symmetry.
 Alpha  occ. eigenvalues --  -20.35695 -11.06533  -1.19823  -0.52699  -0.39183
 Alpha  occ. eigenvalues --   -0.33004  -0.27915   0.04450
 Alpha virt. eigenvalues --    0.23250   0.25666   0.27584   0.31030   0.40604
 Alpha virt. eigenvalues --    0.43706   0.46976   0.48242   0.52529   0.67256
 Alpha virt. eigenvalues --    0.67264   0.74403   0.82236   0.83480   0.87448

  Beta  occ. eigenvalues --  -20.34582 -11.05865  -1.17371  -0.49592  -0.32163
  Beta  occ. eigenvalues --   -0.30092  -0.24649
  Beta virt. eigenvalues --    0.24021   0.26310   0.27785   0.28587   0.41250
  Beta virt. eigenvalues --    0.43545   0.44268   0.48656   0.50300   0.52852
  Beta virt. eigenvalues --    0.69780   0.69802   0.75602   0.83812   0.85791

 Mulliken charges and spin densities:
               1          2
     1  C   -0.550657   1.024171
     2  O   -0.449343  -0.024171
 Sum of Mulliken charges =  -1.00000   1.00000

 Dipole moment (field-independent basis, Debye):
    X=              0.0000    Y=              0.0000    Z=              2.8377  Tot=              2.8377
 Quadrupole moment (field-independent basis, Debye-Ang):
   XX=            -22.3876   YY=            -15.1179   ZZ=            -21.3432
   XY=              0.0000   XZ=              0.0000   YZ=              0.0000

 4SDQ=-113.0784592\CCSD=-113.0761242\CCSD(T)=-113.0946229\S2=0.757394\S
 Normal termination of Gaussian 09 at Fri Mar  8 08:39:38 2019.
