 Gaussian 09, Revision E.01,
 Gaussian 09:  EM64L-G09RevE.01 30-Nov-2015

 --------------------------------------
 #p ccsd(t,maxcyc=200)/6-311++G(3df,2p)
 --------------------------------------

 -------------
 ccsd(t) iener
 -------------
 Symbolic Z-matrix:
 Charge = -1 Multiplicity = 4

                         Standard orientation:
 ---------------------------------------------------------------------
 Center     Atomic      Atomic             Coordinates (Angstroms)
 Number     Number       Type             X           Y           Z
 ---------------------------------------------------------------------
      1          6           0        0.000000    0.000000   -0.742851
      2          8           0        0.000000    0.000000    0.557138
 ---------------------------------------------------------------------

 SCF Done:  E(UHF) =  -112.560002578     A.U. after   15 cycles
 E2 =    -0.3361475542D+00 EUMP2 =    -0.11289615013204D+03
 CCSD(T)
 CCSD(T)= -0.11292130550D+03

 The electronic state is 4-SG.
 Alpha  occ. eigenvalues --  -20.27895 -11.05043  -1.08175  -0.56452  -0.31927
 Alpha  occ. eigenvalues --   -0.31927  -0.31908  -0.04872  -0.04872
 Alpha virt. eigenvalues --    0.24769   0.26129   0.28243   0.28243   0.46267
 Alpha virt. eigenvalues --    0.49878   0.49878   0.54850   0.67614   0.67614
 Alpha virt. eigenvalues --    0.68739   0.78897   0.78897   0.86953   0.93833

  Beta  occ. eigenvalues --  -20.24875 -10.98677  -0.98683  -0.33737  -0.17476
  Beta  occ. eigenvalues --   -0.17476
  Beta virt. eigenvalues --    0.21309   0.26171   0.27208   0.27208   0.34717
  Beta virt. eigenvalues --    0.47036   0.48073   0.48073   0.54313   0.54313
  Beta virt. eigenvalues --    0.57677   0.72474   0.72474   0.76395   0.84719

 Mulliken charges and spin densities:
               1          2
     1  C   -0.207755   2.714422
     2  O   -0.792245   0.285578
 Sum of Mulliken charges =  -1.00000   3.00000

 Dipole moment (field-independent basis, Debye):
    X=              0.0000    Y=              0.0000    Z=             -0.3089  Tot=              0.3089
 Quadrupole moment (field-independent basis, Debye-Ang):
   XX=            -15.6804   YY=            -15.6804   ZZ=            -17.3554
   XY=              0.0000   XZ=              0.0000   YZ=              0.0000

 2.8979707\MP4SDQ=-112.9042413\CCSD=-112.9048672\CCSD(T)=-112.9213055\S
 Normal termination of Gaussian 09 at Fri Mar  8 08:39:35 2019.
