 Gaussian 09, Revision E.01,
 Gaussian 09:  EM64L-G09RevE.01 30-Nov-2015

 --------------------------------------
 #p ccsd(t,maxcyc=200)/6-311++G(3df,2p)
 --------------------------------------

 -------------
 ccsd(t) iener
 -------------
 Symbolic Z-matrix:
 Charge = -1 Multiplicity = 4

                         Standard orientation:
 ---------------------------------------------------------------------
 Center     Atomic      Atomic             Coordinates (Angstroms)
 Number     Number       Type             X           Y           Z
 ---------------------------------------------------------------------
      1          6           0        0.000000    0.000000   -0.742719
      2          8           0        0.000000    0.000000    0.557039
 ---------------------------------------------------------------------

 SCF Done:  E(UHF) =  -112.560008456     A.U. after   15 cycles
 E2 =    -0.3361385556D+00 EUMP2 =    -0.11289614701167D+03
 CCSD(T)
 CCSD(T)= -0.11292130068D+03

 The electronic state is 4-SG.
 Alpha  occ. eigenvalues --  -20.27894 -11.05042  -1.08186  -0.56449  -0.31934
 Alpha  occ. eigenvalues --   -0.31934  -0.31914  -0.04865  -0.04865
 Alpha virt. eigenvalues --    0.24768   0.26130   0.28244   0.28244   0.46267
 Alpha virt. eigenvalues --    0.49877   0.49877   0.54849   0.67613   0.67613
 Alpha virt. eigenvalues --    0.68745   0.78899   0.78899   0.86952   0.93832

  Beta  occ. eigenvalues --  -20.24874 -10.98676  -0.98696  -0.33744  -0.17482
  Beta  occ. eigenvalues --   -0.17482
  Beta virt. eigenvalues --    0.21310   0.26171   0.27209   0.27209   0.34717
  Beta virt. eigenvalues --    0.47036   0.48073   0.48073   0.54317   0.54317
  Beta virt. eigenvalues --    0.57676   0.72474   0.72474   0.76399   0.84722

 Mulliken charges and spin densities:
               1          2
     1  C   -0.207877   2.714505
     2  O   -0.792123   0.285495
 Sum of Mulliken charges =  -1.00000   3.00000

 Dipole moment (field-independent basis, Debye):
    X=              0.0000    Y=              0.0000    Z=             -0.3076  Tot=              0.3076
 Quadrupole moment (field-independent basis, Debye-Ang):
   XX=            -15.6813   YY=            -15.6813   ZZ=            -17.3564
   XY=              0.0000   XZ=              0.0000   YZ=              0.0000

 .8979706\MP4SDQ=-112.904238\CCSD=-112.9048647\CCSD(T)=-112.9213007\S2=
 Normal termination of Gaussian 09 at Fri Mar  8 08:39:31 2019.
