 Gaussian 09, Revision E.01,
 Gaussian 09:  EM64L-G09RevE.01 30-Nov-2015

 --------------------------------------
 #p ccsd(t,maxcyc=200)/6-311++G(3df,2p)
 --------------------------------------

 -------------
 ccsd(t) iener
 -------------
 Symbolic Z-matrix:
 Charge = -1 Multiplicity = 1

                         Standard orientation:
 ---------------------------------------------------------------------
 Center     Atomic      Atomic             Coordinates (Angstroms)
 Number     Number       Type             X           Y           Z
 ---------------------------------------------------------------------
      1          1           0        0.000000    0.000000    0.000000
 ---------------------------------------------------------------------

 SCF Done:  E(RHF) = -0.486962738726     A.U. after    8 cycles
 E2 =    -0.2261651813D-01 EUMP2 =    -0.50957925685408D+00
 CCSD(T)
 CCSD(T)= -0.51972646275D+00

 The electronic state is 1-A1G.
 Alpha  occ. eigenvalues --   -0.04252
 Alpha virt. eigenvalues --    0.28366   0.83086   1.08231   1.08231   1.08231
 Alpha virt. eigenvalues --    3.03228   4.39343   4.39343   4.39343

 Mulliken charges:
               1
     1  H   -1.000000
 Sum of Mulliken charges =  -1.00000

 Dipole moment (field-independent basis, Debye):
    X=              0.0000    Y=              0.0000    Z=              0.0000  Tot=              0.0000
 Quadrupole moment (field-independent basis, Debye-Ang):
   XX=             -7.4489   YY=             -7.4489   ZZ=             -7.4489
   XY=              0.0000   XZ=              0.0000   YZ=              0.0000

 22\CCSD=-0.5197265\CCSD(T)=-0.5197265\RMSD=9.722e-11\PG=OH [O(H1)]\\@
 Normal termination of Gaussian 09 at Tue Mar 12 00:52:32 2019.
