 Gaussian 09, Revision E.01,
 Gaussian 09:  EM64L-G09RevE.01 30-Nov-2015

 --------------------------------------
 #p ccsd(t,maxcyc=200)/6-311++G(3df,2p)
 --------------------------------------

 -------------
 ccsd(t) iener
 -------------
 Symbolic Z-matrix:
 Charge = -1 Multiplicity = 4

                         Standard orientation:
 ---------------------------------------------------------------------
 Center     Atomic      Atomic             Coordinates (Angstroms)
 Number     Number       Type             X           Y           Z
 ---------------------------------------------------------------------
      1          6           0        0.000000   -0.000000    0.103190
      2          1           0        0.000000    1.002630   -0.309571
      3          1           0       -0.000000   -1.002630   -0.309571
 ---------------------------------------------------------------------

 SCF Done:  E(UHF) =  -38.8901879799     A.U. after   16 cycles
 E2 =    -0.1213339808D+00 EUMP2 =    -0.39011521960720D+02
 CCSD(T)
 CCSD(T)= -0.39035990260D+02

 The electronic state is 4-B1.
 Alpha  occ. eigenvalues --  -11.10494  -0.78871  -0.45538  -0.28866  -0.24780
 Alpha  occ. eigenvalues --    0.04559
 Alpha virt. eigenvalues --    0.16179   0.23562   0.24153   0.28542   0.30064
 Alpha virt. eigenvalues --    0.38501   0.43742   0.57383   0.58971   0.59523
 Alpha virt. eigenvalues --    0.61306   0.63373   0.84073   0.84086   0.92015

  Beta  occ. eigenvalues --  -11.05634  -0.61256  -0.42553
  Beta virt. eigenvalues --    0.18866   0.20825   0.21502   0.22252   0.30436
  Beta virt. eigenvalues --    0.31876   0.36145   0.37675   0.42532   0.46587
  Beta virt. eigenvalues --    0.61153   0.63130   0.65494   0.66434   0.67168

 Mulliken charges and spin densities:
               1          2
     1  C    1.511717   0.291556
     2  H   -1.255859   1.354222
     3  H   -1.255859   1.354222
 Sum of Mulliken charges =  -1.00000   3.00000

 Dipole moment (field-independent basis, Debye):
    X=              0.0000    Y=              0.0000    Z=              2.0304  Tot=              2.0304
 Quadrupole moment (field-independent basis, Debye-Ang):
   XX=            -23.6202   YY=            -37.5717   ZZ=            -25.6169
   XY=             -0.0000   XZ=             -0.0000   YZ=             -0.0000

 Normal termination of Gaussian 09 at Mon Mar 11 22:54:01 2019.
