 Gaussian 09, Revision E.01,
 Gaussian 09:  EM64L-G09RevE.01 30-Nov-2015

 --------------------------------------
 #p ccsd(t,maxcyc=200)/6-311++G(3df,2p)
 --------------------------------------

 -------------
 ccsd(t) iener
 -------------
 Symbolic Z-matrix:
 Charge = -1 Multiplicity = 4

                         Standard orientation:
 ---------------------------------------------------------------------
 Center     Atomic      Atomic             Coordinates (Angstroms)
 Number     Number       Type             X           Y           Z
 ---------------------------------------------------------------------
      1          6           0        0.000000   -0.000000    0.103571
      2          1           0        0.000000    1.002651   -0.310712
      3          1           0       -0.000000   -1.002651   -0.310712
 ---------------------------------------------------------------------

 SCF Done:  E(UHF) =  -38.8901851983     A.U. after   16 cycles
 E2 =    -0.1213388053D+00 EUMP2 =    -0.39011524003598D+02
 CCSD(T)
 CCSD(T)= -0.39035998436D+02

 The electronic state is 4-B1.
 Alpha  occ. eigenvalues --  -11.10509  -0.78857  -0.45500  -0.28889  -0.24783
 Alpha  occ. eigenvalues --    0.04558
 Alpha virt. eigenvalues --    0.16184   0.23560   0.24154   0.28532   0.30071
 Alpha virt. eigenvalues --    0.38502   0.43732   0.57389   0.58966   0.59519
 Alpha virt. eigenvalues --    0.61328   0.63362   0.84072   0.84086   0.91971

  Beta  occ. eigenvalues --  -11.05648  -0.61241  -0.42511
  Beta virt. eigenvalues --    0.18865   0.20830   0.21496   0.22251   0.30426
  Beta virt. eigenvalues --    0.31879   0.36135   0.37676   0.42534   0.46581
  Beta virt. eigenvalues --    0.61158   0.63133   0.65489   0.66444   0.67160

 Mulliken charges and spin densities:
               1          2
     1  C    1.512175   0.291285
     2  H   -1.256088   1.354358
     3  H   -1.256088   1.354358
 Sum of Mulliken charges =  -1.00000   3.00000

 Dipole moment (field-independent basis, Debye):
    X=              0.0000    Y=             -0.0000    Z=              2.0378  Tot=              2.0378
 Quadrupole moment (field-independent basis, Debye-Ang):
   XX=            -23.6163   YY=            -37.5688   ZZ=            -25.6277
   XY=             -0.0000   XZ=             -0.0000   YZ=              0.0000

 \CCSD(T)=-39.0359984\S2=3.766478\S2-1=3.75513\S2A=3.750048\RMSD=9.029e
 Normal termination of Gaussian 09 at Mon Mar 11 22:54:04 2019.
