 Gaussian 09, Revision E.01,
 Gaussian 09:  EM64L-G09RevE.01 30-Nov-2015

 --------------------------------------
 #p ccsd(t,maxcyc=200)/6-311++G(3df,2p)
 --------------------------------------

 -------------
 ccsd(t) iener
 -------------
 Symbolic Z-matrix:
 Charge = -1 Multiplicity = 2

                         Standard orientation:
 ---------------------------------------------------------------------
 Center     Atomic      Atomic             Coordinates (Angstroms)
 Number     Number       Type             X           Y           Z
 ---------------------------------------------------------------------
      1          6           0        0.000000   -0.000000    0.174499
      2          1           0        0.000000    0.876332   -0.523496
      3          1           0       -0.000000   -0.876332   -0.523496
 ---------------------------------------------------------------------

 SCF Done:  E(UHF) =  -38.8997020062     A.U. after   16 cycles
 E2 =    -0.1674756539D+00 EUMP2 =    -0.39067177660145D+02
 CCSD(T)
 CCSD(T)= -0.39092625350D+02

 The electronic state is 2-B1.
 Alpha  occ. eigenvalues --  -10.95454  -0.61070  -0.25482  -0.09585  -0.07021
 Alpha virt. eigenvalues --    0.18869   0.21057   0.30598   0.30973   0.32575
 Alpha virt. eigenvalues --    0.36540   0.47929   0.49995   0.68186   0.68321
 Alpha virt. eigenvalues --    0.69416   0.72329   0.75087   0.97334   0.98568

  Beta  occ. eigenvalues --  -10.93497  -0.52988  -0.24155  -0.04795
  Beta virt. eigenvalues --    0.18940   0.21110   0.26779   0.31290   0.32463
  Beta virt. eigenvalues --    0.37922   0.46548   0.48838   0.50618   0.68537
  Beta virt. eigenvalues --    0.71632   0.72360   0.72749   0.79566   1.00211

 Mulliken charges and spin densities:
               1          2
     1  C   -1.006525   1.149976
     2  H    0.003263  -0.074988
     3  H    0.003263  -0.074988
 Sum of Mulliken charges =  -1.00000   1.00000

 Dipole moment (field-independent basis, Debye):
    X=             -0.0000    Y=             -0.0000    Z=             -2.2974  Tot=              2.2974
 Quadrupole moment (field-independent basis, Debye-Ang):
   XX=            -13.3786   YY=            -11.9162   ZZ=            -15.7621
   XY=             -0.0000   XZ=             -0.0000   YZ=             -0.0000

 Normal termination of Gaussian 09 at Mon Mar 11 22:54:06 2019.
