 Gaussian 09, Revision E.01,
 Gaussian 09:  EM64L-G09RevE.01 30-Nov-2015

 --------------------------------------
 #p ccsd(t,maxcyc=200)/6-311++G(3df,2p)
 --------------------------------------

 -------------
 ccsd(t) iener
 -------------
 Symbolic Z-matrix:
 Charge = -1 Multiplicity = 2

                         Standard orientation:
 ---------------------------------------------------------------------
 Center     Atomic      Atomic             Coordinates (Angstroms)
 Number     Number       Type             X           Y           Z
 ---------------------------------------------------------------------
      1          6           0        0.000000    0.000000    0.174757
      2          1           0       -0.000000    0.875732   -0.524272
      3          1           0       -0.000000   -0.875732   -0.524272
 ---------------------------------------------------------------------

 SCF Done:  E(UHF) =  -38.8996974281     A.U. after   16 cycles
 E2 =    -0.1674790119D+00 EUMP2 =    -0.39067176440051D+02
 CCSD(T)
 CCSD(T)= -0.39092627144D+02

 The electronic state is 2-B1.
 Alpha  occ. eigenvalues --  -10.95455  -0.61068  -0.25451  -0.09599  -0.07019
 Alpha virt. eigenvalues --    0.18868   0.21060   0.30596   0.30974   0.32572
 Alpha virt. eigenvalues --    0.36540   0.47937   0.49998   0.68193   0.68314
 Alpha virt. eigenvalues --    0.69412   0.72319   0.75101   0.97336   0.98562

  Beta  occ. eigenvalues --  -10.93500  -0.52989  -0.24123  -0.04815
  Beta virt. eigenvalues --    0.18939   0.21113   0.26780   0.31286   0.32461
  Beta virt. eigenvalues --    0.37924   0.46549   0.48845   0.50622   0.68528
  Beta virt. eigenvalues --    0.71639   0.72349   0.72746   0.79580   1.00203

 Mulliken charges and spin densities:
               1          2
     1  C   -1.005998   1.150116
     2  H    0.002999  -0.075058
     3  H    0.002999  -0.075058
 Sum of Mulliken charges =  -1.00000   1.00000

 Dipole moment (field-independent basis, Debye):
    X=             -0.0000    Y=              0.0000    Z=             -2.2966  Tot=              2.2966
 Quadrupole moment (field-independent basis, Debye-Ang):
   XX=            -13.3780   YY=            -11.9204   ZZ=            -15.7541
   XY=             -0.0000   XZ=             -0.0000   YZ=             -0.0000

 9259\CCSD=-39.0853127\CCSD(T)=-39.0926271\S2=0.767968\S2-1=0.758407\S2
 Normal termination of Gaussian 09 at Mon Mar 11 22:54:06 2019.
