 Gaussian 09, Revision E.01,
 Gaussian 09:  EM64L-G09RevE.01 30-Nov-2015

 --------------------------------------
 #p ccsd(t,maxcyc=200)/6-311++G(3df,2p)
 --------------------------------------

 -------------
 ccsd(t) iener
 -------------
 Symbolic Z-matrix:
 Charge = -1 Multiplicity = 2

                         Standard orientation:
 ---------------------------------------------------------------------
 Center     Atomic      Atomic             Coordinates (Angstroms)
 Number     Number       Type             X           Y           Z
 ---------------------------------------------------------------------
      1          6           0        0.000000   -0.000000    0.174736
      2          1           0        0.000000    0.875784   -0.524209
      3          1           0       -0.000000   -0.875784   -0.524209
 ---------------------------------------------------------------------

 SCF Done:  E(UHF) =  -38.8996977912     A.U. after   16 cycles
 E2 =    -0.1674787466D+00 EUMP2 =    -0.39067176537779D+02
 CCSD(T)
 CCSD(T)= -0.39092627030D+02

 The electronic state is 2-B1.
 Alpha  occ. eigenvalues --  -10.95455  -0.61068  -0.25453  -0.09598  -0.07019
 Alpha virt. eigenvalues --    0.18868   0.21060   0.30596   0.30974   0.32572
 Alpha virt. eigenvalues --    0.36540   0.47936   0.49998   0.68192   0.68315
 Alpha virt. eigenvalues --    0.69412   0.72320   0.75100   0.97336   0.98562

  Beta  occ. eigenvalues --  -10.93499  -0.52989  -0.24126  -0.04813
  Beta virt. eigenvalues --    0.18939   0.21113   0.26779   0.31286   0.32461
  Beta virt. eigenvalues --    0.37924   0.46549   0.48845   0.50622   0.68529
  Beta virt. eigenvalues --    0.71638   0.72350   0.72746   0.79579   1.00203

 Mulliken charges and spin densities:
               1          2
     1  C   -1.006038   1.150105
     2  H    0.003019  -0.075052
     3  H    0.003019  -0.075052
 Sum of Mulliken charges =  -1.00000   1.00000

 Dipole moment (field-independent basis, Debye):
    X=             -0.0000    Y=              0.0000    Z=             -2.2967  Tot=              2.2967
 Quadrupole moment (field-independent basis, Debye-Ang):
   XX=            -13.3781   YY=            -11.9200   ZZ=            -15.7547
   XY=             -0.0000   XZ=             -0.0000   YZ=              0.0000

 6\CCSD(T)=-39.092627\S2=0.767972\S2-1=0.75841\S2A=0.75014\RMSD=6.369e-
 Normal termination of Gaussian 09 at Mon Mar 11 22:54:07 2019.
