 Gaussian 09, Revision E.01,
 Gaussian 09:  EM64L-G09RevE.01 30-Nov-2015

 --------------------------------------
 #p ccsd(t,maxcyc=200)/6-311++G(3df,2p)
 --------------------------------------

 -------------
 ccsd(t) iener
 -------------
 Symbolic Z-matrix:
 Charge = -1 Multiplicity = 4

                         Standard orientation:
 ---------------------------------------------------------------------
 Center     Atomic      Atomic             Coordinates (Angstroms)
 Number     Number       Type             X           Y           Z
 ---------------------------------------------------------------------
      1          6           0       -1.183899    0.099885   -0.000073
      2          6           0        0.147658   -0.410028    0.000065
      3          1           0       -1.387603    1.168762    0.000214
      4          1           0       -2.037860   -0.573604    0.000026
      5          8           0        1.205364    0.158213   -0.000024
 ---------------------------------------------------------------------

 SCF Done:  E(UHF) =  -151.690089419     A.U. after   30 cycles
 E2 =    -0.5027202082D+00 EUMP2 =    -0.15219280962727D+03
 CCSD(T)
 CCSD(T)= -0.15223771093D+03

 The electronic state is 4-A.
 Alpha  occ. eigenvalues --  -20.47817 -11.20467 -11.14891  -1.31975  -0.92328
 Alpha  occ. eigenvalues --   -0.65214  -0.55524  -0.54238  -0.49146  -0.44740
 Alpha  occ. eigenvalues --   -0.29309  -0.24801   0.03620
 Alpha virt. eigenvalues --    0.15481   0.18724   0.22114   0.23470   0.23851
 Alpha virt. eigenvalues --    0.25187   0.28647   0.31311   0.31513   0.31847
 Alpha virt. eigenvalues --    0.37311   0.40614   0.42223   0.44275   0.45601

  Beta  occ. eigenvalues --  -20.45189 -11.18904 -11.12362  -1.25853  -0.81553
  Beta  occ. eigenvalues --   -0.59296  -0.50163  -0.47405  -0.39117  -0.36318
  Beta virt. eigenvalues --    0.16399   0.16813   0.19037   0.20373   0.23925
  Beta virt. eigenvalues --    0.24406   0.25262   0.27736   0.28760   0.31811
  Beta virt. eigenvalues --    0.33447   0.33649   0.38645   0.40257   0.41924

 Mulliken charges and spin densities:
               1          2
     1  C    2.114525  -1.313212
     2  C    0.036499   1.129001
     3  H   -0.565282   0.703169
     4  H   -1.922493   2.041034
     5  O   -0.663249   0.440009
 Sum of Mulliken charges =  -1.00000   3.00000

 Dipole moment (field-independent basis, Debye):
    X=              9.9097    Y=              1.2014    Z=             -0.0007  Tot=              9.9823
 Quadrupole moment (field-independent basis, Debye-Ang):
   XX=            -71.4894   YY=            -42.2601   ZZ=            -32.7437
   XY=             -6.7546   XZ=              0.0019   YZ=             -0.0000

 2.2142863\CCSD=-152.2137512\CCSD(T)=-152.2377109\S2=3.795288\S2-1=3.77
 Normal termination of Gaussian 09 at Fri Mar  8 10:26:34 2019.
