 Gaussian 09, Revision E.01,
 Gaussian 09:  EM64L-G09RevE.01 30-Nov-2015

 --------------------------------------
 #p ccsd(t,maxcyc=200)/6-311++G(3df,2p)
 --------------------------------------

 -------------
 ccsd(t) iener
 -------------
 Symbolic Z-matrix:
 Charge = -1 Multiplicity = 2

                         Standard orientation:
 ---------------------------------------------------------------------
 Center     Atomic      Atomic             Coordinates (Angstroms)
 Number     Number       Type             X           Y           Z
 ---------------------------------------------------------------------
      1          6           0       -1.185240    0.086289   -0.000093
      2          6           0        0.104849   -0.346131    0.000033
      3          1           0       -2.010795   -0.609218    0.000185
      4          1           0       -1.414328    1.160636    0.000200
      5          8           0        1.238434    0.125955   -0.000003
 ---------------------------------------------------------------------

 SCF Done:  E(UHF) =  -151.750150175     A.U. after   22 cycles
 E2 =    -0.5521619997D+00 EUMP2 =    -0.15230231217448D+03
 CCSD(T)
 CCSD(T)= -0.15234173201D+03

 The electronic state is 2-A.
 Alpha  occ. eigenvalues --  -20.31545 -11.06992 -10.98316  -1.14887  -0.77104
 Alpha  occ. eigenvalues --   -0.50429  -0.41378  -0.39848  -0.32843  -0.31224
 Alpha  occ. eigenvalues --   -0.09143  -0.09136
 Alpha virt. eigenvalues --    0.17401   0.18434   0.23318   0.27273   0.28215
 Alpha virt. eigenvalues --    0.28325   0.28555   0.33335   0.34641   0.35768
 Alpha virt. eigenvalues --    0.42969   0.43988   0.46583   0.51008   0.51454

  Beta  occ. eigenvalues --  -20.30086 -11.05126 -10.98282  -1.11053  -0.74291
  Beta  occ. eigenvalues --   -0.46822  -0.37815  -0.35867  -0.30595  -0.22718
  Beta  occ. eigenvalues --   -0.09415
  Beta virt. eigenvalues --    0.17245   0.18472   0.23083   0.27193   0.28425
  Beta virt. eigenvalues --    0.28691   0.28707   0.31519   0.34548   0.35871
  Beta virt. eigenvalues --    0.40071   0.44610   0.45720   0.47441   0.52228

 Mulliken charges and spin densities:
               1          2
     1  C   -0.420823  -0.458042
     2  C    0.231566   1.147568
     3  H    0.058281   0.009958
     4  H   -0.001667   0.130739
     5  O   -0.867357   0.169777
 Sum of Mulliken charges =  -1.00000   1.00000

 Dipole moment (field-independent basis, Debye):
    X=             -1.0154    Y=              0.1510    Z=              0.0009  Tot=              1.0265
 Quadrupole moment (field-independent basis, Debye-Ang):
   XX=            -29.4745   YY=            -22.3873   ZZ=            -23.9246
   XY=             -0.0828   XZ=             -0.0016   YZ=              0.0003

 =-152.3149932\CCSD=-152.3138644\CCSD(T)=-152.341732\S2=0.773346\S2-1=0
 Normal termination of Gaussian 09 at Fri Mar  8 10:07:11 2019.
