 Gaussian 09, Revision E.01,
 Gaussian 09:  EM64L-G09RevE.01 30-Nov-2015

 --------------------------------------
 #p ccsd(t,maxcyc=200)/6-311++G(3df,2p)
 --------------------------------------

 -------------
 ccsd(t) iener
 -------------
 Symbolic Z-matrix:
 Charge = -1 Multiplicity = 4

                         Standard orientation:
 ---------------------------------------------------------------------
 Center     Atomic      Atomic             Coordinates (Angstroms)
 Number     Number       Type             X           Y           Z
 ---------------------------------------------------------------------
      1          6           0       -0.000000    0.435863   -0.000000
      2          8           0       -1.187558    0.260487   -0.000000
      3          6           0        1.079991   -0.496101    0.000000
      4          1           0        2.111626   -0.151745    0.000000
      5          1           0        0.908889   -1.570720    0.000000
 ---------------------------------------------------------------------

 SCF Done:  E(UHF) =  -151.690114965     A.U. after   30 cycles
 E2 =    -0.5027113915D+00 EUMP2 =    -0.15219282635682D+03
 CCSD(T)
 CCSD(T)= -0.15223771997D+03

 The electronic state is 4-A".
 Alpha  occ. eigenvalues --  -20.47815 -11.20473 -11.14893  -1.31986  -0.92307
 Alpha  occ. eigenvalues --   -0.65212  -0.55522  -0.54233  -0.49141  -0.44745
 Alpha  occ. eigenvalues --   -0.29302  -0.24795   0.03621
 Alpha virt. eigenvalues --    0.15480   0.18723   0.22113   0.23470   0.23853
 Alpha virt. eigenvalues --    0.25186   0.28648   0.31311   0.31508   0.31846
 Alpha virt. eigenvalues --    0.37311   0.40614   0.42225   0.44275   0.45601

  Beta  occ. eigenvalues --  -20.45190 -11.18909 -11.12361  -1.25874  -0.81529
  Beta  occ. eigenvalues --   -0.59295  -0.50155  -0.47404  -0.39139  -0.36328
  Beta virt. eigenvalues --    0.16405   0.16814   0.19037   0.20372   0.23925
  Beta virt. eigenvalues --    0.24407   0.25263   0.27740   0.28758   0.31812
  Beta virt. eigenvalues --    0.33447   0.33649   0.38644   0.40258   0.41923

 Mulliken charges and spin densities:
               1          2
     1  C    0.037672   1.127888
     2  O   -0.663168   0.439104
     3  C    2.112750  -1.310504
     4  H   -1.920630   2.039049
     5  H   -0.566623   0.704463
 Sum of Mulliken charges =  -1.00000   3.00000

 Dipole moment (field-independent basis, Debye):
    X=             -9.7261    Y=              2.2370    Z=             -0.0000  Tot=              9.9800
 Quadrupole moment (field-independent basis, Debye-Ang):
   XX=            -72.4160   YY=            -41.3286   ZZ=            -32.7451
   XY=              4.1331   XZ=             -0.0000   YZ=              0.0000

 MP3-0=-152.2070181\MP4SDQ=-152.2143012\CCSD=-152.2137628\CCSD(T)=-152.
 Normal termination of Gaussian 09 at Fri Mar  8 10:21:08 2019.
