 Gaussian 09, Revision E.01,
 Gaussian 09:  EM64L-G09RevE.01 30-Nov-2015

 --------------------------------------
 #p ccsd(t,maxcyc=200)/6-311++G(3df,2p)
 --------------------------------------

 -------------
 ccsd(t) iener
 -------------
 Symbolic Z-matrix:
 Charge = -1 Multiplicity = 2

                         Standard orientation:
 ---------------------------------------------------------------------
 Center     Atomic      Atomic             Coordinates (Angstroms)
 Number     Number       Type             X           Y           Z
 ---------------------------------------------------------------------
      1          6           0       -0.104970   -0.345577    0.000310
      2          8           0       -1.238719    0.125857   -0.000085
      3          6           0        1.185313    0.086030   -0.000486
      4          1           0        2.011025   -0.609105    0.000585
      5          1           0        1.416664    1.159524    0.001152
 ---------------------------------------------------------------------

 SCF Done:  E(UHF) =  -151.750154398     A.U. after   22 cycles
 E2 =    -0.5521470580D+00 EUMP2 =    -0.15230230145607D+03
 CCSD(T)
 CCSD(T)= -0.15234172025D+03

 The electronic state is 2-A.
 Alpha  occ. eigenvalues --  -20.31548 -11.06992 -10.98311  -1.14893  -0.77107
 Alpha  occ. eigenvalues --   -0.50444  -0.41376  -0.39861  -0.32848  -0.31223
 Alpha  occ. eigenvalues --   -0.09148  -0.09120
 Alpha virt. eigenvalues --    0.17400   0.18435   0.23317   0.27274   0.28215
 Alpha virt. eigenvalues --    0.28325   0.28556   0.33334   0.34640   0.35770
 Alpha virt. eigenvalues --    0.42976   0.43991   0.46582   0.51012   0.51454

  Beta  occ. eigenvalues --  -20.30089 -11.05126 -10.98277  -1.11060  -0.74295
  Beta  occ. eigenvalues --   -0.46837  -0.37832  -0.35855  -0.30600  -0.22725
  Beta  occ. eigenvalues --   -0.09417
  Beta virt. eigenvalues --    0.17244   0.18474   0.23082   0.27195   0.28425
  Beta virt. eigenvalues --    0.28692   0.28707   0.31521   0.34547   0.35873
  Beta virt. eigenvalues --    0.40080   0.44607   0.45723   0.47447   0.52231

 Mulliken charges and spin densities:
               1          2
     1  C    0.231511   1.148036
     2  O   -0.867390   0.169582
     3  C   -0.420544  -0.458437
     4  H    0.058257   0.009936
     5  H   -0.001834   0.130883
 Sum of Mulliken charges =  -1.00000   1.00000

 Dipole moment (field-independent basis, Debye):
    X=              1.0156    Y=              0.1519    Z=              0.0045  Tot=              1.0270
 Quadrupole moment (field-independent basis, Debye-Ang):
   XX=            -29.4726   YY=            -22.3893   ZZ=            -23.9231
   XY=              0.0852   XZ=              0.0069   YZ=              0.0025

 =-152.3149842\CCSD=-152.3138563\CCSD(T)=-152.3417202\S2=0.773335\S2-1=
 Normal termination of Gaussian 09 at Fri Mar  8 10:08:22 2019.
