 Gaussian 09, Revision E.01,
 Gaussian 09:  EM64L-G09RevE.01 30-Nov-2015

 --------------------------------------
 #p ccsd(t,maxcyc=200)/6-311++G(3df,2p)
 --------------------------------------

 -------------
 ccsd(t) iener
 -------------
 Symbolic Z-matrix:
 Charge = -1 Multiplicity = 2

                         Standard orientation:
 ---------------------------------------------------------------------
 Center     Atomic      Atomic             Coordinates (Angstroms)
 Number     Number       Type             X           Y           Z
 ---------------------------------------------------------------------
      1          6           0       -0.000000   -0.000000    0.599831
      2          6           0        0.000000   -0.000000   -0.599831
      3          1           0       -0.000000   -0.000000    1.669405
      4          1           0        0.000000   -0.000000   -1.669405
 ---------------------------------------------------------------------

 SCF Done:  E(UHF) =  -76.8014525937     A.U. after   18 cycles
 E2 =    -0.3127560858D+00 EUMP2 =    -0.77114208679516D+02
 CCSD(T)
 CCSD(T)= -0.77143115257D+02

 The electronic state is 2-SGU.
 Alpha  occ. eigenvalues --  -11.11690 -11.11302  -0.90781  -0.63853  -0.55240
 Alpha  occ. eigenvalues --   -0.28810  -0.28810   0.04647
 Alpha virt. eigenvalues --    0.11441   0.22220   0.22220   0.23402   0.23402
 Alpha virt. eigenvalues --    0.24390   0.27216   0.29359   0.30873   0.36217
 Alpha virt. eigenvalues --    0.36217   0.46556   0.48966   0.55816   0.55816

  Beta  occ. eigenvalues --  -11.11638 -11.11249  -0.90717  -0.63643  -0.55156
  Beta  occ. eigenvalues --   -0.28773  -0.28773
  Beta virt. eigenvalues --    0.15774   0.16351   0.23418   0.23418   0.23869
  Beta virt. eigenvalues --    0.23869   0.25622   0.28810   0.30338   0.32024
  Beta virt. eigenvalues --    0.36708   0.36708   0.47105   0.49466   0.55836

 Mulliken charges and spin densities:
               1          2
     1  C    2.234820  -2.552052
     2  C    2.234820  -2.552052
     3  H   -2.734820   3.052052
     4  H   -2.734820   3.052052
 Sum of Mulliken charges =  -1.00000   1.00000

 Dipole moment (field-independent basis, Debye):
    X=             -0.0000    Y=              0.0000    Z=              0.0000  Tot=              0.0000
 Quadrupole moment (field-independent basis, Debye-Ang):
   XX=            -32.4363   YY=            -32.4363   ZZ=            -78.2941
   XY=             -0.0000   XZ=              0.0000   YZ=             -0.0000

 4212\PMP3-0=-77.123195\MP4SDQ=-77.1260945\CCSD=-77.1260526\CCSD(T)=-77
 Normal termination of Gaussian 09 at Mon Mar 11 21:44:51 2019.
