 Gaussian 09, Revision E.01,
 Gaussian 09:  EM64L-G09RevE.01 30-Nov-2015

 --------------------------------------
 #p ccsd(t,maxcyc=200)/6-311++G(3df,2p)
 --------------------------------------

 -------------
 ccsd(t) iener
 -------------
 Symbolic Z-matrix:
 Charge = -1 Multiplicity = 4

                         Standard orientation:
 ---------------------------------------------------------------------
 Center     Atomic      Atomic             Coordinates (Angstroms)
 Number     Number       Type             X           Y           Z
 ---------------------------------------------------------------------
      1          6           0        0.000000    0.000000    0.831778
      2          6           0       -0.000000   -0.000000   -0.479975
      3          1           0       -0.412727    0.834391   -1.055410
      4          1           0        0.412727   -0.834391   -1.055410
 ---------------------------------------------------------------------

 SCF Done:  E(UHF) =  -76.6649392220     A.U. after   24 cycles
 E2 =    -0.2659784457D+00 EUMP2 =    -0.76930917667774D+02
 CCSD(T)
 CCSD(T)= -0.76971132039D+02

 The electronic state is 4-A.
 Alpha  occ. eigenvalues --  -11.05267 -11.00313  -0.83257  -0.54698  -0.39447
 Alpha  occ. eigenvalues --   -0.34837  -0.23717  -0.15635   0.07860
 Alpha virt. eigenvalues --    0.18043   0.19198   0.22340   0.27758   0.28063
 Alpha virt. eigenvalues --    0.29061   0.33785   0.34080   0.35862   0.36007
 Alpha virt. eigenvalues --    0.44082   0.50587   0.60809   0.64384   0.67051

  Beta  occ. eigenvalues --  -11.00755 -10.98829  -0.75336  -0.42068  -0.34989
  Beta  occ. eigenvalues --   -0.14088
  Beta virt. eigenvalues --    0.18025   0.19450   0.20950   0.26212   0.27692
  Beta virt. eigenvalues --    0.28825   0.29884   0.30866   0.35984   0.36679
  Beta virt. eigenvalues --    0.38054   0.41898   0.45742   0.48805   0.53420

 Mulliken charges and spin densities:
               1          2
     1  C   -0.168841   2.629311
     2  C   -0.971350   0.239608
     3  H    0.070095   0.065541
     4  H    0.070095   0.065541
 Sum of Mulliken charges =  -1.00000   3.00000

 Dipole moment (field-independent basis, Debye):
    X=              0.0000    Y=             -0.0000    Z=              1.8730  Tot=              1.8730
 Quadrupole moment (field-independent basis, Debye-Ang):
   XX=            -26.6849   YY=            -20.2712   ZZ=            -24.4938
   XY=             -4.2002   XZ=             -0.0000   YZ=             -0.0000

 8733\PMP3-0=-76.9523263\MP4SDQ=-76.9533511\CCSD=-76.9577283\CCSD(T)=-7
 Normal termination of Gaussian 09 at Mon Mar 11 22:08:25 2019.
