 Gaussian 09, Revision E.01,
 Gaussian 09:  EM64L-G09RevE.01 30-Nov-2015

 --------------------------------------
 #p ccsd(t,maxcyc=200)/6-311++G(3df,2p)
 --------------------------------------

 -------------
 ccsd(t) iener
 -------------
 Symbolic Z-matrix:
 Charge = -1 Multiplicity = 4

                         Standard orientation:
 ---------------------------------------------------------------------
 Center     Atomic      Atomic             Coordinates (Angstroms)
 Number     Number       Type             X           Y           Z
 ---------------------------------------------------------------------
      1          6           0        1.384236   -0.318111    0.000019
      2          6           0        0.170619    0.396758   -0.000075
      3          1           0        0.121252    1.481761    0.000232
      4          1           0       -1.054863   -1.101005    0.000119
      5          8           0       -1.049440   -0.106581   -0.000002
 ---------------------------------------------------------------------

 SCF Done:  E(UHF) =  -151.609131117     A.U. after   32 cycles
 E2 =    -0.4955992547D+00 EUMP2 =    -0.15210473037167D+03
 CCSD(T)
 CCSD(T)= -0.15215382231D+03

 The electronic state is 4-A.
 Alpha  occ. eigenvalues --  -20.49738 -11.21221 -11.11738  -1.32280  -0.91148
 Alpha  occ. eigenvalues --   -0.71723  -0.56787  -0.50752  -0.49149  -0.31687
 Alpha  occ. eigenvalues --   -0.25930  -0.23788   0.03284
 Alpha virt. eigenvalues --    0.13751   0.20995   0.22267   0.22964   0.23746
 Alpha virt. eigenvalues --    0.26083   0.26840   0.29521   0.31540   0.32040
 Alpha virt. eigenvalues --    0.37204   0.41552   0.42485   0.44353   0.49414

  Beta  occ. eigenvalues --  -20.48230 -11.20737 -11.08847  -1.28472  -0.81397
  Beta  occ. eigenvalues --   -0.66478  -0.53661  -0.44876  -0.41006  -0.25616
  Beta virt. eigenvalues --    0.14003   0.15609   0.20170   0.22326   0.24442
  Beta virt. eigenvalues --    0.24682   0.25357   0.26316   0.27909   0.29660
  Beta virt. eigenvalues --    0.33020   0.34093   0.40275   0.42441   0.44220

 Mulliken charges and spin densities:
               1          2
     1  C   -0.736599   1.524831
     2  C    1.592910  -0.440237
     3  H    0.175554  -0.052494
     4  H   -1.529149   1.866681
     5  O   -0.502715   0.101218
 Sum of Mulliken charges =  -1.00000   3.00000

 Dipole moment (field-independent basis, Debye):
    X=              4.3415    Y=              9.4370    Z=             -0.0014  Tot=             10.3878
 Quadrupole moment (field-independent basis, Debye-Ang):
   XX=            -51.5655   YY=            -46.4045   ZZ=            -31.0492
   XY=            -11.1665   XZ=              0.0009   YZ=              0.0028

 152.1304334\CCSD=-152.1308691\CCSD(T)=-152.1538223\S2=3.771279\S2-1=3.
 Normal termination of Gaussian 09 at Fri Mar  8 10:27:04 2019.
