 Gaussian 09, Revision E.01,
 Gaussian 09:  EM64L-G09RevE.01 30-Nov-2015

 --------------------------------------
 #p ccsd(t,maxcyc=200)/6-311++G(3df,2p)
 --------------------------------------

 -------------
 ccsd(t) iener
 -------------
 Symbolic Z-matrix:
 Charge = -1 Multiplicity = 2

                         Standard orientation:
 ---------------------------------------------------------------------
 Center     Atomic      Atomic             Coordinates (Angstroms)
 Number     Number       Type             X           Y           Z
 ---------------------------------------------------------------------
      1          6           0        0.000000    0.849731   -0.000000
      2          6           0        0.000000   -0.482715    0.000000
      3          1           0       -0.919002   -1.101046   -0.000000
      4          1           0        0.919001   -1.101048    0.000000
 ---------------------------------------------------------------------

 SCF Done:  E(UHF) =  -76.7887192378     A.U. after   18 cycles
 E2 =    -0.3011903487D+00 EUMP2 =    -0.77089909586494D+02
 CCSD(T)
 CCSD(T)= -0.77130056608D+02

 The electronic state is 2-A'.
 Alpha  occ. eigenvalues --  -10.97520 -10.97092  -0.76644  -0.48426  -0.35956
 Alpha  occ. eigenvalues --   -0.18612  -0.12079  -0.06708
 Alpha virt. eigenvalues --    0.17678   0.18869   0.25663   0.27817   0.29685
 Alpha virt. eigenvalues --    0.29955   0.31049   0.34649   0.36239   0.36857
 Alpha virt. eigenvalues --    0.43930   0.45790   0.50063   0.63025   0.65321

  Beta  occ. eigenvalues --  -10.98366 -10.94736  -0.73910  -0.43590  -0.32946
  Beta  occ. eigenvalues --   -0.13023  -0.12625
  Beta virt. eigenvalues --    0.17729   0.18926   0.25936   0.28302   0.28471
  Beta virt. eigenvalues --    0.29419   0.29788   0.34604   0.36523   0.36847
  Beta virt. eigenvalues --    0.43298   0.44172   0.47892   0.52944   0.64023

 Mulliken charges and spin densities:
               1          2
     1  C   -0.844742   1.395374
     2  C   -0.138112  -0.625289
     3  H   -0.008573   0.114958
     4  H   -0.008573   0.114958
 Sum of Mulliken charges =  -1.00000   1.00000

 Dipole moment (field-independent basis, Debye):
    X=             -0.0000    Y=             -3.6292    Z=              0.0000  Tot=              3.6292
 Quadrupole moment (field-independent basis, Debye-Ang):
   XX=            -17.6591   YY=            -24.0330   ZZ=            -19.2324
   XY=             -0.0000   XZ=             -0.0000   YZ=              0.0000

 716\PMP3-0=-77.1128351\MP4SDQ=-77.112074\CCSD=-77.1137154\CCSD(T)=-77.
 Normal termination of Gaussian 09 at Mon Mar 11 21:48:14 2019.
