 Gaussian 09, Revision E.01,
 Gaussian 09:  EM64L-G09RevE.01 30-Nov-2015

 --------------------------------------
 #p ccsd(t,maxcyc=200)/6-311++G(3df,2p)
 --------------------------------------

 -------------
 ccsd(t) iener
 -------------
 Symbolic Z-matrix:
 Charge = -1 Multiplicity = 2

                         Standard orientation:
 ---------------------------------------------------------------------
 Center     Atomic      Atomic             Coordinates (Angstroms)
 Number     Number       Type             X           Y           Z
 ---------------------------------------------------------------------
      1          6           0        0.000000   -0.647361    0.000000
      2          6           0       -0.000000    0.647361   -0.000000
      3          1           0       -0.882738   -1.293682    0.000000
      4          1           0        0.882738    1.293682   -0.000000
 ---------------------------------------------------------------------

 SCF Done:  E(UHF) =  -76.7716432206     A.U. after   15 cycles
 E2 =    -0.3269702689D+00 EUMP2 =    -0.77098613489505D+02
 CCSD(T)
 CCSD(T)= -0.77131780962D+02

 The electronic state is 2-AG.
 Alpha  occ. eigenvalues --  -10.98048 -10.97833  -0.76553  -0.50711  -0.34355
 Alpha  occ. eigenvalues --   -0.22815  -0.12875  -0.02992
 Alpha virt. eigenvalues --    0.18380   0.18438   0.25891   0.28005   0.29383
 Alpha virt. eigenvalues --    0.29783   0.30709   0.35353   0.36232   0.36412
 Alpha virt. eigenvalues --    0.45158   0.45660   0.47998   0.64618   0.68974

  Beta  occ. eigenvalues --  -10.97084 -10.96882  -0.73543  -0.46806  -0.31906
  Beta  occ. eigenvalues --   -0.11848  -0.10151
  Beta virt. eigenvalues --    0.18364   0.18492   0.26609   0.26981   0.28360
  Beta virt. eigenvalues --    0.29583   0.29830   0.34074   0.35909   0.36662
  Beta virt. eigenvalues --    0.42544   0.46074   0.47231   0.49355   0.65156

 Mulliken charges and spin densities:
               1          2
     1  C   -0.558889   0.434434
     2  C   -0.558889   0.434434
     3  H    0.058889   0.065566
     4  H    0.058889   0.065566
 Sum of Mulliken charges =  -1.00000   1.00000

 Dipole moment (field-independent basis, Debye):
    X=              0.0000    Y=              0.0000    Z=              0.0000  Tot=              0.0000
 Quadrupole moment (field-independent basis, Debye-Ang):
   XX=            -19.1723   YY=            -21.2055   ZZ=            -19.3175
   XY=              3.9427   XZ=             -0.0000   YZ=             -0.0000

 9906\PMP3-0=-77.1105446\MP4SDQ=-77.1120255\CCSD=-77.1125567\CCSD(T)=-7
 Normal termination of Gaussian 09 at Mon Mar 11 21:47:59 2019.
