 Gaussian 09, Revision E.01,
 Gaussian 09:  EM64L-G09RevE.01 30-Nov-2015

 --------------------------------------
 #p ccsd(t,maxcyc=200)/6-311++G(3df,2p)
 --------------------------------------

 -------------
 ccsd(t) iener
 -------------
 Symbolic Z-matrix:
 Charge = -1 Multiplicity = 4

                         Standard orientation:
 ---------------------------------------------------------------------
 Center     Atomic      Atomic             Coordinates (Angstroms)
 Number     Number       Type             X           Y           Z
 ---------------------------------------------------------------------
      1          6           0        1.291035   -0.040674    0.000000
      2          6           0       -0.000000    0.440690   -0.000000
      3          1           0        2.123984    0.678922   -0.000000
      4          1           0       -0.995988   -1.223621    0.000000
      5          8           0       -1.109276   -0.231924    0.000000
 ---------------------------------------------------------------------

 SCF Done:  E(UHF) =  -151.591905805     A.U. after   31 cycles
 E2 =    -0.5081468508D+00 EUMP2 =    -0.15210005265578D+03
 CCSD(T)
 CCSD(T)= -0.15215096650D+03

 The electronic state is 4-A".
 Alpha  occ. eigenvalues --  -20.48769 -11.18846 -11.13447  -1.31138  -0.91011
 Alpha  occ. eigenvalues --   -0.70267  -0.56638  -0.48125  -0.47309  -0.36518
 Alpha  occ. eigenvalues --   -0.28295  -0.21346   0.03599
 Alpha virt. eigenvalues --    0.14089   0.20045   0.22950   0.23638   0.24098
 Alpha virt. eigenvalues --    0.25571   0.27348   0.30194   0.31734   0.32236
 Alpha virt. eigenvalues --    0.36295   0.41440   0.42482   0.45676   0.48571

  Beta  occ. eigenvalues --  -20.47741 -11.17569 -11.10354  -1.28201  -0.80605
  Beta  occ. eigenvalues --   -0.65582  -0.53212  -0.43949  -0.41419  -0.20547
  Beta virt. eigenvalues --    0.14306   0.15726   0.18461   0.20837   0.24693
  Beta virt. eigenvalues --    0.25062   0.25785   0.26422   0.27475   0.31322
  Beta virt. eigenvalues --    0.31726   0.33489   0.38923   0.41610   0.45176

 Mulliken charges and spin densities:
               1          2
     1  C   -0.420589   1.525807
     2  C    1.302959  -0.382477
     3  H    0.091161  -0.011155
     4  H   -1.500657   1.892793
     5  O   -0.472873  -0.024967
 Sum of Mulliken charges =  -1.00000   3.00000

 Dipole moment (field-independent basis, Debye):
    X=              6.0186    Y=              8.7112    Z=              0.0000  Tot=             10.5881
 Quadrupole moment (field-independent basis, Debye-Ang):
   XX=            -41.0150   YY=            -53.9337   ZZ=            -30.7068
   XY=            -11.6358   XZ=             -0.0000   YZ=              0.0000

 MP3-0=-152.1171744\MP4SDQ=-152.1234075\CCSD=-152.1251773\CCSD(T)=-152.
 Normal termination of Gaussian 09 at Fri Mar  8 10:23:26 2019.
