 Gaussian 09, Revision E.01,
 Gaussian 09:  EM64L-G09RevE.01 30-Nov-2015

 --------------------------------------
 #p ccsd(t,maxcyc=200)/6-311++G(3df,2p)
 --------------------------------------

 -------------
 ccsd(t) iener
 -------------
 Symbolic Z-matrix:
 Charge = -1 Multiplicity = 2

                         Standard orientation:
 ---------------------------------------------------------------------
 Center     Atomic      Atomic             Coordinates (Angstroms)
 Number     Number       Type             X           Y           Z
 ---------------------------------------------------------------------
      1          6           0       -0.000000    0.000000    0.599770
      2          6           0        0.000000    0.000000   -0.599770
      3          1           0       -0.000000    0.000000    1.669641
      4          1           0        0.000000    0.000000   -1.669641
 ---------------------------------------------------------------------

 SCF Done:  E(UHF) =  -76.8014514762     A.U. after   24 cycles
 E2 =    -0.3127488230D+00 EUMP2 =    -0.77114200299231D+02
 CCSD(T)
 CCSD(T)= -0.77143110353D+02

 The electronic state is 2-SGU.
 Alpha  occ. eigenvalues --  -11.11688 -11.11300  -0.90783  -0.63839  -0.55229
 Alpha  occ. eigenvalues --   -0.28812  -0.28812   0.04647
 Alpha virt. eigenvalues --    0.11441   0.22221   0.22221   0.23402   0.23402
 Alpha virt. eigenvalues --    0.24389   0.27215   0.29361   0.30874   0.36222
 Alpha virt. eigenvalues --    0.36222   0.46550   0.48959   0.55817   0.55817

  Beta  occ. eigenvalues --  -11.11636 -11.11247  -0.90718  -0.63629  -0.55146
  Beta  occ. eigenvalues --   -0.28775  -0.28775
  Beta virt. eigenvalues --    0.15775   0.16351   0.23419   0.23419   0.23869
  Beta virt. eigenvalues --    0.23869   0.25621   0.28809   0.30339   0.32024
  Beta virt. eigenvalues --    0.36713   0.36713   0.47099   0.49459   0.55837

 Mulliken charges and spin densities:
               1          2
     1  C    2.234504  -2.551603
     2  C    2.234504  -2.551603
     3  H   -2.734504   3.051603
     4  H   -2.734504   3.051603
 Sum of Mulliken charges =  -1.00000   1.00000

 Dipole moment (field-independent basis, Debye):
    X=             -0.0000    Y=             -0.0000    Z=             -0.0000  Tot=              0.0000
 Quadrupole moment (field-independent basis, Debye-Ang):
   XX=            -32.4346   YY=            -32.4346   ZZ=            -78.2973
   XY=             -0.0000   XZ=              0.0000   YZ=              0.0000

 2036\PMP3-0=-77.1231916\MP4SDQ=-77.1260901\CCSD=-77.1260489\CCSD(T)=-7
 Normal termination of Gaussian 09 at Mon Mar 11 21:46:46 2019.
