 Gaussian 09, Revision E.01,
 Gaussian 09:  EM64L-G09RevE.01 30-Nov-2015

 --------------------------------------
 #p ccsd(t,maxcyc=200)/6-311++G(3df,2p)
 --------------------------------------

 -------------
 ccsd(t) iener
 -------------
 Symbolic Z-matrix:
 Charge = -1 Multiplicity = 4

                         Standard orientation:
 ---------------------------------------------------------------------
 Center     Atomic      Atomic             Coordinates (Angstroms)
 Number     Number       Type             X           Y           Z
 ---------------------------------------------------------------------
      1          6           0       -0.000000   -0.662885   -0.121079
      2          6           0        0.000000    0.662885   -0.121079
      3          1           0       -0.000000   -1.355654    0.726475
      4          1           0        0.000000    1.355654    0.726475
 ---------------------------------------------------------------------

 SCF Done:  E(UHF) =  -76.6651345101     A.U. after   16 cycles
 E2 =    -0.2734450833D+00 EUMP2 =    -0.76938579593450D+02
 CCSD(T)
 CCSD(T)= -0.76975885712D+02

 The electronic state is 4-B1.
 Alpha  occ. eigenvalues --  -11.01046 -11.00880  -0.81676  -0.54956  -0.39913
 Alpha  occ. eigenvalues --   -0.27774  -0.21927  -0.12262   0.05704
 Alpha virt. eigenvalues --    0.17788   0.18108   0.26978   0.27617   0.28560
 Alpha virt. eigenvalues --    0.30342   0.33324   0.33569   0.34919   0.35380
 Alpha virt. eigenvalues --    0.43804   0.50167   0.62067   0.64688   0.69760

  Beta  occ. eigenvalues --  -10.97891 -10.97742  -0.69759  -0.43552  -0.35678
  Beta  occ. eigenvalues --   -0.09309
  Beta virt. eigenvalues --    0.18033   0.18425   0.22992   0.26433   0.28979
  Beta virt. eigenvalues --    0.30123   0.30491   0.33152   0.34643   0.36618
  Beta virt. eigenvalues --    0.36747   0.42715   0.46088   0.49225   0.54826

 Mulliken charges and spin densities:
               1          2
     1  C   -0.568729   1.473220
     2  C   -0.568729   1.473220
     3  H    0.068729   0.026780
     4  H    0.068729   0.026780
 Sum of Mulliken charges =  -1.00000   3.00000

 Dipole moment (field-independent basis, Debye):
    X=             -0.0000    Y=             -0.0000    Z=              1.3296  Tot=              1.3296
 Quadrupole moment (field-independent basis, Debye-Ang):
   XX=            -24.9248   YY=            -23.9789   ZZ=            -17.4544
   XY=             -0.0000   XZ=              0.0000   YZ=             -0.0000

 304\PMP3-0=-76.9612273\MP4SDQ=-76.9619636\CCSD=-76.9627664\CCSD(T)=-76
 Normal termination of Gaussian 09 at Mon Mar 11 22:11:34 2019.
