 Gaussian 09, Revision E.01,
 Gaussian 09:  EM64L-G09RevE.01 30-Nov-2015

 --------------------------------------
 #p ccsd(t,maxcyc=200)/6-311++G(3df,2p)
 --------------------------------------

 -------------
 ccsd(t) iener
 -------------
 Symbolic Z-matrix:
 Charge = -1 Multiplicity = 2

                         Standard orientation:
 ---------------------------------------------------------------------
 Center     Atomic      Atomic             Coordinates (Angstroms)
 Number     Number       Type             X           Y           Z
 ---------------------------------------------------------------------
      1          6           0       -1.321308    0.024045   -0.000037
      2          6           0       -0.119469   -0.025593    0.000035
      3          1           0       -2.380446    0.050831    0.000078
      4          1           0        1.607064    0.796132   -0.000000
      5          8           0        1.177256   -0.104709   -0.000008
 ---------------------------------------------------------------------

 SCF Done:  E(UHF) =  -151.693094097     A.U. after   28 cycles
 E2 =    -0.5512242983D+00 EUMP2 =    -0.15224431839556D+03
 CCSD(T)
 CCSD(T)= -0.15227943793D+03

 The electronic state is 2-A.
 Alpha  occ. eigenvalues --  -20.47291 -11.16319 -11.07813  -1.28880  -0.88171
 Alpha  occ. eigenvalues --   -0.66225  -0.57008  -0.50489  -0.46413  -0.25125
 Alpha  occ. eigenvalues --   -0.23288   0.02569
 Alpha virt. eigenvalues --    0.12740   0.21107   0.23142   0.23341   0.25174
 Alpha virt. eigenvalues --    0.25449   0.26793   0.29643   0.31917   0.35931
 Alpha virt. eigenvalues --    0.39878   0.41986   0.45255   0.45741   0.46907

  Beta  occ. eigenvalues --  -20.47053 -11.16269 -11.07833  -1.28260  -0.88032
  Beta  occ. eigenvalues --   -0.65733  -0.56964  -0.50242  -0.46168  -0.25110
  Beta  occ. eigenvalues --   -0.23286
  Beta virt. eigenvalues --    0.12945   0.20881   0.22196   0.23416   0.24776
  Beta virt. eigenvalues --    0.26455   0.26958   0.27217   0.31528   0.32556
  Beta virt. eigenvalues --    0.37787   0.40130   0.43474   0.45951   0.46290

 Mulliken charges and spin densities:
               1          2
     1  C    0.519489  -0.551202
     2  C    1.061086  -0.996487
     3  H   -0.095071   0.391008
     4  H   -1.754040   2.115821
     5  O   -0.731465   0.040859
 Sum of Mulliken charges =  -1.00000   1.00000

 Dipole moment (field-independent basis, Debye):
    X=             -8.3636    Y=             -5.5921    Z=              0.0001  Tot=             10.0609
 Quadrupole moment (field-independent basis, Debye-Ang):
   XX=            -52.3009   YY=            -40.5764   ZZ=            -31.8478
   XY=            -12.4963   XZ=             -0.0004   YZ=              0.0000

 DQ=-152.2525981\CCSD=-152.2521185\CCSD(T)=-152.2794379\S2=0.750457\S2-
 Normal termination of Gaussian 09 at Fri Mar  8 10:10:20 2019.
