 Gaussian 09, Revision E.01,
 Gaussian 09:  EM64L-G09RevE.01 30-Nov-2015

 --------------------------------------
 #p ccsd(t,maxcyc=200)/6-311++G(3df,2p)
 --------------------------------------

 -------------
 ccsd(t) iener
 -------------
 Symbolic Z-matrix:
 Charge = -1 Multiplicity = 4

                         Standard orientation:
 ---------------------------------------------------------------------
 Center     Atomic      Atomic             Coordinates (Angstroms)
 Number     Number       Type             X           Y           Z
 ---------------------------------------------------------------------
      1          6           0        1.344563    0.016705    0.000003
      2          6           0        0.076604   -0.437434    0.000009
      3          1           0        1.653211    1.058962   -0.000040
      4          1           0       -1.157821    1.056232    0.000066
      5          8           0       -1.127799    0.051147   -0.000012
 ---------------------------------------------------------------------

 SCF Done:  E(UHF) =  -151.585230049     A.U. after   43 cycles
 E2 =    -0.5053187271D+00 EUMP2 =    -0.15209054877605D+03
 CCSD(T)
 CCSD(T)= -0.15214041619D+03

 The electronic state is 4-A.
 Alpha  occ. eigenvalues --  -20.49538 -11.21376 -11.10703  -1.32224  -0.91227
 Alpha  occ. eigenvalues --   -0.71254  -0.54995  -0.52707  -0.50271  -0.32313
 Alpha  occ. eigenvalues --   -0.26969  -0.21694   0.02404
 Alpha virt. eigenvalues --    0.16578   0.19923   0.22737   0.23638   0.24357
 Alpha virt. eigenvalues --    0.26242   0.26595   0.30436   0.31895   0.32606
 Alpha virt. eigenvalues --    0.36759   0.41912   0.42365   0.43720   0.47478

  Beta  occ. eigenvalues --  -20.48296 -11.18356 -11.08735  -1.28398  -0.81214
  Beta  occ. eigenvalues --   -0.65771  -0.51105  -0.47939  -0.42214  -0.18619
  Beta virt. eigenvalues --    0.15848   0.17459   0.18375   0.23220   0.23755
  Beta virt. eigenvalues --    0.25203   0.26676   0.26919   0.27084   0.28626
  Beta virt. eigenvalues --    0.32242   0.33839   0.41406   0.41679   0.44370

 Mulliken charges and spin densities:
               1          2
     1  C   -0.616884   0.761160
     2  C    1.711010   0.032342
     3  H   -0.312450   0.558412
     4  H   -1.234141   1.636987
     5  O   -0.547535   0.011100
 Sum of Mulliken charges =  -1.00000   3.00000

 Dipole moment (field-independent basis, Debye):
    X=              2.8056    Y=             -6.7836    Z=             -0.0004  Tot=              7.3409
 Quadrupole moment (field-independent basis, Debye-Ang):
   XX=            -45.9989   YY=            -49.8001   ZZ=            -30.9503
   XY=             11.4217   XZ=              0.0003   YZ=             -0.0006

 2.1129952\CCSD=-152.1150497\CCSD(T)=-152.1404162\S2=3.775638\S2-1=3.75
 Normal termination of Gaussian 09 at Fri Mar  8 10:10:39 2019.
