 Gaussian 09, Revision E.01,
 Gaussian 09:  EM64L-G09RevE.01 30-Nov-2015

 --------------------------------------
 #p ccsd(t,maxcyc=200)/6-311++G(3df,2p)
 --------------------------------------

 -------------
 ccsd(t) iener
 -------------
 Symbolic Z-matrix:
 Charge = -1 Multiplicity = 4

                         Standard orientation:
 ---------------------------------------------------------------------
 Center     Atomic      Atomic             Coordinates (Angstroms)
 Number     Number       Type             X           Y           Z
 ---------------------------------------------------------------------
      1          6           0        1.184372    0.099973   -0.000007
      2          6           0       -0.147730   -0.409813   -0.000001
      3          1           0        2.037630   -0.574720    0.000023
      4          1           0        1.388303    1.168773    0.000012
      5          8           0       -1.205723    0.158123    0.000001
 ---------------------------------------------------------------------

 SCF Done:  E(UHF) =  -151.690078335     A.U. after   30 cycles
 E2 =    -0.5027370614D+00 EUMP2 =    -0.15219281539659D+03
 CCSD(T)
 CCSD(T)= -0.15223771857D+03

 The electronic state is 4-A.
 Alpha  occ. eigenvalues --  -20.47816 -11.20474 -11.14898  -1.31964  -0.92316
 Alpha  occ. eigenvalues --   -0.65210  -0.55512  -0.54233  -0.49134  -0.44744
 Alpha  occ. eigenvalues --   -0.29307  -0.24798   0.03620
 Alpha virt. eigenvalues --    0.15479   0.18724   0.22114   0.23471   0.23852
 Alpha virt. eigenvalues --    0.25186   0.28647   0.31311   0.31507   0.31846
 Alpha virt. eigenvalues --    0.37307   0.40612   0.42225   0.44278   0.45602

  Beta  occ. eigenvalues --  -20.45189 -11.18911 -11.12367  -1.25845  -0.81540
  Beta  occ. eigenvalues --   -0.59290  -0.50153  -0.47404  -0.39115  -0.36320
  Beta virt. eigenvalues --    0.16400   0.16814   0.19037   0.20373   0.23926
  Beta virt. eigenvalues --    0.24408   0.25264   0.27737   0.28757   0.31811
  Beta virt. eigenvalues --    0.33446   0.33650   0.38644   0.40259   0.41917

 Mulliken charges and spin densities:
               1          2
     1  C    2.112820  -1.310816
     2  C    0.036840   1.128421
     3  H   -1.919779   2.038215
     4  H   -0.566630   0.704581
     5  O   -0.663251   0.439598
 Sum of Mulliken charges =  -1.00000   3.00000

 Dipole moment (field-independent basis, Debye):
    X=             -9.9041    Y=              1.2005    Z=             -0.0002  Tot=              9.9766
 Quadrupole moment (field-independent basis, Debye-Ang):
   XX=            -71.4660   YY=            -42.2744   ZZ=            -32.7444
   XY=              6.7520   XZ=             -0.0005   YZ=              0.0002

 2142915\CCSD=-152.2137542\CCSD(T)=-152.2377186\S2=3.795258\S2-1=3.7701
 Normal termination of Gaussian 09 at Fri Mar  8 10:27:13 2019.
