 Gaussian 09, Revision E.01,
 Gaussian 09:  EM64L-G09RevE.01 30-Nov-2015

 --------------------------------------
 #p ccsd(t,maxcyc=200)/6-311++G(3df,2p)
 --------------------------------------

 -------------
 ccsd(t) iener
 -------------
 Symbolic Z-matrix:
 Charge = -1 Multiplicity = 4

                         Standard orientation:
 ---------------------------------------------------------------------
 Center     Atomic      Atomic             Coordinates (Angstroms)
 Number     Number       Type             X           Y           Z
 ---------------------------------------------------------------------
      1          6           0        0.000000    0.000000    0.831745
      2          6           0       -0.000000   -0.000000   -0.479747
      3          1           0        0.822366    0.434981   -1.055994
      4          1           0       -0.822366   -0.434981   -1.055994
 ---------------------------------------------------------------------

 SCF Done:  E(UHF) =  -76.6649098951     A.U. after   24 cycles
 E2 =    -0.2659541087D+00 EUMP2 =    -0.76930864003768D+02
 CCSD(T)
 CCSD(T)= -0.76971090356D+02

 The electronic state is 4-A.
 Alpha  occ. eigenvalues --  -11.05274 -11.00315  -0.83269  -0.54711  -0.39443
 Alpha  occ. eigenvalues --   -0.34857  -0.23726  -0.15638   0.07866
 Alpha virt. eigenvalues --    0.18041   0.19201   0.22337   0.27756   0.28060
 Alpha virt. eigenvalues --    0.29061   0.33781   0.34078   0.35869   0.36005
 Alpha virt. eigenvalues --    0.44087   0.50576   0.60808   0.64384   0.67047

  Beta  occ. eigenvalues --  -11.00759 -10.98835  -0.75352  -0.42096  -0.34980
  Beta  occ. eigenvalues --   -0.14104
  Beta virt. eigenvalues --    0.18023   0.19453   0.20947   0.26209   0.27690
  Beta virt. eigenvalues --    0.28823   0.29883   0.30866   0.35982   0.36678
  Beta virt. eigenvalues --    0.38052   0.41887   0.45746   0.48802   0.53412

 Mulliken charges and spin densities:
               1          2
     1  C   -0.168032   2.629088
     2  C   -0.972198   0.239570
     3  H    0.070115   0.065671
     4  H    0.070115   0.065671
 Sum of Mulliken charges =  -1.00000   3.00000

 Dipole moment (field-independent basis, Debye):
    X=             -0.0000    Y=             -0.0000    Z=              1.8761  Tot=              1.8761
 Quadrupole moment (field-independent basis, Debye-Ang):
   XX=            -20.5107   YY=            -26.4615   ZZ=            -24.4946
   XY=              4.3703   XZ=              0.0000   YZ=             -0.0000

 26\PMP3-0=-76.952279\MP4SDQ=-76.9533036\CCSD=-76.9576884\CCSD(T)=-76.9
 Normal termination of Gaussian 09 at Mon Mar 11 21:48:31 2019.
