 Gaussian 09, Revision E.01,
 Gaussian 09:  EM64L-G09RevE.01 30-Nov-2015

 --------------------------------------
 #p ccsd(t,maxcyc=200)/6-311++G(3df,2p)
 --------------------------------------

 -------------
 ccsd(t) iener
 -------------
 Symbolic Z-matrix:
 Charge = -1 Multiplicity = 4

                         Standard orientation:
 ---------------------------------------------------------------------
 Center     Atomic      Atomic             Coordinates (Angstroms)
 Number     Number       Type             X           Y           Z
 ---------------------------------------------------------------------
      1          6           0        1.424767   -0.254390    0.000012
      2          6           0        0.158870    0.362699   -0.000037
      3          1           0        0.034079    1.449137    0.000081
      4          1           0       -1.768287    0.324159    0.000003
      5          8           0       -0.970951   -0.302894    0.000008
 ---------------------------------------------------------------------

 SCF Done:  E(UHF) =  -151.620404255     A.U. after   28 cycles
 E2 =    -0.4963511821D+00 EUMP2 =    -0.15211675543669D+03
 CCSD(T)
 CCSD(T)= -0.15216566260D+03

 The electronic state is 4-A.
 Alpha  occ. eigenvalues --  -20.50010 -11.20718 -11.11346  -1.32421  -0.91032
 Alpha  occ. eigenvalues --   -0.66240  -0.64084  -0.50802  -0.45556  -0.31715
 Alpha  occ. eigenvalues --   -0.25491  -0.23291   0.01189
 Alpha virt. eigenvalues --    0.16259   0.20964   0.22629   0.22918   0.24452
 Alpha virt. eigenvalues --    0.25584   0.26183   0.30654   0.31456   0.31915
 Alpha virt. eigenvalues --    0.36915   0.40313   0.41604   0.45918   0.49159

  Beta  occ. eigenvalues --  -20.48628 -11.20190 -11.08443  -1.28910  -0.81081
  Beta  occ. eigenvalues --   -0.61397  -0.59808  -0.42468  -0.41690  -0.25468
  Beta virt. eigenvalues --    0.16011   0.17109   0.19813   0.22173   0.23247
  Beta virt. eigenvalues --    0.25530   0.25988   0.26266   0.29084   0.30825
  Beta virt. eigenvalues --    0.32910   0.34957   0.39494   0.40175   0.43340

 Mulliken charges and spin densities:
               1          2
     1  C   -0.536584   1.338685
     2  C    2.064690  -0.941412
     3  H   -0.754211   0.916260
     4  H   -1.127629   1.485182
     5  O   -0.646266   0.201284
 Sum of Mulliken charges =  -1.00000   3.00000

 Dipole moment (field-independent basis, Debye):
    X=              5.1436    Y=             -2.4715    Z=             -0.0003  Tot=              5.7066
 Quadrupole moment (field-independent basis, Debye-Ang):
   XX=            -61.2361   YY=            -39.6734   ZZ=            -30.7294
   XY=              8.5714   XZ=             -0.0001   YZ=             -0.0003

 Q=-152.142369\CCSD=-152.1426622\CCSD(T)=-152.1656626\S2=3.770499\S2-1=
 Normal termination of Gaussian 09 at Fri Mar  8 10:23:35 2019.
