 Gaussian 09, Revision E.01,
 Gaussian 09:  EM64L-G09RevE.01 30-Nov-2015

 --------------------------------------
 #p ccsd(t,maxcyc=200)/6-311++G(3df,2p)
 --------------------------------------

 -------------
 ccsd(t) iener
 -------------
 Symbolic Z-matrix:
 Charge = -1 Multiplicity = 4

                         Standard orientation:
 ---------------------------------------------------------------------
 Center     Atomic      Atomic             Coordinates (Angstroms)
 Number     Number       Type             X           Y           Z
 ---------------------------------------------------------------------
      1          6           0       -0.156954   -0.154149   -0.013688
      2          6           0        0.965757   -0.824476    0.053264
      3          6           0        1.160409    0.599439   -0.145013
      4          1           0       -1.740705    0.955349    0.006327
      5          1           0        1.457641    1.388051    0.552553
      6          8           0       -1.441527   -0.008535    0.009217
 ---------------------------------------------------------------------

 SCF Done:  E(UHF) =  -189.442651987     A.U. after   32 cycles
 E2 =    -0.6631392413D+00 EUMP2 =    -0.19010579122821D+03
 CCSD(T)
 CCSD(T)= -0.19016155360D+03

 The electronic state is 4-A.
 Alpha  occ. eigenvalues --  -20.48669 -11.21023 -11.14307 -11.13784  -1.30763
 Alpha  occ. eigenvalues --   -1.06055  -0.72009  -0.66374  -0.55357  -0.49448
 Alpha  occ. eigenvalues --   -0.47399  -0.42120  -0.35877  -0.26299  -0.17467
 Alpha  occ. eigenvalues --    0.02003
 Alpha virt. eigenvalues --    0.15282   0.18124   0.20559   0.22205   0.23959
 Alpha virt. eigenvalues --    0.24505   0.25434   0.25816   0.27797   0.28419
 Alpha virt. eigenvalues --    0.32204   0.32507   0.33857   0.34375   0.39042

  Beta  occ. eigenvalues --  -20.48548 -11.21287 -11.11516 -11.10758  -1.30397
  Beta  occ. eigenvalues --   -1.01624  -0.69173  -0.59457  -0.52642  -0.48725
  Beta  occ. eigenvalues --   -0.38418  -0.33519  -0.25614
  Beta virt. eigenvalues --    0.14778   0.16468   0.20175   0.20784   0.21875
  Beta virt. eigenvalues --    0.23094   0.23420   0.25131   0.25864   0.27524
  Beta virt. eigenvalues --    0.28692   0.30745   0.31515   0.34053   0.34183

 Mulliken charges and spin densities:
               1          2
     1  C    0.636126  -0.314218
     2  C    1.680980  -0.693817
     3  C   -0.421032   1.285410
     4  H   -1.839848   2.223228
     5  H   -0.230392   0.378060
     6  O   -0.825834   0.121339
 Sum of Mulliken charges =  -1.00000   3.00000

 Dipole moment (field-independent basis, Debye):
    X=              7.7559    Y=             -6.4116    Z=             -0.2503  Tot=             10.0661
 Quadrupole moment (field-independent basis, Debye-Ang):
   XX=            -62.9854   YY=            -51.1826   ZZ=            -38.1443
   XY=             16.4472   XZ=              1.5616   YZ=             -0.8944

 Normal termination of Gaussian 09 at Fri Mar  8 11:32:27 2019.
