 Gaussian 09, Revision E.01,
 Gaussian 09:  EM64L-G09RevE.01 30-Nov-2015

 --------------------------------------
 #p ccsd(t,maxcyc=200)/6-311++G(3df,2p)
 --------------------------------------

 -------------
 ccsd(t) iener
 -------------
 Symbolic Z-matrix:
 Charge = -1 Multiplicity = 2

                         Standard orientation:
 ---------------------------------------------------------------------
 Center     Atomic      Atomic             Coordinates (Angstroms)
 Number     Number       Type             X           Y           Z
 ---------------------------------------------------------------------
      1          6           0        0.832257    0.145004   -0.000039
      2          6           0        2.016861   -0.295311    0.000037
      3          6           0       -0.466037    0.560262   -0.000082
      4          1           0       -1.124406   -1.220100    0.000119
      5          1           0       -0.826968    1.578697    0.000341
      6          8           0       -1.543389   -0.352291    0.000006
 ---------------------------------------------------------------------

 SCF Done:  E(UHF) =  -189.570704149     A.U. after   26 cycles
 E2 =    -0.6768938580D+00 EUMP2 =    -0.19024759800751D+03
 CCSD(T)
 CCSD(T)= -0.19030755617D+03

 The electronic state is 2-A.
 Alpha  occ. eigenvalues --  -20.41343 -11.10845 -10.99237 -10.97649  -1.21365
 Alpha  occ. eigenvalues --   -0.82543  -0.72049  -0.56685  -0.45240  -0.42240
 Alpha  occ. eigenvalues --   -0.39843  -0.23291  -0.20944  -0.14803  -0.09682
 Alpha virt. eigenvalues --    0.15794   0.17438   0.22459   0.24755   0.24779
 Alpha virt. eigenvalues --    0.27549   0.28610   0.29845   0.30946   0.31207
 Alpha virt. eigenvalues --    0.33512   0.33717   0.38650   0.39839   0.42730

  Beta  occ. eigenvalues --  -20.41090 -11.08734 -10.99095 -10.97549  -1.20425
  Beta  occ. eigenvalues --   -0.81256  -0.66650  -0.55550  -0.45067  -0.39598
  Beta  occ. eigenvalues --   -0.36841  -0.17304  -0.17091  -0.15508
  Beta virt. eigenvalues --    0.15833   0.17471   0.22539   0.24467   0.24829
  Beta virt. eigenvalues --    0.26903   0.27569   0.28257   0.31300   0.31492
  Beta virt. eigenvalues --    0.33871   0.34401   0.36070   0.38743   0.40476

 Mulliken charges and spin densities:
               1          2
     1  C    0.364006  -1.027783
     2  C   -0.808793   1.080497
     3  C   -0.175468   1.042670
     4  H    0.240921  -0.002730
     5  H    0.124047  -0.094084
     6  O   -0.744713   0.001431
 Sum of Mulliken charges =  -1.00000   1.00000

 Dipole moment (field-independent basis, Debye):
    X=             -6.4253    Y=              0.6088    Z=              0.0004  Tot=              6.4541
 Quadrupole moment (field-independent basis, Debye-Ang):
   XX=            -51.9258   YY=            -25.6490   ZZ=            -29.2565
   XY=              2.9882   XZ=             -0.0009   YZ=              0.0005

 \PMP3-0=-190.270181\MP4SDQ=-190.2692454\CCSD=-190.2717415\CCSD(T)=-190
 Normal termination of Gaussian 09 at Fri Mar  8 11:20:59 2019.
