 Gaussian 09, Revision E.01,
 Gaussian 09:  EM64L-G09RevE.01 30-Nov-2015

 --------------------------------------
 #p ccsd(t,maxcyc=200)/6-311++G(3df,2p)
 --------------------------------------

 -------------
 ccsd(t) iener
 -------------
 Symbolic Z-matrix:
 Charge = -1 Multiplicity = 2

                         Standard orientation:
 ---------------------------------------------------------------------
 Center     Atomic      Atomic             Coordinates (Angstroms)
 Number     Number       Type             X           Y           Z
 ---------------------------------------------------------------------
      1          6           0        1.997208   -0.327466    0.054606
      2          6           0        0.824642    0.061337   -0.013175
      3          6           0       -1.853812   -0.399160    0.106154
      4          1           0       -0.628434    1.262628    0.444237
      5          1           0       -1.408494   -1.345479   -0.260263
      6          8           0       -0.471412    0.509323   -0.133686
 ---------------------------------------------------------------------

 SCF Done:  E(UHF) =  -189.399494818     A.U. after   27 cycles
 E2 =    -0.6790646324D+00 EUMP2 =    -0.19007855945023D+03
 CCSD(T)
 CCSD(T)= -0.19013590116D+03

 The electronic state is 2-A.
 Alpha  occ. eigenvalues --  -20.51664 -11.10558 -11.05093 -10.99679  -1.30834
 Alpha  occ. eigenvalues --   -0.79481  -0.72719  -0.65109  -0.52021  -0.46311
 Alpha  occ. eigenvalues --   -0.26237  -0.20770  -0.20084  -0.16430  -0.15190
 Alpha virt. eigenvalues --    0.15711   0.17323   0.22836   0.23905   0.25166
 Alpha virt. eigenvalues --    0.25604   0.26635   0.28271   0.28962   0.30318
 Alpha virt. eigenvalues --    0.31220   0.33400   0.36355   0.37382   0.38084

  Beta  occ. eigenvalues --  -20.51512 -11.08200 -11.05068 -10.99692  -1.30329
  Beta  occ. eigenvalues --   -0.79052  -0.66749  -0.64906  -0.49883  -0.44420
  Beta  occ. eigenvalues --   -0.22159  -0.20103  -0.16614  -0.15222
  Beta virt. eigenvalues --    0.15738   0.17421   0.21619   0.23236   0.24952
  Beta virt. eigenvalues --    0.25463   0.26497   0.28339   0.28989   0.29807
  Beta virt. eigenvalues --    0.31732   0.33444   0.36367   0.36779   0.37582

 Mulliken charges and spin densities:
               1          2
     1  C   -0.962743  -0.008504
     2  C    0.415305   0.017515
     3  C   -0.335774   1.120581
     4  H    0.299574  -0.000916
     5  H    0.087267  -0.072973
     6  O   -0.503629  -0.055703
 Sum of Mulliken charges =  -1.00000   1.00000

 Dipole moment (field-independent basis, Debye):
    X=             -4.2363    Y=              2.7305    Z=             -0.1437  Tot=              5.0420
 Quadrupole moment (field-independent basis, Debye-Ang):
   XX=            -58.8317   YY=            -26.0065   ZZ=            -29.8776
   XY=              2.3692   XZ=              0.4810   YZ=              1.9870

 Normal termination of Gaussian 09 at Fri Mar  8 11:25:03 2019.
