 Gaussian 09, Revision E.01,
 Gaussian 09:  EM64L-G09RevE.01 30-Nov-2015

 --------------------------------------
 #p ccsd(t,maxcyc=200)/6-311++G(3df,2p)
 --------------------------------------

 -------------
 ccsd(t) iener
 -------------
 Symbolic Z-matrix:
 Charge = -1 Multiplicity = 4

                         Standard orientation:
 ---------------------------------------------------------------------
 Center     Atomic      Atomic             Coordinates (Angstroms)
 Number     Number       Type             X           Y           Z
 ---------------------------------------------------------------------
      1          6           0       -0.766903   -0.294413    0.000014
      2          6           0       -2.113666   -0.033966   -0.000011
      3          6           0        0.379209    0.442441   -0.000005
      4          1           0        1.477137   -1.099697    0.000069
      5          1           0        0.427953    1.527355    0.000062
      6          8           0        1.637884   -0.139004   -0.000015
 ---------------------------------------------------------------------

 SCF Done:  E(UHF) =  -189.462602447     A.U. after   29 cycles
 E2 =    -0.6394331145D+00 EUMP2 =    -0.19010203556137D+03
 CCSD(T)
 CCSD(T)= -0.19017665622D+03

 The electronic state is 4-A.
 Alpha  occ. eigenvalues --  -20.42430 -11.10049 -11.04661 -11.00154  -1.23191
 Alpha  occ. eigenvalues --   -0.87237  -0.71916  -0.59041  -0.47478  -0.43453
 Alpha  occ. eigenvalues --   -0.41281  -0.28218  -0.24265  -0.23580  -0.08987
 Alpha  occ. eigenvalues --   -0.04004
 Alpha virt. eigenvalues --    0.16104   0.16702   0.23331   0.25281   0.25568
 Alpha virt. eigenvalues --    0.26797   0.27669   0.29154   0.30033   0.31884
 Alpha virt. eigenvalues --    0.32694   0.33725   0.36931   0.37254   0.43105

  Beta  occ. eigenvalues --  -20.41925 -11.08079 -11.03919 -10.96812  -1.21408
  Beta  occ. eigenvalues --   -0.78939  -0.63543  -0.53797  -0.44598  -0.38555
  Beta  occ. eigenvalues --   -0.38116  -0.17558  -0.14512
  Beta virt. eigenvalues --    0.15680   0.16872   0.21616   0.24020   0.25279
  Beta virt. eigenvalues --    0.25833   0.27375   0.27606   0.29801   0.30494
  Beta virt. eigenvalues --    0.31292   0.33873   0.34397   0.36789   0.36951

 Mulliken charges and spin densities:
               1          2
     1  C    0.340584   0.266103
     2  C   -1.055804   1.851090
     3  C    0.249198   0.735400
     4  H    0.195243   0.067192
     5  H   -0.002508   0.084685
     6  O   -0.726713  -0.004469
 Sum of Mulliken charges =  -1.00000   3.00000

 Dipole moment (field-independent basis, Debye):
    X=              7.0234    Y=             -1.0599    Z=              0.0001  Tot=              7.1029
 Quadrupole moment (field-independent basis, Debye-Ang):
   XX=            -54.5686   YY=            -27.4382   ZZ=            -30.0825
   XY=              0.3930   XZ=              0.0003   YZ=              0.0000

 Normal termination of Gaussian 09 at Fri Mar  8 11:51:00 2019.
