 Gaussian 09, Revision E.01,
 Gaussian 09:  EM64L-G09RevE.01 30-Nov-2015

 --------------------------------------
 #p ccsd(t,maxcyc=200)/6-311++G(3df,2p)
 --------------------------------------

 -------------
 ccsd(t) iener
 -------------
 Symbolic Z-matrix:
 Charge = -1 Multiplicity = 4

                         Standard orientation:
 ---------------------------------------------------------------------
 Center     Atomic      Atomic             Coordinates (Angstroms)
 Number     Number       Type             X           Y           Z
 ---------------------------------------------------------------------
      1          6           0       -1.128324    0.596149    0.092552
      2          6           0        2.593928   -0.352397    0.230520
      3          6           0        0.216224    0.449132   -0.462473
      4          6           0        1.379634    0.027304   -0.059659
      5          1           0       -1.555879   -1.133598   -0.565820
      6          1           0       -1.283036    1.155101    1.016806
      7          8           0       -1.941232   -0.542829    0.092922
 ---------------------------------------------------------------------

 SCF Done:  E(UHF) =  -227.375254925     A.U. after   24 cycles
 E2 =    -0.7693307972D+00 EUMP2 =    -0.22814458572206D+03
 CCSD(T)
 CCSD(T)= -0.22822846038D+03

 The electronic state is 4-A.
 Alpha  occ. eigenvalues --  -20.44447 -11.14786 -11.06412 -11.01590 -11.01344
 Alpha  occ. eigenvalues --   -1.25343  -0.89566  -0.79404  -0.69923  -0.56699
 Alpha  occ. eigenvalues --   -0.49475  -0.46437  -0.42093  -0.31544  -0.27526
 Alpha  occ. eigenvalues --   -0.24123  -0.19369  -0.13250  -0.12437
 Alpha virt. eigenvalues --    0.15491   0.16182   0.21490   0.22206   0.24105
 Alpha virt. eigenvalues --    0.25019   0.26633   0.27128   0.28524   0.28864
 Alpha virt. eigenvalues --    0.30270   0.31297   0.32470   0.33254   0.33886

  Beta  occ. eigenvalues --  -20.43647 -11.12390 -11.03099 -11.02896 -10.98854
  Beta  occ. eigenvalues --   -1.22765  -0.83928  -0.72386  -0.61904  -0.53846
  Beta  occ. eigenvalues --   -0.46473  -0.38928  -0.37627  -0.20825  -0.20296
  Beta  occ. eigenvalues --   -0.17609
  Beta virt. eigenvalues --    0.15315   0.16220   0.20426   0.21975   0.23774
  Beta virt. eigenvalues --    0.24073   0.24821   0.25861   0.26881   0.27640
  Beta virt. eigenvalues --    0.28838   0.30110   0.31171   0.33406   0.33785

 Mulliken charges and spin densities:
               1          2
     1  C    0.191766   0.940092
     2  C   -0.983460   1.687056
     3  C   -0.679278   1.370295
     4  C    0.825327  -1.038917
     5  H    0.247426   0.000439
     6  H    0.080819  -0.000116
     7  O   -0.682599   0.041149
 Sum of Mulliken charges =  -1.00000   3.00000

 Dipole moment (field-independent basis, Debye):
    X=             -7.6393    Y=              0.5357    Z=             -0.6901  Tot=              7.6891
 Quadrupole moment (field-independent basis, Debye-Ang):
   XX=            -67.4416   YY=            -33.8582   ZZ=            -34.1968
   XY=              3.9078   XZ=             -1.6128   YZ=              3.2354

 91\CCSD=-228.1864262\CCSD(T)=-228.2284604\S2=4.032808\S2-1=3.925083\S2
 Normal termination of Gaussian 09 at Fri Mar  8 16:02:13 2019.
