 Gaussian 09, Revision E.01,
 Gaussian 09:  EM64L-G09RevE.01 30-Nov-2015

 --------------------------------------
 #p ccsd(t,maxcyc=200)/6-311++G(3df,2p)
 --------------------------------------

 -------------
 ccsd(t) iener
 -------------
 Symbolic Z-matrix:
 Charge = -1 Multiplicity = 2

                         Standard orientation:
 ---------------------------------------------------------------------
 Center     Atomic      Atomic             Coordinates (Angstroms)
 Number     Number       Type             X           Y           Z
 ---------------------------------------------------------------------
      1          6           0        1.014783   -0.441535    0.000069
      2          6           0       -1.726064   -0.660141    0.000191
      3          6           0       -1.440026    0.684006   -0.000026
      4          6           0       -0.358597   -0.159964   -0.000397
      5          1           0       -1.832190    1.690408    0.000358
      6          1           0        1.264769   -1.519941    0.000100
      7          8           0        1.953356    0.411917    0.000064
 ---------------------------------------------------------------------

 SCF Done:  E(UHF) =  -227.433346971     A.U. after   23 cycles
 E2 =    -0.8326780457D+00 EUMP2 =    -0.22826602501644D+03
 CCSD(T)
 CCSD(T)= -0.22832666321D+03

 The electronic state is 2-A.
 Alpha  occ. eigenvalues --  -20.34615 -11.09256 -11.07647 -11.07043 -11.04942
 Alpha  occ. eigenvalues --   -1.16666  -1.00373  -0.75326  -0.58925  -0.52156
 Alpha  occ. eigenvalues --   -0.43710  -0.40900  -0.40317  -0.30784  -0.28879
 Alpha  occ. eigenvalues --   -0.23666  -0.16941  -0.08043
 Alpha virt. eigenvalues --    0.14550   0.17048   0.21906   0.23464   0.23472
 Alpha virt. eigenvalues --    0.24459   0.25391   0.27875   0.28015   0.28266
 Alpha virt. eigenvalues --    0.30128   0.31492   0.32554   0.33212   0.35217

  Beta  occ. eigenvalues --  -20.32383 -11.08979 -11.07330 -11.06518 -11.05054
  Beta  occ. eigenvalues --   -1.11355  -0.99423  -0.70855  -0.57966  -0.51172
  Beta  occ. eigenvalues --   -0.41883  -0.40207  -0.29407  -0.28418  -0.21639
  Beta  occ. eigenvalues --   -0.20949  -0.16801
  Beta virt. eigenvalues --    0.14578   0.17063   0.21909   0.23492   0.23535
  Beta virt. eigenvalues --    0.24484   0.24856   0.26691   0.27969   0.28346
  Beta virt. eigenvalues --    0.30165   0.30179   0.31584   0.32725   0.34621

 Mulliken charges and spin densities:
               1          2
     1  C    0.051716   0.123784
     2  C   -0.592906  -0.064900
     3  C    0.103085   0.469214
     4  C    0.116625   0.090390
     5  H    0.181266  -0.024763
     6  H    0.041633  -0.036828
     7  O   -0.901419   0.443102
 Sum of Mulliken charges =  -1.00000   1.00000

 Dipole moment (field-independent basis, Debye):
    X=             -0.2746    Y=              1.4963    Z=             -0.0004  Tot=              1.5213
 Quadrupole moment (field-independent basis, Debye-Ang):
   XX=            -54.2083   YY=            -35.0696   ZZ=            -33.0382
   XY=             -9.4981   XZ=              0.0008   YZ=              0.0016

 805\CCSD=-228.2817659\CCSD(T)=-228.3266632\S2=0.794249\S2-1=0.770179\S
 Normal termination of Gaussian 09 at Fri Mar  8 12:29:22 2019.
