 Gaussian 09, Revision E.01,
 Gaussian 09:  EM64L-G09RevE.01 30-Nov-2015

 --------------------------------------
 #p ccsd(t,maxcyc=200)/6-311++G(3df,2p)
 --------------------------------------

 -------------
 ccsd(t) iener
 -------------
 Symbolic Z-matrix:
 Charge = -1 Multiplicity = 2

                         Standard orientation:
 ---------------------------------------------------------------------
 Center     Atomic      Atomic             Coordinates (Angstroms)
 Number     Number       Type             X           Y           Z
 ---------------------------------------------------------------------
      1          6           0        0.554714   -1.048971   -0.000014
      2          6           0       -0.975877    0.567780   -0.000008
      3          8           0       -0.824376   -0.795493   -0.000007
      4          6           0        0.236067    1.183492   -0.000044
      5          6           0        1.231565    0.158301    0.000045
      6          1           0       -1.988159    0.941766    0.000173
      7          1           0        2.304349    0.258565    0.000013
 ---------------------------------------------------------------------

 SCF Done:  E(UHF) =  -227.382439693     A.U. after   43 cycles
 E2 =    -0.8570533439D+00 EUMP2 =    -0.22823949303726D+03
 CCSD(T)
 CCSD(T)= -0.22831251236D+03

 The electronic state is 2-A.
 Alpha  occ. eigenvalues --  -20.40776 -11.09636 -11.06701 -11.03099 -11.01856
 Alpha  occ. eigenvalues --   -1.23494  -0.87259  -0.78140  -0.58097  -0.54630
 Alpha  occ. eigenvalues --   -0.49253  -0.41832  -0.36941  -0.34724  -0.25044
 Alpha  occ. eigenvalues --   -0.18892  -0.17986  -0.12175
 Alpha virt. eigenvalues --    0.15565   0.16105   0.22634   0.23221   0.24948
 Alpha virt. eigenvalues --    0.25051   0.27908   0.28630   0.29321   0.29630
 Alpha virt. eigenvalues --    0.30672   0.30903   0.31453   0.33347   0.34483

  Beta  occ. eigenvalues --  -20.40752 -11.07533 -11.06827 -11.03835 -10.99741
  Beta  occ. eigenvalues --   -1.22636  -0.85315  -0.76002  -0.57486  -0.50519
  Beta  occ. eigenvalues --   -0.46821  -0.42119  -0.36722  -0.33286  -0.19787
  Beta  occ. eigenvalues --   -0.11951  -0.04373
  Beta virt. eigenvalues --    0.15497   0.16211   0.18191   0.23509   0.24427
  Beta virt. eigenvalues --    0.25105   0.27076   0.28327   0.28690   0.28870
  Beta virt. eigenvalues --    0.29761   0.30485   0.31245   0.31523   0.33439

 Mulliken charges and spin densities:
               1          2
     1  C   -0.004566   1.425867
     2  C   -0.239172  -0.896202
     3  O   -0.784218  -0.040772
     4  C    0.214333   1.582853
     5  C   -0.291913  -1.037281
     6  H    0.088640   0.030610
     7  H    0.016896  -0.065074
 Sum of Mulliken charges =  -1.00000   1.00000

 Dipole moment (field-independent basis, Debye):
    X=             -1.3118    Y=             -0.8098    Z=              0.0003  Tot=              1.5416
 Quadrupole moment (field-independent basis, Debye-Ang):
   XX=            -34.0125   YY=            -46.4117   ZZ=            -35.8426
   XY=             -0.8724   XZ=             -0.0004   YZ=              0.0002

 2508393\CCSD=-228.2590177\CCSD(T)=-228.3125124\S2=1.106745\S2-1=1.0212
 Normal termination of Gaussian 09 at Fri Mar  8 16:45:04 2019.
