 Gaussian 09, Revision E.01,
 Gaussian 09:  EM64L-G09RevE.01 30-Nov-2015

 --------------------------------------
 #p ccsd(t,maxcyc=200)/6-311++G(3df,2p)
 --------------------------------------

 -------------
 ccsd(t) iener
 -------------
 Symbolic Z-matrix:
 Charge = -1 Multiplicity = 4

                         Standard orientation:
 ---------------------------------------------------------------------
 Center     Atomic      Atomic             Coordinates (Angstroms)
 Number     Number       Type             X           Y           Z
 ---------------------------------------------------------------------
      1          6           0       -0.299347   -1.131278    0.156129
      2          6           0        0.880141    0.757912    0.023004
      3          8           0        1.015736   -0.620586   -0.164748
      4          6           0       -0.541710    1.096325   -0.130321
      5          6           0       -1.251308   -0.050122    0.021763
      6          1           0        1.465330    1.148701    0.875154
      7          1           0       -2.317874   -0.221036    0.019379
 ---------------------------------------------------------------------

 SCF Done:  E(UHF) =  -227.317469947     A.U. after   40 cycles
 E2 =    -0.8126759534D+00 EUMP2 =    -0.22813014590082D+03
 CCSD(T)
 CCSD(T)= -0.22820610887D+03

 The electronic state is 4-A.
 Alpha  occ. eigenvalues --  -20.38929 -11.09469 -11.08567 -11.04283 -11.03334
 Alpha  occ. eigenvalues --   -1.21299  -0.88754  -0.77781  -0.58793  -0.56161
 Alpha  occ. eigenvalues --   -0.48176  -0.44610  -0.36677  -0.33107  -0.27666
 Alpha  occ. eigenvalues --   -0.23769  -0.19544  -0.18752  -0.05639
 Alpha virt. eigenvalues --    0.15760   0.16832   0.22835   0.23226   0.24398
 Alpha virt. eigenvalues --    0.26190   0.27319   0.27998   0.28857   0.29781
 Alpha virt. eigenvalues --    0.29894   0.30750   0.32491   0.33763   0.34318

  Beta  occ. eigenvalues --  -20.38096 -11.07078 -11.05024 -11.04946 -11.00527
  Beta  occ. eigenvalues --   -1.17783  -0.84832  -0.68743  -0.54514  -0.49926
  Beta  occ. eigenvalues --   -0.43162  -0.37454  -0.33951  -0.28974  -0.19177
  Beta  occ. eigenvalues --   -0.04949
  Beta virt. eigenvalues --    0.15834   0.16795   0.19106   0.22433   0.24004
  Beta virt. eigenvalues --    0.25739   0.26214   0.27425   0.27982   0.28702
  Beta virt. eigenvalues --    0.28977   0.30138   0.31150   0.32923   0.33066

 Mulliken charges and spin densities:
               1          2
     1  C   -0.200763   1.744958
     2  C   -0.063173   0.875374
     3  O   -0.799605  -0.042016
     4  C    0.126844   1.607435
     5  C   -0.076330  -1.161183
     6  H   -0.009686   0.002628
     7  H    0.022712  -0.027197
 Sum of Mulliken charges =  -1.00000   3.00000

 Dipole moment (field-independent basis, Debye):
    X=              0.1127    Y=              0.1482    Z=              0.5967  Tot=              0.6251
 Quadrupole moment (field-independent basis, Debye-Ang):
   XX=            -36.5907   YY=            -44.3853   ZZ=            -36.2573
   XY=              2.3947   XZ=              0.9205   YZ=              3.4611

 .1530619\CCSD=-228.1577685\CCSD(T)=-228.2061089\S2=3.960082\S2-1=3.887
 Normal termination of Gaussian 09 at Fri Mar  8 16:38:12 2019.
