 Gaussian 09, Revision E.01,
 Gaussian 09:  EM64L-G09RevE.01 30-Nov-2015

 --------------------------------------
 #p ccsd(t,maxcyc=200)/6-311++G(3df,2p)
 --------------------------------------

 -------------
 ccsd(t) iener
 -------------
 Symbolic Z-matrix:
 Charge = -1 Multiplicity = 2

                         Standard orientation:
 ---------------------------------------------------------------------
 Center     Atomic      Atomic             Coordinates (Angstroms)
 Number     Number       Type             X           Y           Z
 ---------------------------------------------------------------------
      1          6           0       -0.637729   -0.889859    0.000000
      2          6           0       -0.061179    1.730771   -0.000000
      3          6           0        1.204336    1.198853   -0.000000
      4          6           0       -0.000000    0.361237   -0.000000
      5          1           0       -0.649554    2.638651   -0.000000
      6          1           0       -1.747473   -0.841855   -0.000000
      7          8           0       -0.079443   -2.025351    0.000000
 ---------------------------------------------------------------------

 SCF Done:  E(UHF) =  -227.428776290     A.U. after   24 cycles
 E2 =    -0.8326566445D+00 EUMP2 =    -0.22826143293428D+03
 CCSD(T)
 CCSD(T)= -0.22832243256D+03

 The electronic state is 2-A".
 Alpha  occ. eigenvalues --  -20.34611 -11.09213 -11.07807 -11.06982 -11.04801
 Alpha  occ. eigenvalues --   -1.16808  -1.00193  -0.75236  -0.59350  -0.50558
 Alpha  occ. eigenvalues --   -0.45720  -0.40396  -0.40068  -0.30762  -0.28934
 Alpha  occ. eigenvalues --   -0.23144  -0.16887  -0.07886
 Alpha virt. eigenvalues --    0.13913   0.16730   0.21794   0.22972   0.23682
 Alpha virt. eigenvalues --    0.24409   0.25766   0.27871   0.28100   0.28410
 Alpha virt. eigenvalues --    0.29218   0.31185   0.32599   0.33323   0.36135

  Beta  occ. eigenvalues --  -20.32298 -11.08986 -11.07471 -11.06580 -11.04822
  Beta  occ. eigenvalues --   -1.11303  -0.99215  -0.70848  -0.58548  -0.49336
  Beta  occ. eigenvalues --   -0.44670  -0.38637  -0.29317  -0.28205  -0.21297
  Beta  occ. eigenvalues --   -0.20792  -0.16644
  Beta virt. eigenvalues --    0.13934   0.16744   0.21807   0.23263   0.23688
  Beta virt. eigenvalues --    0.24451   0.25505   0.26186   0.28222   0.28446
  Beta virt. eigenvalues --    0.29293   0.30146   0.31223   0.32713   0.34766

 Mulliken charges and spin densities:
               1          2
     1  C    0.027740   0.137589
     2  C    0.097689   0.293289
     3  C   -0.551923   0.056891
     4  C    0.110941   0.102954
     5  H    0.171772  -0.020589
     6  H    0.020238  -0.034971
     7  O   -0.876458   0.464837
 Sum of Mulliken charges =  -1.00000   1.00000

 Dipole moment (field-independent basis, Debye):
    X=             -3.9123    Y=              2.3695    Z=             -0.0000  Tot=              4.5739
 Quadrupole moment (field-independent basis, Debye-Ang):
   XX=            -40.3158   YY=            -47.0288   ZZ=            -33.0259
   XY=             -6.2418   XZ=             -0.0000   YZ=              0.0000

 11\CCSD(T)=-228.3224326\S2=0.790288\S2-1=0.767216\S2A=0.750655\RMSD=6.
 Normal termination of Gaussian 09 at Fri Mar  8 11:58:19 2019.
