 Gaussian 09, Revision E.01,
 Gaussian 09:  EM64L-G09RevE.01 30-Nov-2015

 --------------------------------------
 #p ccsd(t,maxcyc=200)/6-311++G(3df,2p)
 --------------------------------------

 -------------
 ccsd(t) iener
 -------------
 Symbolic Z-matrix:
 Charge = -1 Multiplicity = 2

                         Standard orientation:
 ---------------------------------------------------------------------
 Center     Atomic      Atomic             Coordinates (Angstroms)
 Number     Number       Type             X           Y           Z
 ---------------------------------------------------------------------
      1          6           0       -0.552009   -0.000000   -0.024419
      2          1           0       -1.146971   -0.933258    0.049671
      3          1           0       -1.146883    0.933303    0.049669
      4          8           0        0.700738   -0.000005    0.005897
 ---------------------------------------------------------------------

 SCF Done:  E(UHF) =  -113.854333554     A.U. after   21 cycles
 E2 =    -0.4142805651D+00 EUMP2 =    -0.11426861411869D+03
 CCSD(T)
 CCSD(T)= -0.11429595200D+03

 The electronic state is 2-A.
 Alpha  occ. eigenvalues --  -20.26595 -11.02791  -1.09461  -0.60549  -0.38602
 Alpha  occ. eigenvalues --   -0.35099  -0.32036  -0.15796   0.01064
 Alpha virt. eigenvalues --    0.18001   0.19672   0.25117   0.29521   0.31578
 Alpha virt. eigenvalues --    0.32252   0.44268   0.45729   0.48256   0.49464
 Alpha virt. eigenvalues --    0.54372   0.55625   0.65246   0.69473   0.72173

  Beta  occ. eigenvalues --  -20.24774 -11.01793  -1.05094  -0.55432  -0.37662
  Beta  occ. eigenvalues --   -0.33192  -0.18149  -0.14170
  Beta virt. eigenvalues --    0.18275   0.19774   0.25269   0.27266   0.31777
  Beta virt. eigenvalues --    0.33706   0.43038   0.45203   0.46021   0.48688
  Beta virt. eigenvalues --    0.52878   0.54737   0.55760   0.67290   0.70051

 Mulliken charges and spin densities:
               1          2
     1  C   -0.181666   0.939111
     2  H    0.006251  -0.077650
     3  H    0.006249  -0.077650
     4  O   -0.830833   0.216189
 Sum of Mulliken charges =  -1.00000   1.00000

 Dipole moment (field-independent basis, Debye):
    X=             -0.6386    Y=              0.0000    Z=              0.2215  Tot=              0.6760
 Quadrupole moment (field-independent basis, Debye-Ang):
   XX=            -20.3697   YY=            -16.2616   ZZ=            -20.1404
   XY=              0.0001   XZ=             -0.1506   YZ=              0.0000

 Normal termination of Gaussian 09 at Fri Mar  8 16:50:26 2019.
