 Gaussian 09, Revision E.01,
 Gaussian 09:  EM64L-G09RevE.01 30-Nov-2015

 --------------------------------------
 #p ccsd(t,maxcyc=200)/6-311++G(3df,2p)
 --------------------------------------

 -------------
 ccsd(t) iener
 -------------
 Symbolic Z-matrix:
 Charge = -1 Multiplicity = 4

                         Standard orientation:
 ---------------------------------------------------------------------
 Center     Atomic      Atomic             Coordinates (Angstroms)
 Number     Number       Type             X           Y           Z
 ---------------------------------------------------------------------
      1          6           0       -0.713915   -0.069054   -0.147558
      2          1           0       -1.446047    0.427740    0.493168
      3          1           0        1.064226    0.687151   -0.306873
      4          8           0        0.583164   -0.087571    0.087382
 ---------------------------------------------------------------------

 SCF Done:  E(UHF) =  -113.782817034     A.U. after   21 cycles
 E2 =    -0.3619861031D+00 EUMP2 =    -0.11414480313706D+03
 CCSD(T)
 CCSD(T)= -0.11417681067D+03

 The electronic state is 4-A.
 Alpha  occ. eigenvalues --  -20.43858 -11.14771  -1.26262  -0.76373  -0.56930
 Alpha  occ. eigenvalues --   -0.49475  -0.44862  -0.25510  -0.21305   0.03765
 Alpha virt. eigenvalues --    0.15527   0.22310   0.22680   0.25556   0.28617
 Alpha virt. eigenvalues --    0.38747   0.39844   0.41859   0.43764   0.47960
 Alpha virt. eigenvalues --    0.50376   0.57138   0.60361   0.63704   0.69214

  Beta  occ. eigenvalues --  -20.42802 -11.10030  -1.22538  -0.64891  -0.50908
  Beta  occ. eigenvalues --   -0.42687  -0.36057
  Beta virt. eigenvalues --    0.16567   0.20656   0.22123   0.22700   0.26406
  Beta virt. eigenvalues --    0.29197   0.33946   0.36273   0.42412   0.42952
  Beta virt. eigenvalues --    0.44050   0.45852   0.50042   0.52150   0.61540

 Mulliken charges and spin densities:
               1          2
     1  C    1.308356   0.741079
     2  H   -0.578718   0.726114
     3  H   -1.321083   1.664448
     4  O   -0.408554  -0.131641
 Sum of Mulliken charges =  -1.00000   3.00000

 Dipole moment (field-independent basis, Debye):
    X=             -5.0715    Y=             -4.6436    Z=              1.4751  Tot=              7.0327
 Quadrupole moment (field-independent basis, Debye-Ang):
   XX=            -39.3256   YY=            -33.1664   ZZ=            -28.6344
   XY=             -5.8188   XZ=              3.3835   YZ=              1.3496

 Normal termination of Gaussian 09 at Fri Mar  8 16:54:05 2019.
