 Gaussian 09, Revision E.01,
 Gaussian 09:  EM64L-G09RevE.01 30-Nov-2015

 --------------------------------------
 #p ccsd(t,maxcyc=200)/6-311++G(3df,2p)
 --------------------------------------

 -------------
 ccsd(t) iener
 -------------
 Symbolic Z-matrix:
 Charge = -1 Multiplicity = 4

                         Standard orientation:
 ---------------------------------------------------------------------
 Center     Atomic      Atomic             Coordinates (Angstroms)
 Number     Number       Type             X           Y           Z
 ---------------------------------------------------------------------
      1          6           0       -0.578931    0.000002   -0.123058
      2          1           0       -1.086985   -0.906185    0.264565
      3          1           0       -1.086955    0.906193    0.264565
      4          8           0        0.705941   -0.000002    0.026152
 ---------------------------------------------------------------------

 SCF Done:  E(UHF) =  -113.793410883     A.U. after   20 cycles
 E2 =    -0.3429678719D+00 EUMP2 =    -0.11413637875523D+03
 CCSD(T)
 CCSD(T)= -0.11418047208D+03

 The electronic state is 4-A.
 Alpha  occ. eigenvalues --  -20.51920 -11.13641  -1.32792  -0.76889  -0.60209
 Alpha  occ. eigenvalues --   -0.54519  -0.50999  -0.37959  -0.21652   0.04159
 Alpha virt. eigenvalues --    0.16485   0.20076   0.22929   0.26849   0.30133
 Alpha virt. eigenvalues --    0.37201   0.40169   0.41652   0.41935   0.42730
 Alpha virt. eigenvalues --    0.45612   0.59821   0.60167   0.61741   0.67266

  Beta  occ. eigenvalues --  -20.47052 -11.11524  -1.17450  -0.66458  -0.47875
  Beta  occ. eigenvalues --   -0.42686  -0.38503
  Beta virt. eigenvalues --    0.18579   0.20641   0.21272   0.22207   0.22786
  Beta virt. eigenvalues --    0.29316   0.31118   0.34702   0.38189   0.42561
  Beta virt. eigenvalues --    0.43898   0.44236   0.47171   0.47698   0.62742

 Mulliken charges and spin densities:
               1          2
     1  C    2.640569  -1.726801
     2  H   -1.548104   1.766147
     3  H   -1.548112   1.766153
     4  O   -0.544353   1.194501
 Sum of Mulliken charges =  -1.00000   3.00000

 Dipole moment (field-independent basis, Debye):
    X=              7.6112    Y=             -0.0000    Z=             -1.8300  Tot=              7.8281
 Quadrupole moment (field-independent basis, Debye-Ang):
   XX=            -43.7430   YY=            -41.2428   ZZ=            -30.0962
   XY=             -0.0001   XZ=              4.1946   YZ=             -0.0000

 Normal termination of Gaussian 09 at Fri Mar  8 16:54:12 2019.
