 Gaussian 09, Revision E.01,
 Gaussian 09:  EM64L-G09RevE.01 30-Nov-2015

 --------------------------------------
 #p ccsd(t,maxcyc=200)/6-311++G(3df,2p)
 --------------------------------------

 -------------
 ccsd(t) iener
 -------------
 Symbolic Z-matrix:
 Charge = -1 Multiplicity = 4

                         Standard orientation:
 ---------------------------------------------------------------------
 Center     Atomic      Atomic             Coordinates (Angstroms)
 Number     Number       Type             X           Y           Z
 ---------------------------------------------------------------------
      1          6           0       -1.095490    0.000007    0.028124
      2          1           0        0.989331   -0.786935    0.339471
      3          1           0        0.989347    0.787069    0.339388
      4          8           0        0.574283   -0.000022   -0.105950
 ---------------------------------------------------------------------

 SCF Done:  E(UHF) =  -113.718400678     A.U. after   19 cycles
 E2 =    -0.3593152262D+00 EUMP2 =    -0.11407771590390D+03
 CCSD(T)
 CCSD(T)= -0.11411466861D+03

 The electronic state is 4-A.
 Alpha  occ. eigenvalues --  -20.48205 -11.10417  -1.26623  -0.68705  -0.60782
 Alpha  occ. eigenvalues --   -0.48089  -0.37661  -0.20461  -0.19444   0.01393
 Alpha virt. eigenvalues --    0.17627   0.23108   0.25140   0.26384   0.27402
 Alpha virt. eigenvalues --    0.35416   0.39354   0.39980   0.42892   0.43777
 Alpha virt. eigenvalues --    0.45574   0.53095   0.64026   0.64224   0.71022

  Beta  occ. eigenvalues --  -20.47716 -11.05922  -1.24794  -0.59737  -0.56740
  Beta  occ. eigenvalues --   -0.44105  -0.26807
  Beta virt. eigenvalues --    0.19986   0.21052   0.23257   0.24245   0.25043
  Beta virt. eigenvalues --    0.28402   0.38174   0.38711   0.40265   0.42008
  Beta virt. eigenvalues --    0.42968   0.46269   0.46289   0.50327   0.55142

 Mulliken charges and spin densities:
               1          2
     1  C    0.258503   1.514583
     2  H   -0.530128   0.862069
     3  H   -0.530358   0.862450
     4  O   -0.198016  -0.239103
 Sum of Mulliken charges =  -1.00000   3.00000

 Dipole moment (field-independent basis, Debye):
    X=             -3.5099    Y=             -0.0016    Z=             -1.7370  Tot=              3.9162
 Quadrupole moment (field-independent basis, Debye-Ang):
   XX=            -40.7928   YY=            -27.6297   ZZ=            -27.7093
   XY=             -0.0029   XZ=             -3.5771   YZ=             -0.0010

 Normal termination of Gaussian 09 at Fri Mar  8 16:54:29 2019.
