 Gaussian 09, Revision E.01,
 Gaussian 09:  EM64L-G09RevE.01 30-Nov-2015

 --------------------------------------
 #p ccsd(t,maxcyc=200)/6-311++G(3df,2p)
 --------------------------------------

 -------------
 ccsd(t) iener
 -------------
 Symbolic Z-matrix:
 Charge = -1 Multiplicity = 2

                         Standard orientation:
 ---------------------------------------------------------------------
 Center     Atomic      Atomic             Coordinates (Angstroms)
 Number     Number       Type             X           Y           Z
 ---------------------------------------------------------------------
      1          6           0        1.088190   -0.000160    0.028143
      2          1           0       -0.979221    0.787318    0.341984
      3          1           0       -0.981695   -0.786450    0.342315
      4          8           0       -0.571028    0.000011   -0.106645
 ---------------------------------------------------------------------

 SCF Done:  E(UHF) =  -113.626515611     A.U. after   49 cycles
 E2 =    -0.4033462417D+00 EUMP2 =    -0.11402986185292D+03
 CCSD(T)
 CCSD(T)= -0.11407404352D+03

 The electronic state is 2-A.
 Alpha  occ. eigenvalues --  -20.46553 -11.00276  -1.24117  -0.58946  -0.58870
 Alpha  occ. eigenvalues --   -0.44796  -0.28973  -0.07666   0.03362
 Alpha virt. eigenvalues --    0.15161   0.19126   0.28173   0.29785   0.29930
 Alpha virt. eigenvalues --    0.34989   0.37084   0.40158   0.40165   0.43674
 Alpha virt. eigenvalues --    0.46061   0.52939   0.56308   0.72154   0.72659

  Beta  occ. eigenvalues --  -20.46323 -10.98638  -1.23490  -0.58661  -0.55260
  Beta  occ. eigenvalues --   -0.42562  -0.23335   0.01647
  Beta virt. eigenvalues --    0.15436   0.19200   0.27464   0.28517   0.30891
  Beta virt. eigenvalues --    0.34680   0.37002   0.39992   0.40359   0.43318
  Beta virt. eigenvalues --    0.46276   0.47972   0.54366   0.57268   0.73729

 Mulliken charges and spin densities:
               1          2
     1  C   -1.166987   0.967467
     2  H    0.204537   0.047552
     3  H    0.193500   0.050220
     4  O   -0.231050  -0.065239
 Sum of Mulliken charges =  -1.00000   1.00000

 Dipole moment (field-independent basis, Debye):
    X=             -8.7259    Y=              0.0782    Z=              0.8757  Tot=              8.7701
 Quadrupole moment (field-independent basis, Debye-Ang):
   XX=            -25.3726   YY=            -27.9292   ZZ=            -20.8384
   XY=             -0.0648   XZ=             -2.0051   YZ=              0.0550

 Normal termination of Gaussian 09 at Fri Mar  8 16:51:51 2019.
