 Gaussian 09, Revision E.01,
 Gaussian 09:  EM64L-G09RevE.01 30-Nov-2015

 --------------------------------------
 #p ccsd(t,maxcyc=200)/6-311++G(3df,2p)
 --------------------------------------

 -------------
 ccsd(t) iener
 -------------
 Symbolic Z-matrix:
 Charge = -1 Multiplicity = 4

                         Standard orientation:
 ---------------------------------------------------------------------
 Center     Atomic      Atomic             Coordinates (Angstroms)
 Number     Number       Type             X           Y           Z
 ---------------------------------------------------------------------
      1          6           0        0.059631    1.094301   -0.000000
      2          1           0       -0.417415   -0.959144    0.786806
      3          1           0       -0.417415   -0.959144   -0.786806
      4          8           0        0.059631   -0.580939    0.000000
 ---------------------------------------------------------------------

 SCF Done:  E(UHF) =  -113.718423668     A.U. after   19 cycles
 E2 =    -0.3592941561D+00 EUMP2 =    -0.11407771782434D+03
 CCSD(T)
 CCSD(T)= -0.11411467164D+03

 The electronic state is 4-A".
 Alpha  occ. eigenvalues --  -20.48203 -11.10420  -1.26629  -0.68708  -0.60788
 Alpha  occ. eigenvalues --   -0.48091  -0.37665  -0.20463  -0.19447   0.01394
 Alpha virt. eigenvalues --    0.17628   0.23107   0.25140   0.26384   0.27401
 Alpha virt. eigenvalues --    0.35419   0.39353   0.39985   0.42893   0.43778
 Alpha virt. eigenvalues --    0.45571   0.53094   0.64024   0.64222   0.71022

  Beta  occ. eigenvalues --  -20.47714 -11.05925  -1.24801  -0.59743  -0.56744
  Beta  occ. eigenvalues --   -0.44106  -0.26811
  Beta virt. eigenvalues --    0.19987   0.21052   0.23256   0.24244   0.25043
  Beta virt. eigenvalues --    0.28402   0.38176   0.38709   0.40264   0.42007
  Beta virt. eigenvalues --    0.42972   0.46269   0.46290   0.50323   0.55140

 Mulliken charges and spin densities:
               1          2
     1  C    0.258503   1.514662
     2  H   -0.530467   0.862271
     3  H   -0.530467   0.862271
     4  O   -0.197568  -0.239205
 Sum of Mulliken charges =  -1.00000   3.00000

 Dipole moment (field-independent basis, Debye):
    X=              2.0122    Y=              3.3614    Z=              0.0000  Tot=              3.9176
 Quadrupole moment (field-independent basis, Debye-Ang):
   XX=            -28.3639   YY=            -40.1414   ZZ=            -27.6297
   XY=             -4.5747   XZ=             -0.0000   YZ=              0.0000

 MP4SDQ=-114.0974507\CCSD=-114.099513\CCSD(T)=-114.1146716\S2=3.782776\
 Normal termination of Gaussian 09 at Fri Mar  8 16:53:50 2019.
