 Gaussian 09, Revision E.01,
 Gaussian 09:  EM64L-G09RevE.01 30-Nov-2015

 --------------------------------------
 #p ccsd(t,maxcyc=200)/6-311++G(3df,2p)
 --------------------------------------

 -------------
 ccsd(t) iener
 -------------
 Symbolic Z-matrix:
 Charge = -1 Multiplicity = 2

                         Standard orientation:
 ---------------------------------------------------------------------
 Center     Atomic      Atomic             Coordinates (Angstroms)
 Number     Number       Type             X           Y           Z
 ---------------------------------------------------------------------
      1          1           0        0.761481   -0.487559    0.000000
      2          1           0       -0.761481   -0.487531    0.000000
      3          8           0       -0.000000    0.121886    0.000000
 ---------------------------------------------------------------------

 SCF Done:  E(UHF) =  -76.0134574769     A.U. after   15 cycles
 E2 =    -0.2698810152D+00 EUMP2 =    -0.76283338492138D+02
 CCSD(T)
 CCSD(T)= -0.76297634072D+02

 The electronic state is 2-A'.
 Alpha  occ. eigenvalues --  -20.37318  -1.15361  -0.50805  -0.39446  -0.31370
 Alpha  occ. eigenvalues --    0.04103
 Alpha virt. eigenvalues --    0.18588   0.38162   0.39612   0.40360   0.41902
 Alpha virt. eigenvalues --    0.46997   0.48632   0.84691   0.89331   0.97042
 Alpha virt. eigenvalues --    1.00649   1.05260   1.26583   1.27466   1.37549

  Beta  occ. eigenvalues --  -20.37143  -1.14687  -0.50834  -0.39214  -0.31398
  Beta virt. eigenvalues --    0.20992   0.22257   0.40616   0.42244   0.43114
  Beta virt. eigenvalues --    0.43682   0.48606   0.50339   0.85189   0.90173
  Beta virt. eigenvalues --    0.97578   1.01093   1.05591   1.27022   1.27861

 Mulliken charges and spin densities:
               1          2
     1  H   -0.461075   0.733598
     2  H   -0.461040   0.733548
     3  O   -0.077885  -0.467146
 Sum of Mulliken charges =  -1.00000   1.00000

 Dipole moment (field-independent basis, Debye):
    X=             -0.0002    Y=              2.0959    Z=              0.0000  Tot=              2.0959
 Quadrupole moment (field-independent basis, Debye-Ang):
   XX=            -21.2641   YY=            -22.5087   ZZ=            -21.0495
   XY=              0.0002   XZ=              0.0000   YZ=              0.0000

 432\CCSD(T)=-76.2976341\S2=0.750614\S2-1=0.750022\S2A=0.75\RMSD=3.291e
 Normal termination of Gaussian 09 at Fri Mar  8 16:52:44 2019.
