 Gaussian 09, Revision E.01,
 Gaussian 09:  EM64L-G09RevE.01 30-Nov-2015

 --------------------------------------
 #p ccsd(t,maxcyc=200)/6-311++G(3df,2p)
 --------------------------------------

 -------------
 ccsd(t) iener
 -------------
 Symbolic Z-matrix:
 Charge = -1 Multiplicity = 2

                         Standard orientation:
 ---------------------------------------------------------------------
 Center     Atomic      Atomic             Coordinates (Angstroms)
 Number     Number       Type             X           Y           Z
 ---------------------------------------------------------------------
      1          1           0        0.761914   -0.486964   -0.000000
      2          1           0       -0.761914   -0.486950    0.000000
      3          8           0       -0.000000    0.121739   -0.000000
 ---------------------------------------------------------------------

 SCF Done:  E(UHF) =  -76.0134699364     A.U. after   15 cycles
 E2 =    -0.2698641760D+00 EUMP2 =    -0.76283334112371D+02
 CCSD(T)
 CCSD(T)= -0.76297630401D+02

 The electronic state is 2-A'.
 Alpha  occ. eigenvalues --  -20.37314  -1.15361  -0.50832  -0.39430  -0.31369
 Alpha  occ. eigenvalues --    0.04105
 Alpha virt. eigenvalues --    0.18586   0.38164   0.39612   0.40360   0.41907
 Alpha virt. eigenvalues --    0.46993   0.48627   0.84716   0.89312   0.97081
 Alpha virt. eigenvalues --    1.00638   1.05281   1.26590   1.27426   1.37544

  Beta  occ. eigenvalues --  -20.37138  -1.14688  -0.50861  -0.39198  -0.31398
  Beta virt. eigenvalues --    0.20991   0.22255   0.40619   0.42245   0.43112
  Beta virt. eigenvalues --    0.43686   0.48603   0.50334   0.85214   0.90154
  Beta virt. eigenvalues --    0.97616   1.01083   1.05612   1.27030   1.27822

 Mulliken charges and spin densities:
               1          2
     1  H   -0.461189   0.733582
     2  H   -0.461170   0.733555
     3  O   -0.077641  -0.467137
 Sum of Mulliken charges =  -1.00000   1.00000

 Dipole moment (field-independent basis, Debye):
    X=             -0.0001    Y=              2.0929    Z=             -0.0000  Tot=              2.0929
 Quadrupole moment (field-independent basis, Debye-Ang):
   XX=            -21.2661   YY=            -22.5064   ZZ=            -21.0507
   XY=              0.0001   XZ=              0.0000   YZ=              0.0000

 .2885413\CCSD(T)=-76.2976304\S2=0.750614\S2-1=0.750022\S2A=0.75\RMSD=2
 Normal termination of Gaussian 09 at Fri Mar  8 16:52:44 2019.
