 Gaussian 09, Revision E.01,
 Gaussian 09:  EM64L-G09RevE.01 30-Nov-2015

 --------------------------------------
 #p ccsd(t,maxcyc=200)/6-311++G(3df,2p)
 --------------------------------------

 -------------
 ccsd(t) iener
 -------------
 Symbolic Z-matrix:
 Charge = -1 Multiplicity = 3

                         Standard orientation:
 ---------------------------------------------------------------------
 Center     Atomic      Atomic             Coordinates (Angstroms)
 Number     Number       Type             X           Y           Z
 ---------------------------------------------------------------------
      1          1           0        0.000000    0.386763   -0.844761
      2          1           0       -0.000000   -0.386763   -0.844761
      3          1           0       -0.000000   -0.000000    1.689522
 ---------------------------------------------------------------------

 SCF Done:  E(UHF) =  -1.56258820371     A.U. after   14 cycles
 E2 =    -0.3268554064D-01 EUMP2 =    -0.15952737443526D+01
 CCSD(T)
 CCSD(T)= -0.16044608282D+01

 The electronic state is 3-B2.
 Alpha  occ. eigenvalues --   -0.40828  -0.34088   0.06696
 Alpha virt. eigenvalues --    0.19297   0.20913   0.38986   0.62077   0.64186
 Alpha virt. eigenvalues --    0.78510   0.83866   0.85460   0.88358   0.91733
 Alpha virt. eigenvalues --    1.05604   1.28530   1.29456   1.30375   1.78762

  Beta  occ. eigenvalues --   -0.39520
  Beta virt. eigenvalues --    0.16315   0.23356   0.23706   0.28532   0.42022
  Beta virt. eigenvalues --    0.64076   0.74842   0.83297   0.85475   0.90289
  Beta virt. eigenvalues --    0.96777   0.97820   1.10956   1.29348   1.30496

 Mulliken charges and spin densities:
               1          2
     1  H   -0.497372   0.499374
     2  H   -0.497372   0.499374
     3  H   -0.005255   1.001252
 Sum of Mulliken charges =  -1.00000   2.00000

 Dipole moment (field-independent basis, Debye):
    X=              0.0000    Y=              0.0000    Z=              3.8883  Tot=              3.8883
 Quadrupole moment (field-independent basis, Debye-Ang):
   XX=            -13.6557   YY=            -33.4385   ZZ=            -17.5624
   XY=             -0.0000   XZ=             -0.0000   YZ=              0.0000

 5953164\PMP3-0=-1.6019475\MP4SDQ=-1.6036074\CCSD=-1.6042517\CCSD(T)=-1
 Normal termination of Gaussian 09 at Mon Mar 11 23:27:28 2019.
