 Gaussian 09, Revision E.01,
 Gaussian 09:  EM64L-G09RevE.01 30-Nov-2015

 --------------------------------------
 #p ccsd(t,maxcyc=200)/6-311++G(3df,2p)
 --------------------------------------

 -------------
 ccsd(t) iener
 -------------
 Symbolic Z-matrix:
 Charge = -1 Multiplicity = 3

                         Standard orientation:
 ---------------------------------------------------------------------
 Center     Atomic      Atomic             Coordinates (Angstroms)
 Number     Number       Type             X           Y           Z
 ---------------------------------------------------------------------
      1          6           0        0.000000    0.000000    0.000000
      2          1           0        0.000000    1.083666    0.000000
      3          1           0       -0.938482   -0.541833    0.000000
      4          1           0        0.938482   -0.541833    0.000000
 ---------------------------------------------------------------------

 SCF Done:  E(UHF) =  -39.5315891274     A.U. after   14 cycles
 E2 =    -0.1609440236D+00 EUMP2 =    -0.39692533150994D+02
 CCSD(T)
 CCSD(T)= -0.39719811277D+02

 The electronic state is 3-A2".
 Alpha  occ. eigenvalues --  -11.07662  -0.79044  -0.42085  -0.42085  -0.22543
 Alpha  occ. eigenvalues --    0.04439
 Alpha virt. eigenvalues --    0.16956   0.16956   0.24403   0.27505   0.27505
 Alpha virt. eigenvalues --    0.30825   0.39481   0.43717   0.43717   0.57935
 Alpha virt. eigenvalues --    0.57935   0.61013   0.61013   0.65373   0.84732

  Beta  occ. eigenvalues --  -11.05202  -0.69732  -0.40678  -0.40678
  Beta virt. eigenvalues --    0.18070   0.20430   0.20430   0.21608   0.29487
  Beta virt. eigenvalues --    0.29487   0.32933   0.36282   0.42501   0.45326
  Beta virt. eigenvalues --    0.45326   0.61441   0.61441   0.61509   0.61509

 Mulliken charges and spin densities:
               1          2
     1  C    1.878560  -1.050991
     2  H   -0.959520   1.016997
     3  H   -0.959520   1.016997
     4  H   -0.959520   1.016997
 Sum of Mulliken charges =  -1.00000   2.00000

 Dipole moment (field-independent basis, Debye):
    X=              0.0000    Y=              0.0000    Z=             -0.0000  Tot=              0.0000
 Quadrupole moment (field-independent basis, Debye-Ang):
   XX=            -33.0427   YY=            -33.0427   ZZ=            -24.2843
   XY=              0.0000   XZ=              0.0000   YZ=             -0.0000

 CCSD=-39.7143993\CCSD(T)=-39.7198113\S2=2.011437\S2-1=2.002707\S2A=2.0
 Normal termination of Gaussian 09 at Mon Mar 11 23:24:57 2019.
