 Gaussian 09, Revision E.01,
 Gaussian 09:  EM64L-G09RevE.01 30-Nov-2015

 --------------------------------------
 #p ccsd(t,maxcyc=200)/6-311++G(3df,2p)
 --------------------------------------

 -------------
 ccsd(t) iener
 -------------
 Symbolic Z-matrix:
 Charge = -1 Multiplicity = 3

                         Standard orientation:
 ---------------------------------------------------------------------
 Center     Atomic      Atomic             Coordinates (Angstroms)
 Number     Number       Type             X           Y           Z
 ---------------------------------------------------------------------
      1          6           0        0.000000    0.000000    0.000000
      2          1           0       -0.000000    1.083160    0.000000
      3          1           0       -0.938044   -0.541580    0.000000
      4          1           0        0.938044   -0.541580    0.000000
 ---------------------------------------------------------------------

 SCF Done:  E(UHF) =  -39.5316114036     A.U. after   14 cycles
 E2 =    -0.1609310438D+00 EUMP2 =    -0.39692542447431D+02
 CCSD(T)
 CCSD(T)= -0.39719810316D+02

 The electronic state is 3-A2".
 Alpha  occ. eigenvalues --  -11.07646  -0.79062  -0.42102  -0.42102  -0.22542
 Alpha  occ. eigenvalues --    0.04439
 Alpha virt. eigenvalues --    0.16955   0.16955   0.24403   0.27505   0.27505
 Alpha virt. eigenvalues --    0.30823   0.39495   0.43722   0.43722   0.57934
 Alpha virt. eigenvalues --    0.57934   0.61014   0.61014   0.65375   0.84730

  Beta  occ. eigenvalues --  -11.05187  -0.69753  -0.40695  -0.40695
  Beta virt. eigenvalues --    0.18069   0.20429   0.20429   0.21607   0.29487
  Beta virt. eigenvalues --    0.29487   0.32931   0.36281   0.42512   0.45329
  Beta virt. eigenvalues --    0.45329   0.61440   0.61440   0.61511   0.61511

 Mulliken charges and spin densities:
               1          2
     1  C    1.880142  -1.053104
     2  H   -0.960047   1.017701
     3  H   -0.960047   1.017701
     4  H   -0.960047   1.017701
 Sum of Mulliken charges =  -1.00000   2.00000

 Dipole moment (field-independent basis, Debye):
    X=              0.0000    Y=              0.0000    Z=             -0.0000  Tot=              0.0000
 Quadrupole moment (field-independent basis, Debye-Ang):
   XX=            -33.0423   YY=            -33.0423   ZZ=            -24.2859
   XY=              0.0000   XZ=              0.0000   YZ=             -0.0000

 =-39.7144017\CCSD(T)=-39.7198103\S2=2.011416\S2-1=2.002697\S2A=2.00004
 Normal termination of Gaussian 09 at Mon Mar 11 23:24:52 2019.
