 Gaussian 09, Revision E.01,
 Gaussian 09:  EM64L-G09RevE.01 30-Nov-2015

 --------------------------------------
 #p ccsd(t,maxcyc=200)/6-311++G(3df,2p)
 --------------------------------------

 -------------
 ccsd(t) iener
 -------------
 Symbolic Z-matrix:
 Charge = -1 Multiplicity = 1

                         Standard orientation:
 ---------------------------------------------------------------------
 Center     Atomic      Atomic             Coordinates (Angstroms)
 Number     Number       Type             X           Y           Z
 ---------------------------------------------------------------------
      1          6           0       -0.000000    0.000000    0.125557
      2          1           0        0.000000    1.034608   -0.251114
      3          1           0        0.895997   -0.517304   -0.251114
      4          1           0       -0.895997   -0.517304   -0.251114
 ---------------------------------------------------------------------

 SCF Done:  E(RHF) =  -39.5215703726     A.U. after   14 cycles
 E2 =    -0.2082429553D+00 EUMP2 =    -0.39729813327870D+02
 CCSD(T)
 CCSD(T)= -0.39753818710D+02

 The electronic state is 1-A1.
 Alpha  occ. eigenvalues --  -10.93261  -0.62088  -0.26496  -0.26496  -0.02272
 Alpha virt. eigenvalues --    0.18474   0.21010   0.21010   0.31790   0.32145
 Alpha virt. eigenvalues --    0.32145   0.37434   0.49601   0.50019   0.50019
 Alpha virt. eigenvalues --    0.66561   0.66561   0.71590   0.71590   0.75410

 Mulliken charges:
               1
     1  C   -1.069711
     2  H    0.023237
     3  H    0.023237
     4  H    0.023237
 Sum of Mulliken charges =  -1.00000

 Dipole moment (field-independent basis, Debye):
    X=              0.0000    Y=             -0.0000    Z=             -1.9325  Tot=              1.9325
 Quadrupole moment (field-independent basis, Debye-Ang):
   XX=            -12.6475   YY=            -12.6475   ZZ=            -19.2707
   XY=             -0.0000   XZ=             -0.0000   YZ=              0.0000

 34367\MP4SDQ=-39.7451967\CCSD=-39.7448332\CCSD(T)=-39.7538187\RMSD=6.6
 Normal termination of Gaussian 09 at Mon Mar 11 23:24:49 2019.
