 Gaussian 09, Revision E.01,
 Gaussian 09:  EM64L-G09RevE.01 30-Nov-2015

 --------------------------------------
 #p ccsd(t,maxcyc=200)/6-311++G(3df,2p)
 --------------------------------------

 -------------
 ccsd(t) iener
 -------------
 Symbolic Z-matrix:
 Charge = -1 Multiplicity = 3

                         Standard orientation:
 ---------------------------------------------------------------------
 Center     Atomic      Atomic             Coordinates (Angstroms)
 Number     Number       Type             X           Y           Z
 ---------------------------------------------------------------------
      1          6           0        0.000000    0.000000    0.000000
      2          1           0        0.000000    1.083279   -0.000000
      3          1           0        0.938147   -0.541639   -0.000000
      4          1           0       -0.938147   -0.541639   -0.000000
 ---------------------------------------------------------------------

 SCF Done:  E(UHF) =  -39.5316062632     A.U. after   14 cycles
 E2 =    -0.1609340888D+00 EUMP2 =    -0.39692540352045D+02
 CCSD(T)
 CCSD(T)= -0.39719810627D+02

 The electronic state is 3-A2".
 Alpha  occ. eigenvalues --  -11.07650  -0.79057  -0.42098  -0.42098  -0.22542
 Alpha  occ. eigenvalues --    0.04439
 Alpha virt. eigenvalues --    0.16955   0.16955   0.24403   0.27505   0.27505
 Alpha virt. eigenvalues --    0.30824   0.39492   0.43721   0.43721   0.57934
 Alpha virt. eigenvalues --    0.57934   0.61014   0.61014   0.65375   0.84730

  Beta  occ. eigenvalues --  -11.05191  -0.69748  -0.40691  -0.40691
  Beta virt. eigenvalues --    0.18069   0.20429   0.20429   0.21607   0.29487
  Beta virt. eigenvalues --    0.29487   0.32931   0.36281   0.42509   0.45328
  Beta virt. eigenvalues --    0.45328   0.61440   0.61440   0.61510   0.61510

 Mulliken charges and spin densities:
               1          2
     1  C    1.879771  -1.052608
     2  H   -0.959924   1.017536
     3  H   -0.959924   1.017536
     4  H   -0.959924   1.017536
 Sum of Mulliken charges =  -1.00000   2.00000

 Dipole moment (field-independent basis, Debye):
    X=              0.0000    Y=              0.0000    Z=              0.0000  Tot=              0.0000
 Quadrupole moment (field-independent basis, Debye-Ang):
   XX=            -33.0424   YY=            -33.0424   ZZ=            -24.2855
   XY=              0.0000   XZ=             -0.0000   YZ=             -0.0000

 8106\CCSD=-39.7144012\CCSD(T)=-39.7198106\S2=2.011421\S2-1=2.0027\S2A=
 Normal termination of Gaussian 09 at Mon Mar 11 23:24:53 2019.
