 Gaussian 09, Revision E.01,
 Gaussian 09:  EM64L-G09RevE.01 30-Nov-2015

 --------------------------------------
 #p ccsd(t,maxcyc=200)/6-311++G(3df,2p)
 --------------------------------------

 -------------
 ccsd(t) iener
 -------------
 Symbolic Z-matrix:
 Charge = -1 Multiplicity = 1

                         Standard orientation:
 ---------------------------------------------------------------------
 Center     Atomic      Atomic             Coordinates (Angstroms)
 Number     Number       Type             X           Y           Z
 ---------------------------------------------------------------------
      1          6           0        0.000000    0.585621    0.000000
      2          6           0        1.194424   -0.044727    0.000000
      3          1           0        2.113199    0.530617    0.000000
      4          1           0        1.296070   -1.140013    0.000000
      5          1           0       -1.864172    0.201990   -0.000000
      6          8           0       -1.088955   -0.354744   -0.000000
 ---------------------------------------------------------------------

 SCF Done:  E(RHF) =  -152.297135322     A.U. after   15 cycles
 E2 =    -0.5801965200D+00 EUMP2 =    -0.15287733184168D+03
 CCSD(T)
 CCSD(T)= -0.15292082250D+03

 The electronic state is 1-A'.
 Alpha  occ. eigenvalues --  -20.35343 -11.01691 -10.96738  -1.14289  -0.75746
 Alpha  occ. eigenvalues --   -0.52461  -0.43072  -0.36253  -0.32357  -0.32195
 Alpha  occ. eigenvalues --   -0.09979  -0.09973
 Alpha virt. eigenvalues --    0.17644   0.18084   0.18869   0.27008   0.28406
 Alpha virt. eigenvalues --    0.28801   0.29147   0.30759   0.34922   0.35540
 Alpha virt. eigenvalues --    0.36730   0.42553   0.44194   0.44448   0.47399

 Mulliken charges:
               1
     1  C   -0.335267
     2  C   -0.274180
     3  H    0.055461
     4  H   -0.016921
     5  H    0.231709
     6  O   -0.660802
 Sum of Mulliken charges =  -1.00000

 Dipole moment (field-independent basis, Debye):
    X=             -1.5442    Y=             -1.5984    Z=             -0.0000  Tot=              2.2225
 Quadrupole moment (field-independent basis, Debye-Ang):
   XX=            -23.0116   YY=            -28.5206   ZZ=            -25.6879
   XY=             -1.3879   XZ=             -0.0000   YZ=             -0.0000

 87273\MP4SDQ=-152.8940033\CCSD=-152.8929751\CCSD(T)=-152.9208225\RMSD=
 Normal termination of Gaussian 09 at Fri Mar  8 07:31:16 2019.
