 Gaussian 09, Revision E.01,
 Gaussian 09:  EM64L-G09RevE.01 30-Nov-2015

 --------------------------------------
 #p ccsd(t,maxcyc=200)/6-311++G(3df,2p)
 --------------------------------------

 -------------
 ccsd(t) iener
 -------------
 Symbolic Z-matrix:
 Charge = -1 Multiplicity = 3

                         Standard orientation:
 ---------------------------------------------------------------------
 Center     Atomic      Atomic             Coordinates (Angstroms)
 Number     Number       Type             X           Y           Z
 ---------------------------------------------------------------------
      1          6           0        0.047571   -0.584739   -0.000000
      2          1           0       -0.889022   -1.152240   -0.000000
      3          1           0        0.950102   -1.191005   -0.000000
      4          6           0        0.047571    0.716706    0.000000
      5          1           0       -0.631933    1.551439    0.000000
 ---------------------------------------------------------------------

 SCF Done:  E(UHF) =  -77.3716222741     A.U. after   26 cycles
 E2 =    -0.2896516370D+00 EUMP2 =    -0.77661273911120D+02
 CCSD(T)
 CCSD(T)= -0.77709756635D+02

 The electronic state is 3-A'.
 Alpha  occ. eigenvalues --  -11.11239 -11.08523  -0.91007  -0.65014  -0.49541
 Alpha  occ. eigenvalues --   -0.46683  -0.26698  -0.25281   0.04510
 Alpha virt. eigenvalues --    0.14347   0.15604   0.22310   0.24221   0.24384
 Alpha virt. eigenvalues --    0.25309   0.29432   0.30284   0.32363   0.32709
 Alpha virt. eigenvalues --    0.35837   0.38325   0.40605   0.50466   0.54474

  Beta  occ. eigenvalues --  -11.09702 -11.07804  -0.87669  -0.59611  -0.47185
  Beta  occ. eigenvalues --   -0.43362  -0.25672
  Beta virt. eigenvalues --    0.15675   0.18093   0.19232   0.22580   0.24578
  Beta virt. eigenvalues --    0.25216   0.26107   0.29763   0.31223   0.32840
  Beta virt. eigenvalues --    0.33854   0.34695   0.38009   0.38794   0.43130

 Mulliken charges and spin densities:
               1          2
     1  C    1.391566  -2.370374
     2  H   -0.125586   0.340489
     3  H   -0.621217   0.799187
     4  C    0.821045   0.576363
     5  H   -2.465808   2.654335
 Sum of Mulliken charges =  -1.00000   2.00000

 Dipole moment (field-independent basis, Debye):
    X=              4.5845    Y=             -5.1185    Z=             -0.0000  Tot=              6.8714
 Quadrupole moment (field-independent basis, Debye-Ang):
   XX=            -43.2722   YY=            -46.1537   ZZ=            -31.5614
   XY=              7.4732   XZ=              0.0000   YZ=             -0.0000

 3266\PMP3-0=-77.6903396\MP4SDQ=-77.6892339\CCSD=-77.6951391\CCSD(T)=-7
 Normal termination of Gaussian 09 at Mon Mar 11 23:27:22 2019.
