 Gaussian 09, Revision E.01,
 Gaussian 09:  EM64L-G09RevE.01 30-Nov-2015

 --------------------------------------
 #p ccsd(t,maxcyc=200)/6-311++G(3df,2p)
 --------------------------------------

 -------------
 ccsd(t) iener
 -------------
 Symbolic Z-matrix:
 Charge = -1 Multiplicity = 3

                         Standard orientation:
 ---------------------------------------------------------------------
 Center     Atomic      Atomic             Coordinates (Angstroms)
 Number     Number       Type             X           Y           Z
 ---------------------------------------------------------------------
      1          6           0        0.047615   -0.584703    0.000000
      2          1           0        0.949819   -1.191355    0.000000
      3          1           0       -0.889198   -1.152067    0.000000
      4          6           0        0.047615    0.716720    0.000000
      5          1           0       -0.632002    1.551320    0.000000
 ---------------------------------------------------------------------

 SCF Done:  E(UHF) =  -77.3716196776     A.U. after   26 cycles
 E2 =    -0.2896546728D+00 EUMP2 =    -0.77661274350370D+02
 CCSD(T)
 CCSD(T)= -0.77709755810D+02

 The electronic state is 3-A'.
 Alpha  occ. eigenvalues --  -11.11239 -11.08524  -0.91007  -0.65014  -0.49538
 Alpha  occ. eigenvalues --   -0.46684  -0.26698  -0.25281   0.04510
 Alpha virt. eigenvalues --    0.14346   0.15605   0.22310   0.24221   0.24383
 Alpha virt. eigenvalues --    0.25309   0.29432   0.30283   0.32363   0.32709
 Alpha virt. eigenvalues --    0.35838   0.38326   0.40603   0.50466   0.54475

  Beta  occ. eigenvalues --  -11.09702 -11.07804  -0.87669  -0.59613  -0.47184
  Beta  occ. eigenvalues --   -0.43360  -0.25672
  Beta virt. eigenvalues --    0.15676   0.18095   0.19232   0.22580   0.24578
  Beta virt. eigenvalues --    0.25216   0.26108   0.29763   0.31223   0.32840
  Beta virt. eigenvalues --    0.33853   0.34695   0.38009   0.38797   0.43127

 Mulliken charges and spin densities:
               1          2
     1  C    1.390818  -2.369574
     2  H   -0.622085   0.800089
     3  H   -0.125523   0.340429
     4  C    0.822156   0.575170
     5  H   -2.465366   2.653886
 Sum of Mulliken charges =  -1.00000   2.00000

 Dipole moment (field-independent basis, Debye):
    X=              4.5827    Y=             -5.1145    Z=              0.0000  Tot=              6.8673
 Quadrupole moment (field-independent basis, Debye-Ang):
   XX=            -43.2753   YY=            -46.1486   ZZ=            -31.5616
   XY=              7.4715   XZ=              0.0000   YZ=              0.0000

 83264\PMP3-0=-77.6903391\MP4SDQ=-77.6892339\CCSD=-77.6951381\CCSD(T)=-
 Normal termination of Gaussian 09 at Mon Mar 11 23:21:50 2019.
