 Gaussian 09, Revision E.01,
 Gaussian 09:  EM64L-G09RevE.01 30-Nov-2015

 --------------------------------------
 #p ccsd(t,maxcyc=200)/6-311++G(3df,2p)
 --------------------------------------

 -------------
 ccsd(t) iener
 -------------
 Symbolic Z-matrix:
 Charge = -1 Multiplicity = 3

                         Standard orientation:
 ---------------------------------------------------------------------
 Center     Atomic      Atomic             Coordinates (Angstroms)
 Number     Number       Type             X           Y           Z
 ---------------------------------------------------------------------
      1          6           0        1.591941   -0.494466   -0.000255
      2          6           0        0.787576    0.488177    0.000267
      3          1           0        0.392524    1.480282    0.000742
      4          1           0       -1.746266    0.262139   -0.765251
      5          1           0       -1.745076    0.256241    0.768598
      6          8           0       -1.397286   -0.245116   -0.000520
 ---------------------------------------------------------------------

 SCF Done:  E(UHF) =  -152.188221566     A.U. after   39 cycles
 E2 =    -0.5314940875D+00 EUMP2 =    -0.15271971565351D+03
 CCSD(T)
 CCSD(T)= -0.15277287605D+03

 The electronic state is 3-A.
 Alpha  occ. eigenvalues --  -20.44135 -11.14527 -11.13115  -1.22381  -0.93214
 Alpha  occ. eigenvalues --   -0.62328  -0.57322  -0.47393  -0.40869  -0.33061
 Alpha  occ. eigenvalues --   -0.29117  -0.28641   0.01805
 Alpha virt. eigenvalues --    0.15680   0.17180   0.20691   0.23371   0.23431
 Alpha virt. eigenvalues --    0.25475   0.26012   0.26634   0.29686   0.31890
 Alpha virt. eigenvalues --    0.33871   0.35963   0.39279   0.39609   0.39842

  Beta  occ. eigenvalues --  -20.43540 -11.13105 -11.12404  -1.20795  -0.85064
  Beta  occ. eigenvalues --   -0.59906  -0.57006  -0.45367  -0.37183  -0.30687
  Beta  occ. eigenvalues --   -0.26492
  Beta virt. eigenvalues --    0.14657   0.16920   0.20039   0.20145   0.21819
  Beta virt. eigenvalues --    0.23923   0.25630   0.26835   0.27466   0.28942
  Beta virt. eigenvalues --    0.31642   0.32872   0.36964   0.40654   0.40850

 Mulliken charges and spin densities:
               1          2
     1  C    0.785842  -1.056933
     2  C    1.043350  -0.122549
     3  H   -2.075813   2.359861
     4  H   -0.101376   0.386362
     5  H   -0.099024   0.383714
     6  O   -0.552979   0.049546
 Sum of Mulliken charges =  -1.00000   2.00000

 Dipole moment (field-independent basis, Debye):
    X=              2.5309    Y=             -3.8987    Z=              0.0041  Tot=              4.6482
 Quadrupole moment (field-independent basis, Debye-Ang):
   XX=            -50.4064   YY=            -49.7167   ZZ=            -35.3160
   XY=              6.6525   XZ=             -0.0093   YZ=             -0.0073

 Normal termination of Gaussian 09 at Fri Mar  8 09:00:13 2019.
