 Gaussian 09, Revision E.01,
 Gaussian 09:  EM64L-G09RevE.01 30-Nov-2015

 --------------------------------------
 #p ccsd(t,maxcyc=200)/6-311++G(3df,2p)
 --------------------------------------

 -------------
 ccsd(t) iener
 -------------
 Symbolic Z-matrix:
 Charge = -1 Multiplicity = 3

                         Standard orientation:
 ---------------------------------------------------------------------
 Center     Atomic      Atomic             Coordinates (Angstroms)
 Number     Number       Type             X           Y           Z
 ---------------------------------------------------------------------
      1          6           0        0.047466   -0.584593    0.000000
      2          1           0       -0.888465   -1.153424    0.000000
      3          1           0        0.949887   -1.190824    0.000000
      4          6           0        0.047466    0.716609    0.000000
      5          1           0       -0.631015    1.552155    0.000000
 ---------------------------------------------------------------------

 SCF Done:  E(UHF) =  -77.3716083517     A.U. after   26 cycles
 E2 =    -0.2896692219D+00 EUMP2 =    -0.77661277573633D+02
 CCSD(T)
 CCSD(T)= -0.77709745601D+02

 The electronic state is 3-A'.
 Alpha  occ. eigenvalues --  -11.11237 -11.08524  -0.91014  -0.65021  -0.49549
 Alpha  occ. eigenvalues --   -0.46686  -0.26703  -0.25270   0.04509
 Alpha virt. eigenvalues --    0.14345   0.15604   0.22309   0.24222   0.24383
 Alpha virt. eigenvalues --    0.25309   0.29428   0.30285   0.32363   0.32707
 Alpha virt. eigenvalues --    0.35838   0.38325   0.40606   0.50462   0.54476

  Beta  occ. eigenvalues --  -11.09702 -11.07804  -0.87675  -0.59619  -0.47199
  Beta  occ. eigenvalues --   -0.43356  -0.25677
  Beta virt. eigenvalues --    0.15674   0.18087   0.19234   0.22581   0.24576
  Beta virt. eigenvalues --    0.25215   0.26105   0.29762   0.31225   0.32842
  Beta virt. eigenvalues --    0.33854   0.34690   0.38009   0.38794   0.43132

 Mulliken charges and spin densities:
               1          2
     1  C    1.398124  -2.376973
     2  H   -0.123631   0.338456
     3  H   -0.621408   0.799452
     4  C    0.817792   0.579495
     5  H   -2.470876   2.659571
 Sum of Mulliken charges =  -1.00000   2.00000

 Dipole moment (field-independent basis, Debye):
    X=              4.5779    Y=             -5.1362    Z=              0.0000  Tot=              6.8802
 Quadrupole moment (field-independent basis, Debye-Ang):
   XX=            -43.2546   YY=            -46.1950   ZZ=            -31.5631
   XY=              7.4872   XZ=              0.0000   YZ=             -0.0000

 27\PMP3-0=-77.6903338\MP4SDQ=-77.6892323\CCSD=-77.6951294\CCSD(T)=-77.
 Normal termination of Gaussian 09 at Mon Mar 11 23:24:37 2019.
