 Gaussian 09, Revision E.01,
 Gaussian 09:  EM64L-G09RevE.01 30-Nov-2015

 --------------------------------------
 #p ccsd(t,maxcyc=200)/6-311++G(3df,2p)
 --------------------------------------

 -------------
 ccsd(t) iener
 -------------
 Symbolic Z-matrix:
 Charge = -1 Multiplicity = 1

                         Standard orientation:
 ---------------------------------------------------------------------
 Center     Atomic      Atomic             Coordinates (Angstroms)
 Number     Number       Type             X           Y           Z
 ---------------------------------------------------------------------
      1          6           0       -0.051203   -0.583165   -0.000025
      2          6           0       -1.185880    0.149344   -0.000049
      3          1           0       -2.151122   -0.344413    0.000280
      4          1           0       -1.192371    1.248868   -0.000057
      5          1           0        1.839331   -0.364200   -0.000103
      6          8           0        1.115833    0.257833    0.000041
 ---------------------------------------------------------------------

 SCF Done:  E(RHF) =  -152.297162956     A.U. after   15 cycles
 E2 =    -0.5801682464D+00 EUMP2 =    -0.15287733120281D+03
 CCSD(T)
 CCSD(T)= -0.15292082030D+03

 The electronic state is 1-A.
 Alpha  occ. eigenvalues --  -20.35342 -11.01688 -10.96731  -1.14305  -0.75747
 Alpha  occ. eigenvalues --   -0.52475  -0.43076  -0.36266  -0.32363  -0.32189
 Alpha  occ. eigenvalues --   -0.09975  -0.09970
 Alpha virt. eigenvalues --    0.17644   0.18085   0.18867   0.27009   0.28407
 Alpha virt. eigenvalues --    0.28800   0.29147   0.30757   0.34923   0.35541
 Alpha virt. eigenvalues --    0.36730   0.42554   0.44193   0.44451   0.47401

 Mulliken charges:
               1
     1  C   -0.335477
     2  C   -0.274295
     3  H    0.055263
     4  H   -0.016582
     5  H    0.231522
     6  O   -0.660430
 Sum of Mulliken charges =  -1.00000

 Dipole moment (field-independent basis, Debye):
    X=              1.6807    Y=              1.4585    Z=              0.0001  Tot=              2.2253
 Quadrupole moment (field-independent basis, Debye-Ang):
   XX=            -23.2970   YY=            -28.2336   ZZ=            -25.6880
   XY=             -1.8475   XZ=             -0.0016   YZ=             -0.0002

 8929781\CCSD(T)=-152.9208203\RMSD=5.014e-09\PG=C01 [X(C2H3O1)]\\@
 Normal termination of Gaussian 09 at Fri Mar  8 07:33:39 2019.
