 Gaussian 09, Revision E.01,
 Gaussian 09:  EM64L-G09RevE.01 30-Nov-2015

 --------------------------------------
 #p ccsd(t,maxcyc=200)/6-311++G(3df,2p)
 --------------------------------------

 -------------
 ccsd(t) iener
 -------------
 Symbolic Z-matrix:
 Charge = -1 Multiplicity = 3

                         Standard orientation:
 ---------------------------------------------------------------------
 Center     Atomic      Atomic             Coordinates (Angstroms)
 Number     Number       Type             X           Y           Z
 ---------------------------------------------------------------------
      1          6           0       -1.336579   -0.457376   -0.000236
      2          6           0       -0.205372    0.506229    0.000120
      3          1           0       -0.195447    1.166492    0.889647
      4          1           0       -0.194833    1.167673   -0.888456
      5          1           0        0.827983   -1.117636    0.001558
      6          8           0        1.101751   -0.188706   -0.000256
 ---------------------------------------------------------------------

 SCF Done:  E(UHF) =  -152.242044346     A.U. after   19 cycles
 E2 =    -0.5382664105D+00 EUMP2 =    -0.15278031075693D+03
 CCSD(T)
 CCSD(T)= -0.15283009741D+03

 The electronic state is 3-A.
 Alpha  occ. eigenvalues --  -20.36448 -11.06687 -10.97684  -1.15481  -0.77085
 Alpha  occ. eigenvalues --   -0.57172  -0.42437  -0.40891  -0.39492  -0.26658
 Alpha  occ. eigenvalues --   -0.18799  -0.09963  -0.08679
 Alpha virt. eigenvalues --    0.16932   0.19095   0.19582   0.24881   0.27096
 Alpha virt. eigenvalues --    0.29007   0.30424   0.31288   0.33027   0.34454
 Alpha virt. eigenvalues --    0.35896   0.43733   0.44822   0.45506   0.49145

  Beta  occ. eigenvalues --  -20.35991 -11.07162 -10.93951  -1.13997  -0.72998
  Beta  occ. eigenvalues --   -0.50149  -0.40817  -0.38032  -0.34273  -0.25374
  Beta  occ. eigenvalues --   -0.11107
  Beta virt. eigenvalues --    0.17011   0.19141   0.19422   0.24525   0.27293
  Beta virt. eigenvalues --    0.27895   0.28658   0.29291   0.32483   0.34595
  Beta virt. eigenvalues --    0.37316   0.40893   0.43473   0.45320   0.46688

 Mulliken charges and spin densities:
               1          2
     1  C   -1.074660   2.193184
     2  C    0.639903  -0.344243
     3  H    0.006375   0.059663
     4  H    0.006400   0.059651
     5  H    0.245070   0.008474
     6  O   -0.823089   0.023272
 Sum of Mulliken charges =  -1.00000   2.00000

 Dipole moment (field-independent basis, Debye):
    X=              4.2444    Y=              2.1731    Z=              0.0035  Tot=              4.7684
 Quadrupole moment (field-independent basis, Debye-Ang):
   XX=            -38.3881   YY=            -24.1390   ZZ=            -23.9697
   XY=             -5.7462   XZ=              0.0014   YZ=             -0.0059

 PMP3-0=-152.8025492\MP4SDQ=-152.8066605\CCSD=-152.8066024\CCSD(T)=-152
 Normal termination of Gaussian 09 at Fri Mar  8 08:47:13 2019.
