 Gaussian 09, Revision E.01,
 Gaussian 09:  EM64L-G09RevE.01 30-Nov-2015

 --------------------------------------
 #p ccsd(t,maxcyc=200)/6-311++G(3df,2p)
 --------------------------------------

 -------------
 ccsd(t) iener
 -------------
 Symbolic Z-matrix:
 Charge = -1 Multiplicity = 1

                         Standard orientation:
 ---------------------------------------------------------------------
 Center     Atomic      Atomic             Coordinates (Angstroms)
 Number     Number       Type             X           Y           Z
 ---------------------------------------------------------------------
      1          6           0       -0.067684    0.572324    0.000000
      2          1           0       -0.998227    1.152130    0.000000
      3          1           0        0.828281    1.227456    0.000000
      4          6           0       -0.067684   -0.777790    0.000000
      5          1           0        0.982152   -1.146795    0.000000
 ---------------------------------------------------------------------

 SCF Done:  E(RHF) =  -77.3894713713     A.U. after   14 cycles
 E2 =    -0.3425619322D+00 EUMP2 =    -0.77732033303439D+02
 CCSD(T)
 CCSD(T)= -0.77769835884D+02

 The electronic state is 1-A'.
 Alpha  occ. eigenvalues --  -10.98422 -10.95843  -0.75833  -0.50690  -0.35843
 Alpha  occ. eigenvalues --   -0.28031  -0.11589  -0.07321
 Alpha virt. eigenvalues --    0.17603   0.18736   0.19705   0.28014   0.28315
 Alpha virt. eigenvalues --    0.29630   0.29715   0.33835   0.34481   0.36834
 Alpha virt. eigenvalues --    0.37384   0.44339   0.45501   0.47424   0.51746

 Mulliken charges:
               1
     1  C   -0.279693
     2  H    0.023628
     3  H   -0.030142
     4  C   -0.747755
     5  H    0.033962
 Sum of Mulliken charges =  -1.00000

 Dipole moment (field-independent basis, Debye):
    X=              1.6946    Y=              2.8484    Z=              0.0000  Tot=              3.3143
 Quadrupole moment (field-independent basis, Debye-Ang):
   XX=            -19.1690   YY=            -23.7363   ZZ=            -20.2459
   XY=             -2.9068   XZ=              0.0000   YZ=              0.0000

 9\CCSD(T)=-77.7698359\RMSD=3.793e-09\PG=CS [SG(C2H3)]\\@
 Normal termination of Gaussian 09 at Mon Mar 11 22:56:06 2019.
