 Gaussian 09, Revision E.01,
 Gaussian 09:  EM64L-G09RevE.01 30-Nov-2015

 --------------------------------------
 #p ccsd(t,maxcyc=200)/6-311++G(3df,2p)
 --------------------------------------

 -------------
 ccsd(t) iener
 -------------
 Symbolic Z-matrix:
 Charge = -1 Multiplicity = 1

                         Standard orientation:
 ---------------------------------------------------------------------
 Center     Atomic      Atomic             Coordinates (Angstroms)
 Number     Number       Type             X           Y           Z
 ---------------------------------------------------------------------
      1          6           0       -0.645215   -0.388811    0.011884
      2          6           0        0.831622   -0.442990   -0.200579
      3          1           0       -1.121701   -0.662864    0.965204
      4          1           0       -1.317628   -0.563784   -0.837805
      5          1           0        1.278560   -0.639366    0.801308
      6          8           0        0.005291    0.857102    0.025432
 ---------------------------------------------------------------------

 SCF Done:  E(RHF) =  -152.250331079     A.U. after   15 cycles
 E2 =    -0.5894041486D+00 EUMP2 =    -0.15283973522758D+03
 CCSD(T)
 CCSD(T)= -0.15288115904D+03

 The electronic state is 1-A.
 Alpha  occ. eigenvalues --  -20.31801 -11.05088 -10.99711  -1.12956  -0.67720
 Alpha  occ. eigenvalues --   -0.57497  -0.43071  -0.37043  -0.27726  -0.22027
 Alpha  occ. eigenvalues --   -0.18584  -0.07648
 Alpha virt. eigenvalues --    0.16678   0.18195   0.19227   0.24316   0.27615
 Alpha virt. eigenvalues --    0.27971   0.29008   0.33262   0.33420   0.34712
 Alpha virt. eigenvalues --    0.36066   0.42288   0.46654   0.47971   0.49888

 Mulliken charges:
               1
     1  C    0.308516
     2  C   -0.522235
     3  H   -0.006669
     4  H    0.006696
     5  H    0.019847
     6  O   -0.806154
 Sum of Mulliken charges =  -1.00000

 Dipole moment (field-independent basis, Debye):
    X=             -3.1644    Y=             -0.4402    Z=              1.9495  Tot=              3.7427
 Quadrupole moment (field-independent basis, Debye-Ang):
   XX=            -26.7755   YY=            -26.1419   ZZ=            -24.4724
   XY=              2.1681   XZ=              3.2947   YZ=             -1.6186

 .8529877\CCSD(T)=-152.881159\RMSD=6.237e-09\PG=C01 [X(C2H3O1)]\\@
 Normal termination of Gaussian 09 at Fri Mar  8 07:33:05 2019.
