 Gaussian 09, Revision E.01,
 Gaussian 09:  EM64L-G09RevE.01 30-Nov-2015

 --------------------------------------
 #p ccsd(t,maxcyc=200)/6-311++G(3df,2p)
 --------------------------------------

 -------------
 ccsd(t) iener
 -------------
 Symbolic Z-matrix:
 Charge = -1 Multiplicity = 3

                         Standard orientation:
 ---------------------------------------------------------------------
 Center     Atomic      Atomic             Coordinates (Angstroms)
 Number     Number       Type             X           Y           Z
 ---------------------------------------------------------------------
      1          6           0       -0.000000    0.000000   -0.514710
      2          6           0        0.000000   -0.000000    0.993340
      3          1           0       -0.000000    1.020298   -0.957259
      4          1           0       -0.883604   -0.510149   -0.957259
      5          1           0        0.883604   -0.510149   -0.957259
 ---------------------------------------------------------------------

 SCF Done:  E(UHF) =  -77.3436723466     A.U. after   16 cycles
 E2 =    -0.3009410445D+00 EUMP2 =    -0.77644613391167D+02
 CCSD(T)
 CCSD(T)= -0.77687933361D+02

 The electronic state is 3-A1.
 Alpha  occ. eigenvalues --  -11.00831 -10.95826  -0.77488  -0.52157  -0.35408
 Alpha  occ. eigenvalues --   -0.35408  -0.16774  -0.06481  -0.06481
 Alpha virt. eigenvalues --    0.16669   0.19416   0.19416   0.25367   0.30083
 Alpha virt. eigenvalues --    0.30630   0.30630   0.32574   0.32574   0.34647
 Alpha virt. eigenvalues --    0.36960   0.45816   0.45816   0.53078   0.62439

  Beta  occ. eigenvalues --  -11.01333 -10.91930  -0.74354  -0.39332  -0.33069
  Beta  occ. eigenvalues --   -0.33069  -0.08395
  Beta virt. eigenvalues --    0.16764   0.19449   0.19449   0.25777   0.28889
  Beta virt. eigenvalues --    0.28889   0.30323   0.31240   0.31240   0.34779
  Beta virt. eigenvalues --    0.38395   0.44637   0.44637   0.49335   0.49335

 Mulliken charges and spin densities:
               1          2
     1  C    0.033107  -0.408952
     2  C   -1.066597   2.232538
     3  H    0.011163   0.058805
     4  H    0.011163   0.058805
     5  H    0.011163   0.058805
 Sum of Mulliken charges =  -1.00000   2.00000

 Dipole moment (field-independent basis, Debye):
    X=             -0.0000    Y=             -0.0000    Z=             -5.3798  Tot=              5.3798
 Quadrupole moment (field-independent basis, Debye-Ang):
   XX=            -19.0406   YY=            -19.0406   ZZ=            -28.9018
   XY=              0.0000   XZ=              0.0000   YZ=             -0.0000

 Normal termination of Gaussian 09 at Mon Mar 11 23:23:49 2019.
