 Gaussian 09, Revision E.01,
 Gaussian 09:  EM64L-G09RevE.01 30-Nov-2015

 --------------------------------------
 #p ccsd(t,maxcyc=200)/6-311++G(3df,2p)
 --------------------------------------

 -------------
 ccsd(t) iener
 -------------
 Symbolic Z-matrix:
 Charge = -1 Multiplicity = 1

                         Standard orientation:
 ---------------------------------------------------------------------
 Center     Atomic      Atomic             Coordinates (Angstroms)
 Number     Number       Type             X           Y           Z
 ---------------------------------------------------------------------
      1          6           0       -0.067599    0.572662    0.000000
      2          1           0       -0.998976    1.151071    0.000000
      3          1           0        0.828409    1.226468    0.000000
      4          6           0       -0.067599   -0.777646    0.000000
      5          1           0        0.981756   -1.147632    0.000000
 ---------------------------------------------------------------------

 SCF Done:  E(RHF) =  -77.3894875414     A.U. after   14 cycles
 E2 =    -0.3425521954D+00 EUMP2 =    -0.77732039736844D+02
 CCSD(T)
 CCSD(T)= -0.77769840047D+02

 The electronic state is 1-A'.
 Alpha  occ. eigenvalues --  -10.98413 -10.95842  -0.75831  -0.50684  -0.35870
 Alpha  occ. eigenvalues --   -0.28038  -0.11582  -0.07312
 Alpha virt. eigenvalues --    0.17603   0.18735   0.19703   0.28014   0.28314
 Alpha virt. eigenvalues --    0.29631   0.29717   0.33835   0.34482   0.36834
 Alpha virt. eigenvalues --    0.37384   0.44340   0.45499   0.47429   0.51758

 Mulliken charges:
               1
     1  C   -0.280325
     2  H    0.023725
     3  H   -0.029409
     4  C   -0.747924
     5  H    0.033933
 Sum of Mulliken charges =  -1.00000

 Dipole moment (field-independent basis, Debye):
    X=              1.6967    Y=              2.8490    Z=              0.0000  Tot=              3.3160
 Quadrupole moment (field-independent basis, Debye-Ang):
   XX=            -19.1670   YY=            -23.7359   ZZ=            -20.2480
   XY=             -2.9068   XZ=              0.0000   YZ=              0.0000

 46\CCSD(T)=-77.76984\RMSD=3.791e-09\PG=CS [SG(C2H3)]\\@
 Normal termination of Gaussian 09 at Mon Mar 11 23:21:34 2019.
