 Gaussian 09, Revision E.01,
 Gaussian 09:  EM64L-G09RevE.01 30-Nov-2015

 --------------------------------------
 #p ccsd(t,maxcyc=200)/6-311++G(3df,2p)
 --------------------------------------

 -------------
 ccsd(t) iener
 -------------
 Symbolic Z-matrix:
 Charge = -1 Multiplicity = 3

                         Standard orientation:
 ---------------------------------------------------------------------
 Center     Atomic      Atomic             Coordinates (Angstroms)
 Number     Number       Type             X           Y           Z
 ---------------------------------------------------------------------
      1          6           0       -1.256994    0.084376    0.010399
      2          6           0       -0.016568   -0.364278   -0.009090
      3          1           0       -1.475658    1.144781    0.122956
      4          1           0       -2.096656   -0.598602   -0.056613
      5          1           0        1.886377   -0.398168    0.314753
      6          8           0        1.165913    0.191425   -0.048618
 ---------------------------------------------------------------------

 SCF Done:  E(UHF) =  -152.271716281     A.U. after   46 cycles
 E2 =    -0.5344459653D+00 EUMP2 =    -0.15280616224592D+03
 CCSD(T)
 CCSD(T)= -0.15285585579D+03

 The electronic state is 3-A.
 Alpha  occ. eigenvalues --  -20.45982 -11.17764 -11.08044  -1.28672  -0.89842
 Alpha  occ. eigenvalues --   -0.66726  -0.56684  -0.51541  -0.47733  -0.43853
 Alpha  occ. eigenvalues --   -0.26167  -0.21539   0.02932
 Alpha virt. eigenvalues --    0.14098   0.15495   0.22091   0.22430   0.24242
 Alpha virt. eigenvalues --    0.24791   0.26684   0.30533   0.31454   0.31999
 Alpha virt. eigenvalues --    0.35060   0.36927   0.40757   0.42819   0.44201

  Beta  occ. eigenvalues --  -20.45155 -11.14616 -11.08726  -1.25743  -0.86993
  Beta  occ. eigenvalues --   -0.64616  -0.50905  -0.46908  -0.45175  -0.41113
  Beta  occ. eigenvalues --   -0.22880
  Beta virt. eigenvalues --    0.14086   0.15752   0.20629   0.23101   0.24052
  Beta virt. eigenvalues --    0.24554   0.25746   0.26899   0.30260   0.31632
  Beta virt. eigenvalues --    0.32562   0.34618   0.37284   0.38571   0.43773

 Mulliken charges and spin densities:
               1          2
     1  C    0.687627  -1.682858
     2  C    0.819705   1.101024
     3  H    0.168115   0.014690
     4  H   -0.148489   0.294310
     5  H   -1.780098   2.140595
     6  O   -0.746860   0.132240
 Sum of Mulliken charges =  -1.00000   2.00000

 Dipole moment (field-independent basis, Debye):
    X=            -10.8302    Y=              2.8384    Z=             -2.2343  Tot=             11.4167
 Quadrupole moment (field-independent basis, Debye-Ang):
   XX=            -65.7582   YY=            -34.2759   ZZ=            -34.4188
   XY=              6.2826   XZ=             -6.5450   YZ=              1.6829

 Normal termination of Gaussian 09 at Fri Mar  8 08:51:12 2019.
