 Gaussian 09, Revision E.01,
 Gaussian 09:  EM64L-G09RevE.01 30-Nov-2015

 --------------------------------------
 #p ccsd(t,maxcyc=200)/6-311++G(3df,2p)
 --------------------------------------

 -------------
 ccsd(t) iener
 -------------
 Symbolic Z-matrix:
 Charge = -1 Multiplicity = 3

                         Standard orientation:
 ---------------------------------------------------------------------
 Center     Atomic      Atomic             Coordinates (Angstroms)
 Number     Number       Type             X           Y           Z
 ---------------------------------------------------------------------
      1          6           0       -0.000000    0.000000   -0.514655
      2          6           0        0.000000   -0.000000    0.993099
      3          1           0       -0.000000    1.020499   -0.956890
      4          1           0       -0.883778   -0.510249   -0.956890
      5          1           0        0.883778   -0.510249   -0.956890
 ---------------------------------------------------------------------

 SCF Done:  E(UHF) =  -77.3436670117     A.U. after   16 cycles
 E2 =    -0.3009441971D+00 EUMP2 =    -0.77644611208800D+02
 CCSD(T)
 CCSD(T)= -0.77687929951D+02

 The electronic state is 3-A1.
 Alpha  occ. eigenvalues --  -11.00832 -10.95822  -0.77494  -0.52151  -0.35413
 Alpha  occ. eigenvalues --   -0.35413  -0.16774  -0.06477  -0.06477
 Alpha virt. eigenvalues --    0.16670   0.19417   0.19417   0.25366   0.30084
 Alpha virt. eigenvalues --    0.30628   0.30628   0.32574   0.32574   0.34647
 Alpha virt. eigenvalues --    0.36961   0.45815   0.45815   0.53073   0.62444

  Beta  occ. eigenvalues --  -11.01334 -10.91926  -0.74357  -0.39331  -0.33073
  Beta  occ. eigenvalues --   -0.33073  -0.08393
  Beta virt. eigenvalues --    0.16765   0.19449   0.19449   0.25776   0.28889
  Beta virt. eigenvalues --    0.28889   0.30323   0.31238   0.31238   0.34779
  Beta virt. eigenvalues --    0.38396   0.44636   0.44636   0.49336   0.49336

 Mulliken charges and spin densities:
               1          2
     1  C    0.033410  -0.409088
     2  C   -1.066832   2.232567
     3  H    0.011141   0.058840
     4  H    0.011141   0.058840
     5  H    0.011141   0.058840
 Sum of Mulliken charges =  -1.00000   2.00000

 Dipole moment (field-independent basis, Debye):
    X=              0.0000    Y=             -0.0000    Z=             -5.3795  Tot=              5.3795
 Quadrupole moment (field-independent basis, Debye-Ang):
   XX=            -19.0406   YY=            -19.0406   ZZ=            -28.9028
   XY=             -0.0000   XZ=             -0.0000   YZ=              0.0000

 6\MP4SDQ=-77.6735521\CCSD=-77.6742894\CCSD(T)=-77.68793\S2=2.035029\S2
 Normal termination of Gaussian 09 at Mon Mar 11 23:24:22 2019.
