 Gaussian 09, Revision E.01,
 Gaussian 09:  EM64L-G09RevE.01 30-Nov-2015

 --------------------------------------
 #p ccsd(t,maxcyc=200)/6-311++G(3df,2p)
 --------------------------------------

 -------------
 ccsd(t) iener
 -------------
 Symbolic Z-matrix:
 Charge = -1 Multiplicity = 1

                         Standard orientation:
 ---------------------------------------------------------------------
 Center     Atomic      Atomic             Coordinates (Angstroms)
 Number     Number       Type             X           Y           Z
 ---------------------------------------------------------------------
      1          6           0       -1.148518    0.117343   -0.000072
      2          6           0        0.276917   -0.551818    0.000002
      3          1           0       -1.695710   -0.236921   -0.880372
      4          1           0       -1.694931   -0.236650    0.880958
      5          1           0       -1.091222    1.221961   -0.000003
      6          8           0        1.213934    0.232307   -0.000020
 ---------------------------------------------------------------------

 SCF Done:  E(RHF) =  -152.320898439     A.U. after   18 cycles
 E2 =    -0.5791300827D+00 EUMP2 =    -0.15290002852199D+03
 CCSD(T)
 CCSD(T)= -0.15294469256D+03

 The electronic state is 1-A.
 Alpha  occ. eigenvalues --  -20.30773 -11.04830 -11.02008  -1.13375  -0.76763
 Alpha  occ. eigenvalues --   -0.49604  -0.38618  -0.37584  -0.36134  -0.27665
 Alpha  occ. eigenvalues --   -0.26802  -0.04416
 Alpha virt. eigenvalues --    0.16565   0.18893   0.19290   0.24283   0.27298
 Alpha virt. eigenvalues --    0.28033   0.28620   0.29842   0.30415   0.33915
 Alpha virt. eigenvalues --    0.36177   0.40501   0.44427   0.44553   0.48037

 Mulliken charges:
               1
     1  C    0.389854
     2  C   -0.473478
     3  H   -0.032414
     4  H   -0.032425
     5  H   -0.110837
     6  O   -0.740700
 Sum of Mulliken charges =  -1.00000

 Dipole moment (field-independent basis, Debye):
    X=             -2.5677    Y=              1.8834    Z=             -0.0004  Tot=              3.1844
 Quadrupole moment (field-independent basis, Debye-Ang):
   XX=            -30.0216   YY=            -30.1931   ZZ=            -22.6259
   XY=              0.7046   XZ=              0.0007   YZ=              0.0007

 9161103\CCSD(T)=-152.9446926\RMSD=4.703e-09\PG=C01 [X(C2H3O1)]\\@
 Normal termination of Gaussian 09 at Fri Mar  8 07:33:42 2019.
