 Gaussian 09, Revision E.01,
 Gaussian 09:  EM64L-G09RevE.01 30-Nov-2015

 --------------------------------------
 #p ccsd(t,maxcyc=200)/6-311++G(3df,2p)
 --------------------------------------

 -------------
 ccsd(t) iener
 -------------
 Symbolic Z-matrix:
 Charge = -1 Multiplicity = 1

                         Standard orientation:
 ---------------------------------------------------------------------
 Center     Atomic      Atomic             Coordinates (Angstroms)
 Number     Number       Type             X           Y           Z
 ---------------------------------------------------------------------
      1          6           0       -1.212354   -0.388950   -0.000011
      2          6           0       -0.155232    0.407358    0.000119
      3          1           0       -0.082989    1.501517    0.000019
      4          1           0       -2.154584    0.177270   -0.000261
      5          1           0        1.021586   -1.049677    0.000353
      6          8           0        1.177688   -0.092445   -0.000095
 ---------------------------------------------------------------------

 SCF Done:  E(RHF) =  -152.294861290     A.U. after   15 cycles
 E2 =    -0.5853157886D+00 EUMP2 =    -0.15288017707835D+03
 CCSD(T)
 CCSD(T)= -0.15292216075D+03

 The electronic state is 1-A.
 Alpha  occ. eigenvalues --  -20.36072 -11.04775 -10.95313  -1.15720  -0.76004
 Alpha  occ. eigenvalues --   -0.56345  -0.42882  -0.38051  -0.34340  -0.30571
 Alpha  occ. eigenvalues --   -0.10539  -0.09005
 Alpha virt. eigenvalues --    0.17053   0.18668   0.19272   0.26471   0.27910
 Alpha virt. eigenvalues --    0.28673   0.28802   0.31794   0.32765   0.34979
 Alpha virt. eigenvalues --    0.36899   0.43003   0.44348   0.46479   0.47418

 Mulliken charges:
               1
     1  C   -0.864951
     2  C    0.283865
     3  H    0.029202
     4  H    0.046552
     5  H    0.214192
     6  O   -0.708860
 Sum of Mulliken charges =  -1.00000

 Dipole moment (field-independent basis, Debye):
    X=              2.5565    Y=              2.0459    Z=              0.0003  Tot=              3.2744
 Quadrupole moment (field-independent basis, Debye-Ang):
   XX=            -31.1573   YY=            -25.0092   ZZ=            -25.2182
   XY=             -5.4238   XZ=              0.0017   YZ=             -0.0012

 3786\CCSD(T)=-152.9221607\RMSD=7.881e-09\PG=C01 [X(C2H3O1)]\\@
 Normal termination of Gaussian 09 at Fri Mar  8 07:33:03 2019.
