 Gaussian 09, Revision E.01,
 Gaussian 09:  EM64L-G09RevE.01 30-Nov-2015

 --------------------------------------
 #p ccsd(t,maxcyc=200)/6-311++G(3df,2p)
 --------------------------------------

 -------------
 ccsd(t) iener
 -------------
 Symbolic Z-matrix:
 Charge = -1 Multiplicity = 1

                         Standard orientation:
 ---------------------------------------------------------------------
 Center     Atomic      Atomic             Coordinates (Angstroms)
 Number     Number       Type             X           Y           Z
 ---------------------------------------------------------------------
      1          6           0       -0.067639    0.572515   -0.000000
      2          1           0        0.828357    1.226385    0.000000
      3          1           0       -0.999070    1.150410   -0.000000
      4          6           0       -0.067639   -0.777577   -0.000000
      5          1           0        0.982387   -1.146425    0.000000
 ---------------------------------------------------------------------

 SCF Done:  E(RHF) =  -77.3894930097     A.U. after   14 cycles
 E2 =    -0.3425475285D+00 EUMP2 =    -0.77732040538208D+02
 CCSD(T)
 CCSD(T)= -0.77769838596D+02

 The electronic state is 1-A'.
 Alpha  occ. eigenvalues --  -10.98406 -10.95837  -0.75840  -0.50678  -0.35876
 Alpha  occ. eigenvalues --   -0.28021  -0.11586  -0.07319
 Alpha virt. eigenvalues --    0.17603   0.18735   0.19705   0.28015   0.28313
 Alpha virt. eigenvalues --    0.29631   0.29716   0.33834   0.34482   0.36834
 Alpha virt. eigenvalues --    0.37383   0.44340   0.45506   0.47439   0.51756

 Mulliken charges:
               1
     1  C   -0.279855
     2  H   -0.029424
     3  H    0.023811
     4  C   -0.748201
     5  H    0.033670
 Sum of Mulliken charges =  -1.00000

 Dipole moment (field-independent basis, Debye):
    X=              1.6949    Y=              2.8507    Z=             -0.0000  Tot=              3.3165
 Quadrupole moment (field-independent basis, Debye-Ang):
   XX=            -19.1638   YY=            -23.7385   ZZ=            -20.2461
   XY=             -2.9024   XZ=             -0.0000   YZ=             -0.0000

 957\CCSD(T)=-77.7698386\RMSD=3.783e-09\PG=CS [SG(C2H3)]\\@
 Normal termination of Gaussian 09 at Mon Mar 11 23:23:32 2019.
