 Gaussian 09, Revision E.01,
 Gaussian 09:  EM64L-G09RevE.01 30-Nov-2015

 --------------------------------------
 #p ccsd(t,maxcyc=200)/6-311++G(3df,2p)
 --------------------------------------

 -------------
 ccsd(t) iener
 -------------
 Symbolic Z-matrix:
 Charge = -1 Multiplicity = 1

                         Standard orientation:
 ---------------------------------------------------------------------
 Center     Atomic      Atomic             Coordinates (Angstroms)
 Number     Number       Type             X           Y           Z
 ---------------------------------------------------------------------
      1          6           0       -0.067655    0.572524   -0.000000
      2          1           0        0.828506    1.226353   -0.000000
      3          1           0       -0.998967    1.150586   -0.000000
      4          6           0       -0.067655   -0.777596    0.000000
      5          1           0        0.982319   -1.146504    0.000000
 ---------------------------------------------------------------------

 SCF Done:  E(RHF) =  -77.3894912333     A.U. after   14 cycles
 E2 =    -0.3425491300D+00 EUMP2 =    -0.77732040363254D+02
 CCSD(T)
 CCSD(T)= -0.77769839091D+02

 The electronic state is 1-A'.
 Alpha  occ. eigenvalues --  -10.98408 -10.95838  -0.75839  -0.50679  -0.35873
 Alpha  occ. eigenvalues --   -0.28024  -0.11586  -0.07319
 Alpha virt. eigenvalues --    0.17604   0.18735   0.19705   0.28015   0.28313
 Alpha virt. eigenvalues --    0.29631   0.29716   0.33835   0.34482   0.36834
 Alpha virt. eigenvalues --    0.37384   0.44339   0.45505   0.47438   0.51756

 Mulliken charges:
               1
     1  C   -0.279885
     2  H   -0.029515
     3  H    0.023833
     4  C   -0.748154
     5  H    0.033721
 Sum of Mulliken charges =  -1.00000

 Dipole moment (field-independent basis, Debye):
    X=              1.6950    Y=              2.8504    Z=             -0.0000  Tot=              3.3163
 Quadrupole moment (field-independent basis, Debye-Ang):
   XX=            -19.1642   YY=            -23.7386   ZZ=            -20.2464
   XY=             -2.9036   XZ=              0.0000   YZ=              0.0000

 9956\CCSD(T)=-77.7698391\RMSD=3.784e-09\PG=CS [SG(C2H3)]\\@
 Normal termination of Gaussian 09 at Mon Mar 11 22:56:06 2019.
