 Gaussian 09, Revision E.01,
 Gaussian 09:  EM64L-G09RevE.01 30-Nov-2015

 --------------------------------------
 #p ccsd(t,maxcyc=200)/6-311++G(3df,2p)
 --------------------------------------

 -------------
 ccsd(t) iener
 -------------
 Symbolic Z-matrix:
 Charge = -1 Multiplicity = 3

                         Standard orientation:
 ---------------------------------------------------------------------
 Center     Atomic      Atomic             Coordinates (Angstroms)
 Number     Number       Type             X           Y           Z
 ---------------------------------------------------------------------
      1          6           0        0.047646   -0.584620    0.000000
      2          1           0        0.950445   -1.190608    0.000000
      3          1           0       -0.888645   -1.152682    0.000000
      4          6           0        0.047646    0.716796    0.000000
      5          1           0       -0.633553    1.550232    0.000000
 ---------------------------------------------------------------------

 SCF Done:  E(UHF) =  -77.3716268392     A.U. after   28 cycles
 E2 =    -0.2896543806D+00 EUMP2 =    -0.77661281219838D+02
 CCSD(T)
 CCSD(T)= -0.77709760076D+02

 The electronic state is 3-A'.
 Alpha  occ. eigenvalues --  -11.11239 -11.08517  -0.91005  -0.65006  -0.49539
 Alpha  occ. eigenvalues --   -0.46665  -0.26697  -0.25298   0.04512
 Alpha virt. eigenvalues --    0.14350   0.15606   0.22314   0.24223   0.24383
 Alpha virt. eigenvalues --    0.25309   0.29438   0.30280   0.32365   0.32713
 Alpha virt. eigenvalues --    0.35841   0.38334   0.40601   0.50451   0.54477

  Beta  occ. eigenvalues --  -11.09694 -11.07804  -0.87667  -0.59607  -0.47179
  Beta  occ. eigenvalues --   -0.43343  -0.25667
  Beta virt. eigenvalues --    0.15682   0.18104   0.19227   0.22573   0.24581
  Beta virt. eigenvalues --    0.25218   0.26117   0.29764   0.31217   0.32836
  Beta virt. eigenvalues --    0.33853   0.34700   0.38011   0.38805   0.43124

 Mulliken charges and spin densities:
               1          2
     1  C    1.384587  -2.362650
     2  H   -0.620326   0.798046
     3  H   -0.132063   0.347202
     4  C    0.821928   0.575009
     5  H   -2.454125   2.642393
 Sum of Mulliken charges =  -1.00000   2.00000

 Dipole moment (field-independent basis, Debye):
    X=              4.5971    Y=             -5.0725    Z=              0.0000  Tot=              6.8457
 Quadrupole moment (field-independent basis, Debye-Ang):
   XX=            -43.3047   YY=            -46.0732   ZZ=            -31.5562
   XY=              7.4302   XZ=              0.0000   YZ=              0.0000

 83306\PMP3-0=-77.6903441\MP4SDQ=-77.689241\CCSD=-77.6951425\CCSD(T)=-7
 Normal termination of Gaussian 09 at Mon Mar 11 23:27:26 2019.
