 Gaussian 09, Revision E.01,
 Gaussian 09:  EM64L-G09RevE.01 30-Nov-2015

 --------------------------------------
 #p ccsd(t,maxcyc=200)/6-311++G(3df,2p)
 --------------------------------------

 -------------
 ccsd(t) iener
 -------------
 Symbolic Z-matrix:
 Charge = -1 Multiplicity = 1

                         Standard orientation:
 ---------------------------------------------------------------------
 Center     Atomic      Atomic             Coordinates (Angstroms)
 Number     Number       Type             X           Y           Z
 ---------------------------------------------------------------------
      1          6           0       -0.694506   -1.170160    0.153612
      2          6           0       -0.947962    1.043088   -0.063214
      3          6           0       -0.047747    0.004823   -0.139151
      4          1           0       -1.653314   -1.242220   -0.360324
      5          1           0        1.625609   -0.782912    0.181386
      6          1           0       -0.574160    1.787894    0.669261
      7          8           0        1.342894    0.121342   -0.024726
 ---------------------------------------------------------------------

 SCF Done:  E(RHF) =  -190.083607771     A.U. after   19 cycles
 E2 =    -0.7226253623D+00 EUMP2 =    -0.19080623313295D+03
 CCSD(T)
 CCSD(T)= -0.19086484190D+03

 The electronic state is 1-A.
 Alpha  occ. eigenvalues --  -20.39487 -11.08253 -11.02830 -11.01979  -1.19803
 Alpha  occ. eigenvalues --   -0.85642  -0.66261  -0.54608  -0.46335  -0.39942
 Alpha  occ. eigenvalues --   -0.38050  -0.32355  -0.19126  -0.12525  -0.11805
 Alpha virt. eigenvalues --    0.16899   0.18045   0.18494   0.23472   0.25832
 Alpha virt. eigenvalues --    0.26094   0.27142   0.28423   0.29635   0.30310
 Alpha virt. eigenvalues --    0.31925   0.33235   0.34008   0.34918   0.36622

 Mulliken charges:
               1
     1  C   -0.888272
     2  C   -0.733669
     3  C    0.979495
     4  H    0.136897
     5  H    0.229411
     6  H    0.061470
     7  O   -0.785333
 Sum of Mulliken charges =  -1.00000

 Dipole moment (field-independent basis, Debye):
    X=              3.1520    Y=              0.2256    Z=             -0.2514  Tot=              3.1701
 Quadrupole moment (field-independent basis, Debye-Ang):
   XX=            -36.1813   YY=            -37.5019   ZZ=            -30.4591
   XY=              0.2363   XZ=              0.0410   YZ=              3.8012

 \MP4SDQ=-190.8253081\CCSD=-190.8247691\CCSD(T)=-190.8648419\RMSD=4.165
 Normal termination of Gaussian 09 at Fri Mar  8 09:00:41 2019.
