 Gaussian 09, Revision E.01,
 Gaussian 09:  EM64L-G09RevE.01 30-Nov-2015

 --------------------------------------
 #p ccsd(t,maxcyc=200)/6-311++G(3df,2p)
 --------------------------------------

 -------------
 ccsd(t) iener
 -------------
 Symbolic Z-matrix:
 Charge = -1 Multiplicity = 1

                         Standard orientation:
 ---------------------------------------------------------------------
 Center     Atomic      Atomic             Coordinates (Angstroms)
 Number     Number       Type             X           Y           Z
 ---------------------------------------------------------------------
      1          6           0       -1.011333   -0.667879    0.000023
      2          6           0       -0.762929    0.825191   -0.000113
      3          6           0        0.340552    0.091405   -0.000056
      4          1           0       -1.347977   -1.188078    0.910614
      5          1           0       -1.348281   -1.188112   -0.910438
      6          1           0       -1.272344    1.777403    0.000498
      7          8           0        1.571358   -0.111689    0.000026
 ---------------------------------------------------------------------

 SCF Done:  E(RHF) =  -190.177870099     A.U. after   16 cycles
 E2 =    -0.7365969971D+00 EUMP2 =    -0.19091446709596D+03
 CCSD(T)
 CCSD(T)= -0.19096039652D+03

 The electronic state is 1-A.
 Alpha  occ. eigenvalues --  -20.28937 -11.09089 -11.02922 -10.99642  -1.11247
 Alpha  occ. eigenvalues --   -0.90876  -0.61248  -0.51009  -0.41820  -0.39676
 Alpha  occ. eigenvalues --   -0.35059  -0.28415  -0.24402  -0.14093  -0.09195
 Alpha virt. eigenvalues --    0.15740   0.16985   0.18303   0.22725   0.26386
 Alpha virt. eigenvalues --    0.26893   0.27826   0.27871   0.28704   0.30475
 Alpha virt. eigenvalues --    0.31869   0.34200   0.35728   0.35784   0.36086

 Mulliken charges:
               1
     1  C   -0.420370
     2  C   -0.160250
     3  C    0.497095
     4  H   -0.003016
     5  H   -0.002973
     6  H    0.149237
     7  O   -1.059723
 Sum of Mulliken charges =  -1.00000

 Dipole moment (field-independent basis, Debye):
    X=             -2.6680    Y=              0.1020    Z=              0.0011  Tot=              2.6700
 Quadrupole moment (field-independent basis, Debye-Ang):
   XX=            -38.8292   YY=            -29.1398   ZZ=            -28.3701
   XY=              0.3199   XZ=             -0.0015   YZ=              0.0020

 \MP4SDQ=-190.9254412\CCSD=-190.9226669\CCSD(T)=-190.9603965\RMSD=2.999
 Normal termination of Gaussian 09 at Fri Mar  8 08:55:31 2019.
