 Gaussian 09, Revision E.01,
 Gaussian 09:  EM64L-G09RevE.01 30-Nov-2015

 --------------------------------------
 #p ccsd(t,maxcyc=200)/6-311++G(3df,2p)
 --------------------------------------

 -------------
 ccsd(t) iener
 -------------
 Symbolic Z-matrix:
 Charge = -1 Multiplicity = 3

                         Standard orientation:
 ---------------------------------------------------------------------
 Center     Atomic      Atomic             Coordinates (Angstroms)
 Number     Number       Type             X           Y           Z
 ---------------------------------------------------------------------
      1          6           0        0.000000    1.264510   -0.000000
      2          6           0        1.386923    1.257574   -0.000000
      3          6           0       -1.096307   -0.827151    0.000000
      4          1           0       -0.552521    1.543574    0.902973
      5          1           0       -0.552521    1.543574   -0.902973
      6          1           0        2.060596    0.397773   -0.000000
      7          8           0       -0.337407   -1.706815    0.000000
 ---------------------------------------------------------------------

 SCF Done:  E(UHF) =  -190.113002701     A.U. after   28 cycles
 E2 =    -0.6857752979D+00 EUMP2 =    -0.19079877799865D+03
 CCSD(T)
 CCSD(T)= -0.19086058320D+03

 The electronic state is 3-A".
 Alpha  occ. eigenvalues --  -20.42581 -11.14089 -11.02165 -11.00848  -1.27474
 Alpha  occ. eigenvalues --   -0.81090  -0.60075  -0.57555  -0.43947  -0.40529
 Alpha  occ. eigenvalues --   -0.38299  -0.37958  -0.33081  -0.23245  -0.13478
 Alpha  occ. eigenvalues --   -0.01744
 Alpha virt. eigenvalues --    0.17527   0.18010   0.18802   0.21138   0.24473
 Alpha virt. eigenvalues --    0.25185   0.26757   0.28116   0.28539   0.31512
 Alpha virt. eigenvalues --    0.32211   0.33836   0.34511   0.34737   0.36813

  Beta  occ. eigenvalues --  -20.42030 -11.14053 -11.01080 -10.98634  -1.26338
  Beta  occ. eigenvalues --   -0.75608  -0.57224  -0.50786  -0.39832  -0.39619
  Beta  occ. eigenvalues --   -0.35878  -0.34733  -0.31719  -0.10535
  Beta virt. eigenvalues --    0.17689   0.18137   0.18912   0.21185   0.24742
  Beta virt. eigenvalues --    0.24789   0.25300   0.25484   0.28916   0.31392
  Beta virt. eigenvalues --    0.31721   0.33444   0.34133   0.34888   0.36590

 Mulliken charges and spin densities:
               1          2
     1  C   -0.187531  -0.303940
     2  C   -0.641165   1.870204
     3  C    0.212880   0.217404
     4  H    0.033658   0.080242
     5  H    0.033658   0.080242
     6  H    0.091364  -0.006348
     7  O   -0.542863   0.062195
 Sum of Mulliken charges =  -1.00000   2.00000

 Dipole moment (field-independent basis, Debye):
    X=             -1.2659    Y=             -2.4810    Z=             -0.0000  Tot=              2.7853
 Quadrupole moment (field-independent basis, Debye-Ang):
   XX=            -38.0792   YY=            -43.7928   ZZ=            -27.9432
   XY=             -7.2335   XZ=              0.0000   YZ=              0.0000

 867\CCSD=-190.8245101\CCSD(T)=-190.8605832\S2=2.083692\S2-1=2.049098\S
 Normal termination of Gaussian 09 at Fri Mar  8 09:11:12 2019.
