 Gaussian 09, Revision E.01,
 Gaussian 09:  EM64L-G09RevE.01 30-Nov-2015

 --------------------------------------
 #p ccsd(t,maxcyc=200)/6-311++G(3df,2p)
 --------------------------------------

 -------------
 ccsd(t) iener
 -------------
 Symbolic Z-matrix:
 Charge = -1 Multiplicity = 1

                         Standard orientation:
 ---------------------------------------------------------------------
 Center     Atomic      Atomic             Coordinates (Angstroms)
 Number     Number       Type             X           Y           Z
 ---------------------------------------------------------------------
      1          6           0       -0.983915    0.664484    0.000035
      2          1           0        2.205883    0.041347    0.000058
      3          6           0       -0.864687   -0.691844   -0.000008
      4          6           0        1.135316    0.190475    0.000044
      5          6           0        0.337748    1.288848   -0.000061
      6          1           0       -1.936257    1.182811    0.000050
      7          1           0       -1.574636   -1.506576   -0.000017
      8          8           0        0.444780   -1.053670   -0.000019
 ---------------------------------------------------------------------

 SCF Done:  E(RHF) =  -228.048816175     A.U. after   19 cycles
 E2 =    -0.8849661360D+00 EUMP2 =    -0.22893378231059D+03
 CCSD(T)
 CCSD(T)= -0.22899006592D+03

 The electronic state is 1-A.
 Alpha  occ. eigenvalues --  -20.40947 -11.09083 -11.05269 -11.02696 -10.96497
 Alpha  occ. eigenvalues --   -1.23101  -0.85322  -0.77785  -0.57665  -0.55723
 Alpha  occ. eigenvalues --   -0.49806  -0.41812  -0.39173  -0.35158  -0.30785
 Alpha  occ. eigenvalues --   -0.17297  -0.11140  -0.10439
 Alpha virt. eigenvalues --    0.14573   0.16114   0.16583   0.23709   0.24135
 Alpha virt. eigenvalues --    0.24605   0.28083   0.28258   0.29259   0.29327
 Alpha virt. eigenvalues --    0.29944   0.31324   0.31341   0.32123   0.33863

 Mulliken charges:
               1
     1  C    0.009415
     2  H    0.107403
     3  C    0.148844
     4  C    0.023313
     5  C   -0.690383
     6  H    0.084012
     7  H    0.131451
     8  O   -0.814054
 Sum of Mulliken charges =  -1.00000

 Dipole moment (field-independent basis, Debye):
    X=             -2.0008    Y=             -4.5468    Z=              0.0001  Tot=              4.9676
 Quadrupole moment (field-independent basis, Debye-Ang):
   XX=            -33.8540   YY=            -46.8689   ZZ=            -36.6620
   XY=             -2.3883   XZ=              0.0001   YZ=              0.0003

 4\CCSD(T)=-228.9900659\RMSD=1.332e-09\PG=C01 [X(C4H3O1)]\\@
 Normal termination of Gaussian 09 at Fri Mar  8 10:27:30 2019.
