 Gaussian 09, Revision E.01,
 Gaussian 09:  EM64L-G09RevE.01 30-Nov-2015

 --------------------------------------
 #p ccsd(t,maxcyc=200)/6-311++G(3df,2p)
 --------------------------------------

 -------------
 ccsd(t) iener
 -------------
 Symbolic Z-matrix:
 Charge = -1 Multiplicity = 3

                         Standard orientation:
 ---------------------------------------------------------------------
 Center     Atomic      Atomic             Coordinates (Angstroms)
 Number     Number       Type             X           Y           Z
 ---------------------------------------------------------------------
      1          6           0       -1.119564   -0.519399    0.000011
      2          1           0        2.215264   -0.415873    0.000039
      3          6           0       -0.747216    0.787439    0.000043
      4          6           0        1.142500   -0.344969    0.000083
      5          6           0        0.116449   -1.214733   -0.000058
      6          1           0       -2.124901   -0.907650   -0.000019
      7          1           0       -1.309870    1.705836    0.000045
      8          8           0        0.608311    0.920957   -0.000067
 ---------------------------------------------------------------------

 SCF Done:  E(UHF) =  -228.006852616     A.U. after  127 cycles
 E2 =    -0.8133421115D+00 EUMP2 =    -0.22882019472773D+03
 CCSD(T)
 CCSD(T)= -0.22889979847D+03

 The electronic state is 3-A.
 Alpha  occ. eigenvalues --  -20.50260 -11.17023 -11.16494 -11.15248 -11.10515
 Alpha  occ. eigenvalues --   -1.34135  -0.98471  -0.89213  -0.68270  -0.66498
 Alpha  occ. eigenvalues --   -0.61235  -0.51817  -0.49230  -0.46556  -0.43118
 Alpha  occ. eigenvalues --   -0.34709  -0.30670  -0.21604   0.03859
 Alpha virt. eigenvalues --    0.12023   0.14043   0.18936   0.20018   0.20568
 Alpha virt. eigenvalues --    0.23524   0.24693   0.25182   0.25774   0.26514
 Alpha virt. eigenvalues --    0.26652   0.27234   0.30051   0.30431   0.30918

  Beta  occ. eigenvalues --  -20.50130 -11.17650 -11.15857 -11.11546 -11.11275
  Beta  occ. eigenvalues --   -1.33462  -0.95098  -0.88406  -0.67487  -0.64656
  Beta  occ. eigenvalues --   -0.56669  -0.52216  -0.48587  -0.45646  -0.41825
  Beta  occ. eigenvalues --   -0.28497  -0.22439
  Beta virt. eigenvalues --    0.12220   0.15437   0.17459   0.18986   0.21200
  Beta virt. eigenvalues --    0.21399   0.23281   0.24080   0.25317   0.26099
  Beta virt. eigenvalues --    0.26914   0.27529   0.28268   0.28399   0.31752

 Mulliken charges and spin densities:
               1          2
     1  C    0.407931  -1.205616
     2  H    0.142020   0.070010
     3  C    2.521062  -1.842299
     4  C   -0.146253  -0.440073
     5  C    1.301282   0.538124
     6  H   -2.401269   2.644998
     7  H   -2.033616   2.199653
     8  O   -0.791157   0.035204
 Sum of Mulliken charges =  -1.00000   2.00000

 Dipole moment (field-independent basis, Debye):
    X=             12.1565    Y=             -2.4565    Z=              0.0003  Tot=             12.4022
 Quadrupole moment (field-independent basis, Debye-Ang):
   XX=            -82.0795   YY=            -63.5673   ZZ=            -50.4748
   XY=              3.8227   XZ=             -0.0004   YZ=             -0.0003

 499\PMP3-0=-228.8468696\MP4SDQ=-228.8469352\CCSD=-228.8548122\CCSD(T)=
 Normal termination of Gaussian 09 at Fri Mar  8 16:49:16 2019.
