 Gaussian 09, Revision E.01,
 Gaussian 09:  EM64L-G09RevE.01 30-Nov-2015

 --------------------------------------
 #p ccsd(t,maxcyc=200)/6-311++G(3df,2p)
 --------------------------------------

 -------------
 ccsd(t) iener
 -------------
 Symbolic Z-matrix:
 Charge = -1 Multiplicity = 1

                         Standard orientation:
 ---------------------------------------------------------------------
 Center     Atomic      Atomic             Coordinates (Angstroms)
 Number     Number       Type             X           Y           Z
 ---------------------------------------------------------------------
      1          6           0       -0.980232    0.533492    0.000370
      2          6           0        0.545747   -1.173401    0.000254
      3          8           0       -0.835319   -0.820927   -0.000111
      4          6           0        1.191292    0.055025   -0.000554
      5          6           0        0.239703    1.130621   -0.000059
      6          1           0       -1.986206    0.926301   -0.000860
      7          1           0        2.266821    0.170120    0.001208
      8          1           0        0.422876    2.196570    0.000476
 ---------------------------------------------------------------------

 SCF Done:  E(RHF) =  -228.057747716     A.U. after   17 cycles
 E2 =    -0.8819715015D+00 EUMP2 =    -0.22893971921781D+03
 CCSD(T)
 CCSD(T)= -0.22899731368D+03

 The electronic state is 1-A.
 Alpha  occ. eigenvalues --  -20.39363 -11.08241 -11.03902 -11.02418 -10.99497
 Alpha  occ. eigenvalues --   -1.21181  -0.86329  -0.76618  -0.58052  -0.54800
 Alpha  occ. eigenvalues --   -0.49879  -0.39908  -0.37586  -0.34861  -0.31749
 Alpha  occ. eigenvalues --   -0.18984  -0.13100  -0.08940
 Alpha virt. eigenvalues --    0.14508   0.15424   0.16713   0.24226   0.25031
 Alpha virt. eigenvalues --    0.25219   0.27136   0.28347   0.29029   0.29875
 Alpha virt. eigenvalues --    0.29895   0.30356   0.30612   0.31256   0.33617

 Mulliken charges:
               1
     1  C   -0.000724
     2  C   -0.538113
     3  O   -0.778237
     4  C   -0.010173
     5  C    0.023087
     6  H    0.099253
     7  H    0.055582
     8  H    0.149325
 Sum of Mulliken charges =  -1.00000

 Dipole moment (field-independent basis, Debye):
    X=             -1.7162    Y=              4.8095    Z=              0.0008  Tot=              5.1065
 Quadrupole moment (field-independent basis, Debye-Ang):
   XX=            -35.9029   YY=            -43.7123   ZZ=            -36.8203
   XY=              2.6964   XZ=              0.0077   YZ=              0.0014

 Normal termination of Gaussian 09 at Fri Mar  8 10:38:27 2019.
