 Gaussian 09, Revision E.01,
 Gaussian 09:  EM64L-G09RevE.01 30-Nov-2015

 --------------------------------------
 #p ccsd(t,maxcyc=200)/6-311++G(3df,2p)
 --------------------------------------

 -------------
 ccsd(t) iener
 -------------
 Symbolic Z-matrix:
 Charge = -1 Multiplicity = 3

                         Standard orientation:
 ---------------------------------------------------------------------
 Center     Atomic      Atomic             Coordinates (Angstroms)
 Number     Number       Type             X           Y           Z
 ---------------------------------------------------------------------
      1          6           0        0.000000    1.107134   -0.000000
      2          6           0       -0.716406   -0.929187    0.000000
      3          8           0       -1.147388    0.326796    0.000000
      4          6           0        0.627488   -1.060125   -0.000000
      5          6           0        1.088919    0.306456   -0.000000
      6          1           0       -0.157265    2.170798   -0.000000
      7          1           0        1.217649   -1.960700   -0.000000
      8          1           0        2.118716    0.629866   -0.000000
 ---------------------------------------------------------------------

 SCF Done:  E(UHF) =  -228.008428593     A.U. after   37 cycles
 E2 =    -0.8128241442D+00 EUMP2 =    -0.22882125273690D+03
 CCSD(T)
 CCSD(T)= -0.22890089107D+03

 The electronic state is 3-A'.
 Alpha  occ. eigenvalues --  -20.50765 -11.20193 -11.15894 -11.11590 -11.11278
 Alpha  occ. eigenvalues --   -1.35472  -0.97719  -0.89025  -0.69643  -0.65470
 Alpha  occ. eigenvalues --   -0.60669  -0.53353  -0.48085  -0.45125  -0.45041
 Alpha  occ. eigenvalues --   -0.35197  -0.28729  -0.22834   0.03775
 Alpha virt. eigenvalues --    0.12847   0.14235   0.18449   0.20646   0.21109
 Alpha virt. eigenvalues --    0.22950   0.24958   0.24978   0.25109   0.26959
 Alpha virt. eigenvalues --    0.27005   0.28337   0.29637   0.30447   0.30861

  Beta  occ. eigenvalues --  -20.50599 -11.16817 -11.16225 -11.12120 -11.10494
  Beta  occ. eigenvalues --   -1.34231  -0.96733  -0.86330  -0.68419  -0.63716
  Beta  occ. eigenvalues --   -0.56799  -0.52214  -0.46988  -0.44287  -0.43732
  Beta  occ. eigenvalues --   -0.29525  -0.21632
  Beta virt. eigenvalues --    0.13841   0.15557   0.16765   0.19009   0.21447
  Beta virt. eigenvalues --    0.21651   0.22841   0.25288   0.25833   0.25927
  Beta virt. eigenvalues --    0.26970   0.27396   0.27866   0.29622   0.31063

 Mulliken charges and spin densities:
               1          2
     1  C    0.944532  -1.471085
     2  C    0.747112   1.183433
     3  O   -0.786391  -0.061853
     4  C    0.139218  -1.082674
     5  C    2.066384  -1.307046
     6  H   -0.993141   1.220403
     7  H   -0.547327   0.768853
     8  H   -2.570387   2.749969
 Sum of Mulliken charges =  -1.00000   2.00000

 Dipole moment (field-independent basis, Debye):
    X=             -9.5387    Y=             -3.9799    Z=              0.0000  Tot=             10.3357
 Quadrupole moment (field-independent basis, Debye-Ang):
   XX=            -79.6082   YY=            -64.1417   ZZ=            -50.4959
   XY=             -6.6917   XZ=              0.0000   YZ=              0.0000

 79701\MP4SDQ=-228.8479392\CCSD=-228.8559295\CCSD(T)=-228.9008911\S2=2.
 Normal termination of Gaussian 09 at Fri Mar  8 14:42:29 2019.
