 Gaussian 09, Revision E.01,
 Gaussian 09:  EM64L-G09RevE.01 30-Nov-2015

 --------------------------------------
 #p ccsd(t,maxcyc=200)/6-311++G(3df,2p)
 --------------------------------------

 -------------
 ccsd(t) iener
 -------------
 Symbolic Z-matrix:
 Charge = -1 Multiplicity = 1

                         Standard orientation:
 ---------------------------------------------------------------------
 Center     Atomic      Atomic             Coordinates (Angstroms)
 Number     Number       Type             X           Y           Z
 ---------------------------------------------------------------------
      1          6           0       -1.387863    0.778721   -0.020553
      2          6           0        1.057097   -0.432873    0.001586
      3          8           0        2.036351    0.377468   -0.081423
      4          6           0       -0.262465   -0.178136    0.285069
      5          6           0       -1.635248   -0.503023   -0.099426
      6          1           0       -1.796124    1.774771   -0.033343
      7          1           0        1.274221   -1.530468   -0.053755
      8          1           0       -2.398027   -1.252179   -0.261573
 ---------------------------------------------------------------------

 SCF Done:  E(RHF) =  -227.980433438     A.U. after   22 cycles
 E2 =    -0.8845475304D+00 EUMP2 =    -0.22886498096827D+03
 CCSD(T)
 CCSD(T)= -0.22892257113D+03

 The electronic state is 1-A.
 Alpha  occ. eigenvalues --  -20.26566 -11.08746 -11.07887 -11.07375 -11.03000
 Alpha  occ. eigenvalues --   -1.08385  -0.98303  -0.71683  -0.60785  -0.56090
 Alpha  occ. eigenvalues --   -0.46034  -0.38026  -0.34584  -0.31866  -0.25106
 Alpha  occ. eigenvalues --   -0.23552  -0.17222  -0.03910
 Alpha virt. eigenvalues --    0.13841   0.14748   0.17994   0.22399   0.23145
 Alpha virt. eigenvalues --    0.24262   0.24478   0.26600   0.27285   0.28113
 Alpha virt. eigenvalues --    0.29205   0.29933   0.31601   0.33409   0.33717

 Mulliken charges:
               1
     1  C   -0.583690
     2  C    0.118311
     3  O   -1.054678
     4  C    0.191683
     5  C    0.031398
     6  H    0.160711
     7  H   -0.035418
     8  H    0.171683
 Sum of Mulliken charges =  -1.00000

 Dipole moment (field-independent basis, Debye):
    X=             -5.5890    Y=             -1.0948    Z=             -0.8110  Tot=              5.7527
 Quadrupole moment (field-independent basis, Debye-Ang):
   XX=            -49.3078   YY=            -32.2704   ZZ=            -36.6922
   XY=             -2.8316   XZ=              0.5258   YZ=              1.4287

 9\CCSD(T)=-228.9225711\RMSD=6.658e-09\PG=C01 [X(C4H3O1)]\\@
 Normal termination of Gaussian 09 at Fri Mar  8 10:55:26 2019.
