 Gaussian 09, Revision E.01,
 Gaussian 09:  EM64L-G09RevE.01 30-Nov-2015

 --------------------------------------
 #p ccsd(t,maxcyc=200)/6-311++G(3df,2p)
 --------------------------------------

 -------------
 ccsd(t) iener
 -------------
 Symbolic Z-matrix:
 Charge = -1 Multiplicity = 3

                         Standard orientation:
 ---------------------------------------------------------------------
 Center     Atomic      Atomic             Coordinates (Angstroms)
 Number     Number       Type             X           Y           Z
 ---------------------------------------------------------------------
      1          6           0        1.661168   -0.578321   -0.057938
      2          6           0       -1.036700   -0.450529   -0.008657
      3          8           0       -2.014534    0.346132    0.047893
      4          6           0        0.320293   -0.114337   -0.104189
      5          6           0        1.334968    0.853789   -0.098586
      6          1           0        2.152096   -1.204890    0.688207
      7          1           0       -1.235051   -1.542954    0.008858
      8          1           0        1.520858    1.715182    0.536022
 ---------------------------------------------------------------------

 SCF Done:  E(UHF) =  -228.002611072     A.U. after   25 cycles
 E2 =    -0.8418143381D+00 EUMP2 =    -0.22884442541056D+03
 CCSD(T)
 CCSD(T)= -0.22890923251D+03

 The electronic state is 3-A.
 Alpha  occ. eigenvalues --  -20.33374 -11.09538 -11.05347 -11.05233 -11.04997
 Alpha  occ. eigenvalues --   -1.15772  -0.97670  -0.73986  -0.61847  -0.53328
 Alpha  occ. eigenvalues --   -0.48227  -0.42525  -0.39294  -0.34475  -0.28044
 Alpha  occ. eigenvalues --   -0.27571  -0.22212  -0.11127  -0.09126
 Alpha virt. eigenvalues --    0.15534   0.16530   0.17460   0.22413   0.23253
 Alpha virt. eigenvalues --    0.24552   0.25943   0.27330   0.28394   0.28801
 Alpha virt. eigenvalues --    0.30288   0.31441   0.32370   0.33272   0.34042

  Beta  occ. eigenvalues --  -20.31452 -11.09325 -11.05315 -11.03454 -11.03193
  Beta  occ. eigenvalues --   -1.11345  -0.95203  -0.69670  -0.56150  -0.51077
  Beta  occ. eigenvalues --   -0.46967  -0.40634  -0.28368  -0.26716  -0.26110
  Beta  occ. eigenvalues --   -0.20382  -0.17103
  Beta virt. eigenvalues --    0.15641   0.16602   0.17480   0.22389   0.23271
  Beta virt. eigenvalues --    0.23881   0.24506   0.25956   0.28316   0.28843
  Beta virt. eigenvalues --    0.29793   0.31386   0.31624   0.32216   0.33548

 Mulliken charges and spin densities:
               1          2
     1  C   -0.428622   0.917883
     2  C    0.272393   0.099123
     3  O   -0.925988   0.374344
     4  C    0.212636  -0.254034
     5  C   -0.313023   0.884998
     6  H    0.070346   0.010968
     7  H    0.027265  -0.032532
     8  H    0.084993  -0.000750
 Sum of Mulliken charges =  -1.00000   2.00000

 Dipole moment (field-independent basis, Debye):
    X=              1.6372    Y=             -1.1895    Z=              1.3866  Tot=              2.4531
 Quadrupole moment (field-independent basis, Debye-Ang):
   XX=            -51.5071   YY=            -34.8240   ZZ=            -34.6679
   XY=              2.8630   XZ=              3.2778   YZ=              0.2513

 Normal termination of Gaussian 09 at Fri Mar  8 14:27:49 2019.
