 Gaussian 09, Revision E.01,
 Gaussian 09:  EM64L-G09RevE.01 30-Nov-2015

 --------------------------------------
 #p ccsd(t,maxcyc=200)/6-311++G(3df,2p)
 --------------------------------------

 -------------
 ccsd(t) iener
 -------------
 Symbolic Z-matrix:
 Charge = -1 Multiplicity = 3

                         Standard orientation:
 ---------------------------------------------------------------------
 Center     Atomic      Atomic             Coordinates (Angstroms)
 Number     Number       Type             X           Y           Z
 ---------------------------------------------------------------------
      1          6           0        0.217529    1.494164    0.679453
      2          6           0        0.217529   -0.981295    0.000000
      3          8           0       -0.207892   -2.116279    0.000000
      4          6           0       -0.459401    0.295844   -0.000000
      5          6           0        0.217529    1.494164   -0.679453
      6          1           0        1.027224    1.449066    1.409238
      7          1           0       -1.550433    0.214839   -0.000000
      8          1           0        1.027224    1.449066   -1.409238
 ---------------------------------------------------------------------

 SCF Done:  E(UHF) =  -227.975098600     A.U. after   23 cycles
 E2 =    -0.8557664696D+00 EUMP2 =    -0.22883086506927D+03
 CCSD(T)
 CCSD(T)= -0.22889370417D+03

 The electronic state is 3-A".
 Alpha  occ. eigenvalues --  -20.39713 -11.14409 -11.06294 -11.03083 -11.02942
 Alpha  occ. eigenvalues --   -1.23379  -0.95605  -0.73356  -0.57357  -0.56303
 Alpha  occ. eigenvalues --   -0.48643  -0.46199  -0.41311  -0.39457  -0.28440
 Alpha  occ. eigenvalues --   -0.23142  -0.22870  -0.16936  -0.05679
 Alpha virt. eigenvalues --    0.15945   0.16952   0.17195   0.20909   0.24533
 Alpha virt. eigenvalues --    0.24832   0.25583   0.26957   0.27048   0.29685
 Alpha virt. eigenvalues --    0.30474   0.31005   0.31615   0.32464   0.32946

  Beta  occ. eigenvalues --  -20.38118 -11.12480 -11.05974 -11.01850 -11.01697
  Beta  occ. eigenvalues --   -1.19389  -0.93897  -0.68584  -0.53228  -0.52138
  Beta  occ. eigenvalues --   -0.45801  -0.41629  -0.36046  -0.32780  -0.25831
  Beta  occ. eigenvalues --   -0.21365  -0.10934
  Beta virt. eigenvalues --    0.15892   0.17046   0.17275   0.20754   0.23719
  Beta virt. eigenvalues --    0.24206   0.25520   0.25709   0.27460   0.27866
  Beta virt. eigenvalues --    0.29995   0.30996   0.31504   0.31511   0.32854

 Mulliken charges and spin densities:
               1          2
     1  C   -0.342088   0.492078
     2  C   -0.009958   1.054928
     3  O   -0.797944   0.227058
     4  C    0.276012  -0.411477
     5  C   -0.342088   0.492078
     6  H    0.065722   0.048573
     7  H    0.084623   0.048190
     8  H    0.065722   0.048573
 Sum of Mulliken charges =  -1.00000   2.00000

 Dipole moment (field-independent basis, Debye):
    X=              0.8130    Y=             -1.2664    Z=              0.0000  Tot=              1.5049
 Quadrupole moment (field-independent basis, Debye-Ang):
   XX=            -34.0989   YY=            -55.4662   ZZ=            -36.2242
   XY=              1.3449   XZ=             -0.0000   YZ=             -0.0000

 Normal termination of Gaussian 09 at Fri Mar  8 13:43:47 2019.
