 Gaussian 09, Revision E.01,
 Gaussian 09:  EM64L-G09RevE.01 30-Nov-2015

 --------------------------------------
 #p ccsd(t,maxcyc=200)/6-311++G(3df,2p)
 --------------------------------------

 -------------
 ccsd(t) iener
 -------------
 Symbolic Z-matrix:
 Charge = -1 Multiplicity = 1

                         Standard orientation:
 ---------------------------------------------------------------------
 Center     Atomic      Atomic             Coordinates (Angstroms)
 Number     Number       Type             X           Y           Z
 ---------------------------------------------------------------------
      1          6           0        1.566521   -0.181477   -0.000154
      2          1           0       -1.486407   -0.802138    0.001169
      3          1           0       -0.156864    0.059302   -0.000480
      4          1           0        2.004275    0.855202    0.001051
      5          8           0       -1.220016    0.122062   -0.000102
 ---------------------------------------------------------------------

 SCF Done:  E(RHF) =  -114.308062848     A.U. after   17 cycles
 E2 =    -0.4201912923D+00 EUMP2 =    -0.11472825414031D+03
 CCSD(T)
 CCSD(T)= -0.11477006360D+03

 The electronic state is 1-A.
 Alpha  occ. eigenvalues --  -20.32583 -11.01304  -1.09675  -0.56526  -0.45357
 Alpha  occ. eigenvalues --   -0.35645  -0.27139  -0.18248  -0.05503
 Alpha virt. eigenvalues --    0.18130   0.18988   0.23299   0.24140   0.29741
 Alpha virt. eigenvalues --    0.31316   0.34888   0.37535   0.42743   0.43746
 Alpha virt. eigenvalues --    0.44342   0.46905   0.47679   0.55397   0.66682

 Mulliken charges:
               1
     1  C   -1.025585
     2  H    0.177324
     3  H    0.591113
     4  H    0.039427
     5  O   -0.782278
 Sum of Mulliken charges =  -1.00000

 Dipole moment (field-independent basis, Debye):
    X=             -3.9229    Y=              0.3842    Z=              0.0027  Tot=              3.9416
 Quadrupole moment (field-independent basis, Debye-Ang):
   XX=            -36.2611   YY=            -19.0362   ZZ=            -16.7975
   XY=              7.5286   XZ=             -0.0043   YZ=             -0.0048

 81412\MP4SDQ=-114.7518458\CCSD=-114.7527358\CCSD(T)=-114.7700636\RMSD=
 Normal termination of Gaussian 09 at Fri Mar  8 16:53:08 2019.
