 Gaussian 09, Revision E.01,
 Gaussian 09:  EM64L-G09RevE.01 30-Nov-2015

 --------------------------------------
 #p ccsd(t,maxcyc=200)/6-311++G(3df,2p)
 --------------------------------------

 -------------
 ccsd(t) iener
 -------------
 Symbolic Z-matrix:
 Charge = -1 Multiplicity = 3

                         Standard orientation:
 ---------------------------------------------------------------------
 Center     Atomic      Atomic             Coordinates (Angstroms)
 Number     Number       Type             X           Y           Z
 ---------------------------------------------------------------------
      1          6           0        0.680085    0.026482   -0.060013
      2          1           0       -1.096310    0.748731    0.013188
      3          1           0        1.243639   -0.873586    0.137378
      4          1           0        1.098493    1.006948    0.129223
      5          8           0       -0.665791   -0.130123    0.010036
 ---------------------------------------------------------------------

 SCF Done:  E(UHF) =  -114.421614637     A.U. after   27 cycles
 E2 =    -0.3986376710D+00 EUMP2 =    -0.11482025230809D+03
 CCSD(T)
 CCSD(T)= -0.11485486419D+03

 The electronic state is 3-A.
 Alpha  occ. eigenvalues --  -20.43239 -11.12513  -1.24539  -0.77103  -0.56649
 Alpha  occ. eigenvalues --   -0.48201  -0.45120  -0.37301  -0.18225   0.03753
 Alpha virt. eigenvalues --    0.15325   0.17475   0.23505   0.23932   0.28082
 Alpha virt. eigenvalues --    0.29269   0.37617   0.40294   0.41936   0.42369
 Alpha virt. eigenvalues --    0.44193   0.47761   0.50884   0.59219   0.60096

  Beta  occ. eigenvalues --  -20.42408 -11.10112  -1.22146  -0.70177  -0.54789
  Beta  occ. eigenvalues --   -0.46728  -0.36448  -0.36105
  Beta virt. eigenvalues --    0.16019   0.19864   0.21233   0.22459   0.25110
  Beta virt. eigenvalues --    0.30105   0.31037   0.35554   0.39517   0.41940
  Beta virt. eigenvalues --    0.43408   0.44059   0.45355   0.48708   0.52262

 Mulliken charges and spin densities:
               1          2
     1  C    2.107881  -0.915272
     2  H   -0.769219   1.033213
     3  H   -0.045315   0.070381
     4  H   -1.536136   1.621100
     5  O   -0.757211   0.190578
 Sum of Mulliken charges =  -1.00000   2.00000

 Dipole moment (field-independent basis, Debye):
    X=              1.1795    Y=             -6.7498    Z=             -0.5214  Tot=              6.8718
 Quadrupole moment (field-independent basis, Debye-Ang):
   XX=            -38.2430   YY=            -42.0858   ZZ=            -28.7677
   XY=             -1.3603   XZ=             -0.1839   YZ=             -1.9101

 Q=-114.8387306\CCSD=-114.8393883\CCSD(T)=-114.8548642\S2=2.012425\S2-1
 Normal termination of Gaussian 09 at Fri Mar  8 16:54:23 2019.
