 Gaussian 09, Revision E.01,
 Gaussian 09:  EM64L-G09RevE.01 30-Nov-2015

 --------------------------------------
 #p ccsd(t,maxcyc=200)/6-311++G(3df,2p)
 --------------------------------------

 -------------
 ccsd(t) iener
 -------------
 Symbolic Z-matrix:
 Charge = -1 Multiplicity = 1

                         Standard orientation:
 ---------------------------------------------------------------------
 Center     Atomic      Atomic             Coordinates (Angstroms)
 Number     Number       Type             X           Y           Z
 ---------------------------------------------------------------------
      1          6           0       -0.016914    0.777803    0.000000
      2          1           0       -0.947516   -0.932983   -0.000000
      3          1           0        0.592159    1.067031    0.877955
      4          1           0        0.592159    1.067031   -0.877955
      5          8           0       -0.016914   -0.733487   -0.000000
 ---------------------------------------------------------------------

 SCF Done:  E(RHF) =  -114.399863882     A.U. after   14 cycles
 E2 =    -0.4421189223D+00 EUMP2 =    -0.11484198280438D+03
 CCSD(T)
 CCSD(T)= -0.11487369226D+03

 The electronic state is 1-A'.
 Alpha  occ. eigenvalues --  -20.31346 -10.97826  -1.08689  -0.60926  -0.39304
 Alpha  occ. eigenvalues --   -0.33131  -0.30708  -0.19517  -0.03983
 Alpha virt. eigenvalues --    0.18124   0.19827   0.20941   0.27562   0.30984
 Alpha virt. eigenvalues --    0.31636   0.36176   0.44040   0.45276   0.47125
 Alpha virt. eigenvalues --    0.47297   0.49364   0.53862   0.56617   0.65127

 Mulliken charges:
               1
     1  C   -0.514533
     2  H    0.213379
     3  H   -0.001057
     4  H   -0.001057
     5  O   -0.696732
 Sum of Mulliken charges =  -1.00000

 Dipole moment (field-independent basis, Debye):
    X=              0.5630    Y=             -2.6848    Z=              0.0000  Tot=              2.7432
 Quadrupole moment (field-independent basis, Debye-Ang):
   XX=            -19.1968   YY=            -23.1106   ZZ=            -17.7965
   XY=              4.6591   XZ=              0.0000   YZ=              0.0000

 CSD=-114.8553941\CCSD(T)=-114.8736923\RMSD=8.882e-09\PG=CS [SG(C1H1O1)
 Normal termination of Gaussian 09 at Fri Mar  8 16:50:32 2019.
