 Gaussian 09, Revision E.01,
 Gaussian 09:  EM64L-G09RevE.01 30-Nov-2015

 --------------------------------------
 #p ccsd(t,maxcyc=200)/6-311++G(3df,2p)
 --------------------------------------

 -------------
 ccsd(t) iener
 -------------
 Symbolic Z-matrix:
 Charge = -1 Multiplicity = 3

                         Standard orientation:
 ---------------------------------------------------------------------
 Center     Atomic      Atomic             Coordinates (Angstroms)
 Number     Number       Type             X           Y           Z
 ---------------------------------------------------------------------
      1          6           0       -0.680308    0.026558   -0.059963
      2          1           0        1.097113    0.748494    0.012037
      3          1           0       -1.098477    1.007211    0.129590
      4          1           0       -1.243903   -0.873831    0.136600
      5          8           0        0.665889   -0.130153    0.010194
 ---------------------------------------------------------------------

 SCF Done:  E(UHF) =  -114.421595518     A.U. after   27 cycles
 E2 =    -0.3986495573D+00 EUMP2 =    -0.11482024507566D+03
 CCSD(T)
 CCSD(T)= -0.11485486192D+03

 The electronic state is 3-A.
 Alpha  occ. eigenvalues --  -20.43236 -11.12521  -1.24518  -0.77101  -0.56634
 Alpha  occ. eigenvalues --   -0.48190  -0.45113  -0.37298  -0.18230   0.03754
 Alpha virt. eigenvalues --    0.15324   0.17474   0.23505   0.23932   0.28082
 Alpha virt. eigenvalues --    0.29269   0.37616   0.40291   0.41940   0.42368
 Alpha virt. eigenvalues --    0.44197   0.47751   0.50878   0.59222   0.60088

  Beta  occ. eigenvalues --  -20.42406 -11.10119  -1.22126  -0.70173  -0.54775
  Beta  occ. eigenvalues --   -0.46721  -0.36456  -0.36088
  Beta virt. eigenvalues --    0.16018   0.19863   0.21233   0.22458   0.25110
  Beta virt. eigenvalues --    0.30104   0.31038   0.35552   0.39515   0.41938
  Beta virt. eigenvalues --    0.43411   0.44059   0.45357   0.48701   0.52255

 Mulliken charges and spin densities:
               1          2
     1  C    2.107035  -0.914085
     2  H   -0.768908   1.032968
     3  H   -1.535795   1.620724
     4  H   -0.045093   0.070136
     5  O   -0.757239   0.190257
 Sum of Mulliken charges =  -1.00000   2.00000

 Dipole moment (field-independent basis, Debye):
    X=             -1.1824    Y=             -6.7485    Z=             -0.5187  Tot=              6.8709
 Quadrupole moment (field-independent basis, Debye-Ang):
   XX=            -38.2466   YY=            -42.0827   ZZ=            -28.7679
   XY=              1.3605   XZ=              0.1899   YZ=             -1.9066

 MP4SDQ=-114.8387244\CCSD=-114.8393825\CCSD(T)=-114.8548619\S2=2.012435
 Normal termination of Gaussian 09 at Fri Mar  8 16:54:32 2019.
