 Gaussian 09, Revision E.01,
 Gaussian 09:  EM64L-G09RevE.01 30-Nov-2015

 --------------------------------------
 #p ccsd(t,maxcyc=200)/6-311++G(3df,2p)
 --------------------------------------

 -------------
 ccsd(t) iener
 -------------
 Symbolic Z-matrix:
 Charge = -1 Multiplicity = 2

                         Standard orientation:
 ---------------------------------------------------------------------
 Center     Atomic      Atomic             Coordinates (Angstroms)
 Number     Number       Type             X           Y           Z
 ---------------------------------------------------------------------
      1          6           0        0.000000    0.000000    0.000000
      2          1           0        0.629940    0.629940    0.629940
      3          1           0       -0.629940   -0.629940    0.629940
      4          1           0       -0.629940    0.629940   -0.629940
      5          1           0        0.629940   -0.629940   -0.629940
 ---------------------------------------------------------------------

 SCF Done:  E(UHF) =  -40.1705831026     A.U. after   14 cycles
 E2 =    -0.1996045026D+00 EUMP2 =    -0.40370187605245D+02
 CCSD(T)
 CCSD(T)= -0.40398670247D+02

 The electronic state is 2-A.
 Alpha  occ. eigenvalues --  -11.05250  -0.79136  -0.39128  -0.39128  -0.39128
 Alpha  occ. eigenvalues --    0.04133
 Alpha virt. eigenvalues --    0.17241   0.17241   0.17241   0.27251   0.27251
 Alpha virt. eigenvalues --    0.27251   0.30906   0.43587   0.43587   0.43587
 Alpha virt. eigenvalues --    0.49960   0.55656   0.55656   0.60984   0.60984

  Beta  occ. eigenvalues --  -11.05088  -0.78818  -0.39092  -0.39092  -0.39092
  Beta virt. eigenvalues --    0.16923   0.20246   0.20246   0.20246   0.28724
  Beta virt. eigenvalues --    0.28724   0.28724   0.32305   0.44406   0.44406
  Beta virt. eigenvalues --    0.44406   0.50759   0.56039   0.56039   0.61279

 Mulliken charges and spin densities:
               1          2
     1  C    3.035124  -3.462169
     2  H   -1.008781   1.115542
     3  H   -1.008781   1.115542
     4  H   -1.008781   1.115542
     5  H   -1.008781   1.115542
 Sum of Mulliken charges =  -1.00000   1.00000

 Dipole moment (field-independent basis, Debye):
    X=             -0.0000    Y=              0.0000    Z=              0.0000  Tot=              0.0000
 Quadrupole moment (field-independent basis, Debye-Ang):
   XX=            -32.3434   YY=            -32.3434   ZZ=            -32.3434
   XY=             -0.0000   XZ=              0.0000   YZ=             -0.0000

 0211\PMP3-0=-40.3894139\MP4SDQ=-40.3917162\CCSD=-40.3917571\CCSD(T)=-4
 Normal termination of Gaussian 09 at Tue Mar 12 00:40:26 2019.
