 Gaussian 09, Revision E.01,
 Gaussian 09:  EM64L-G09RevE.01 30-Nov-2015

 --------------------------------------
 #p ccsd(t,maxcyc=200)/6-311++G(3df,2p)
 --------------------------------------

 -------------
 ccsd(t) iener
 -------------
 Symbolic Z-matrix:
 Charge = -1 Multiplicity = 2

                         Standard orientation:
 ---------------------------------------------------------------------
 Center     Atomic      Atomic             Coordinates (Angstroms)
 Number     Number       Type             X           Y           Z
 ---------------------------------------------------------------------
      1          6           0       -0.067311    0.919329    0.000000
      2          6           0       -0.067311   -0.602943   -0.000000
      3          1           0        0.443018   -1.054296    0.881592
      4          1           0        0.443018   -1.054296   -0.881592
      5          1           0       -1.081705   -1.022823   -0.000000
      6          1           0        1.003396    1.233098    0.000000
 ---------------------------------------------------------------------

 SCF Done:  E(UHF) =  -77.9426816973     A.U. after   22 cycles
 E2 =    -0.3393571190D+00 EUMP2 =    -0.78282038816304D+02
 CCSD(T)
 CCSD(T)= -0.78326251954D+02

 The electronic state is 2-A".
 Alpha  occ. eigenvalues --  -11.00926 -10.95329  -0.77107  -0.55298  -0.35207
 Alpha  occ. eigenvalues --   -0.34886  -0.25436  -0.08873  -0.06307
 Alpha virt. eigenvalues --    0.16662   0.18774   0.19298   0.20707   0.27599
 Alpha virt. eigenvalues --    0.30084   0.30308   0.30698   0.32863   0.34638
 Alpha virt. eigenvalues --    0.35540   0.37684   0.45676   0.46465   0.49263

  Beta  occ. eigenvalues --  -11.01202 -10.93138  -0.75120  -0.49094  -0.34527
  Beta  occ. eigenvalues --   -0.32812  -0.24415  -0.03614
  Beta virt. eigenvalues --    0.16708   0.18801   0.19327   0.20706   0.27703
  Beta virt. eigenvalues --    0.28421   0.30093   0.30535   0.31559   0.34664
  Beta virt. eigenvalues --    0.35591   0.38684   0.44149   0.46453   0.47847

 Mulliken charges and spin densities:
               1          2
     1  C   -0.993105   1.255083
     2  C   -0.037939  -0.239629
     3  H   -0.016509   0.039003
     4  H   -0.016509   0.039003
     5  H    0.053388  -0.010681
     6  H    0.010676  -0.082779
 Sum of Mulliken charges =  -1.00000   1.00000

 Dipole moment (field-independent basis, Debye):
    X=              1.7178    Y=             -4.7149    Z=              0.0000  Tot=              5.0181
 Quadrupole moment (field-independent basis, Debye-Ang):
   XX=            -20.6108   YY=            -28.3431   ZZ=            -20.1931
   XY=              3.3210   XZ=             -0.0000   YZ=             -0.0000

 51\MP4SDQ=-78.3107831\CCSD=-78.3111752\CCSD(T)=-78.326252\S2=0.776249\
 Normal termination of Gaussian 09 at Tue Mar 12 00:32:25 2019.
