 Gaussian 09, Revision E.01,
 Gaussian 09:  EM64L-G09RevE.01 30-Nov-2015

 --------------------------------------
 #p ccsd(t,maxcyc=200)/6-311++G(3df,2p)
 --------------------------------------

 -------------
 ccsd(t) iener
 -------------
 Symbolic Z-matrix:
 Charge = -1 Multiplicity = 2

                         Standard orientation:
 ---------------------------------------------------------------------
 Center     Atomic      Atomic             Coordinates (Angstroms)
 Number     Number       Type             X           Y           Z
 ---------------------------------------------------------------------
      1          6           0        0.902377   -0.188517   -0.000068
      2          6           0       -0.606815    0.013200   -0.000013
      3          1           0       -1.156171   -0.936988   -0.001579
      4          1           0       -0.986000    0.580245   -0.880780
      5          1           0       -0.985788    0.577083    0.882696
      6          1           0        1.354588    0.831561    0.000148
 ---------------------------------------------------------------------

 SCF Done:  E(UHF) =  -77.9426943631     A.U. after   22 cycles
 E2 =    -0.3393524581D+00 EUMP2 =    -0.78282046821169D+02
 CCSD(T)
 CCSD(T)= -0.78326258773D+02

 The electronic state is 2-A.
 Alpha  occ. eigenvalues --  -11.00916 -10.95330  -0.77106  -0.55290  -0.35219
 Alpha  occ. eigenvalues --   -0.34898  -0.25414  -0.08876  -0.06306
 Alpha virt. eigenvalues --    0.16663   0.18774   0.19298   0.20709   0.27598
 Alpha virt. eigenvalues --    0.30079   0.30309   0.30695   0.32862   0.34638
 Alpha virt. eigenvalues --    0.35541   0.37685   0.45677   0.46471   0.49267

  Beta  occ. eigenvalues --  -11.01192 -10.93139  -0.75120  -0.49084  -0.34540
  Beta  occ. eigenvalues --   -0.32826  -0.24393  -0.03618
  Beta virt. eigenvalues --    0.16709   0.18801   0.19326   0.20708   0.27701
  Beta virt. eigenvalues --    0.28422   0.30088   0.30536   0.31555   0.34664
  Beta virt. eigenvalues --    0.35591   0.38686   0.44157   0.46459   0.47844

 Mulliken charges and spin densities:
               1          2
     1  C   -0.993133   1.255048
     2  C   -0.038377  -0.239277
     3  H    0.053609  -0.010718
     4  H   -0.016366   0.038802
     5  H   -0.016254   0.038955
     6  H    0.010521  -0.082811
 Sum of Mulliken charges =  -1.00000   1.00000

 Dipole moment (field-independent basis, Debye):
    X=             -4.4472    Y=              2.3263    Z=              0.0008  Tot=              5.0189
 Quadrupole moment (field-independent basis, Debye-Ang):
   XX=            -27.3398   YY=            -21.6150   ZZ=            -20.1910
   XY=              4.2173   XZ=              0.0006   YZ=              0.0007

 PMP3-0=-78.3097437\MP4SDQ=-78.3107911\CCSD=-78.311183\CCSD(T)=-78.3262
 Normal termination of Gaussian 09 at Mon Mar 11 23:38:45 2019.
