 Gaussian 09, Revision E.01,
 Gaussian 09:  EM64L-G09RevE.01 30-Nov-2015

 ----------------------------------------------
 #p ccsd(t,maxcyc=200)/6-311++G(3df,2p) scf(QC)
 ----------------------------------------------

 -------------
 ccsd(t) iener
 -------------
 Symbolic Z-matrix:
 Charge = -1 Multiplicity = 2

                         Standard orientation:
 ---------------------------------------------------------------------
 Center     Atomic      Atomic             Coordinates (Angstroms)
 Number     Number       Type             X           Y           Z
 ---------------------------------------------------------------------
      1          6           0        0.131031   -0.636928   -0.000025
      2          6           0       -1.140611    0.144331   -0.000023
      3          1           0       -1.732727   -0.156278    0.874538
      4          1           0       -1.033612    1.236950   -0.000418
      5          1           0       -1.733422   -0.157051   -0.873839
      6          1           0        1.009900    1.095099   -0.000126
      7          8           0        1.193418    0.117107    0.000017
 ---------------------------------------------------------------------

 SCF Done:  E(UHF) =  -152.826477807     a.u. after   18 cycles
 E2 =    -0.5469581575D+00 EUMP2 =    -0.15337343596449D+03
 CCSD(T)
 CCSD(T)= -0.15345332811D+03

 The electronic state is 2-A.
 Alpha  occ. eigenvalues --  -20.42049 -11.11667 -11.06907  -1.25745  -0.85355
 Alpha  occ. eigenvalues --   -0.68800  -0.52107  -0.48145  -0.46729  -0.39326
 Alpha  occ. eigenvalues --   -0.36494  -0.27571  -0.13640
 Alpha virt. eigenvalues --    0.16460   0.18904   0.19879   0.20491   0.23513
 Alpha virt. eigenvalues --    0.25918   0.27077   0.27407   0.29791   0.30581
 Alpha virt. eigenvalues --    0.32925   0.33225   0.39748   0.42369   0.43807

  Beta  occ. eigenvalues --  -20.41250 -11.07104 -11.06860  -1.22785  -0.82137
  Beta  occ. eigenvalues --   -0.62290  -0.48592  -0.42700  -0.41032  -0.35080
  Beta  occ. eigenvalues --   -0.33846   0.02641
  Beta virt. eigenvalues --    0.15885   0.17258   0.17556   0.20370   0.24690
  Beta virt. eigenvalues --    0.25269   0.26085   0.26547   0.28171   0.29946
  Beta virt. eigenvalues --    0.32317   0.34817   0.39268   0.40079   0.42374

 Mulliken charges and spin densities:
               1          2
     1  C    0.133186   1.893720
     2  C    2.081284   2.091965
     3  H   -0.532227  -0.583589
     4  H   -1.151277  -1.255480
     5  H   -0.531741  -0.583136
     6  H   -0.248077  -0.507112
     7  O   -0.751147  -0.056369
 Sum of Mulliken charges =  -1.00000   1.00000

 Dipole moment (field-independent basis, Debye):
    X=              0.9724    Y=             -2.8439    Z=              0.0002  Tot=              3.0056
 Quadrupole moment (field-independent basis, Debye-Ang):
   XX=            -40.8984   YY=            -46.9021   ZZ=            -35.5649
   XY=              1.5192   XZ=              0.0011   YZ=              0.0024

 P4SDQ=-153.4039865\CCSD=-153.4267952\CCSD(T)=-153.4533281\S2=1.569185\
 Normal termination of Gaussian 09 at Sat Mar  9 17:33:05 2019.
