 Gaussian 09, Revision E.01,
 Gaussian 09:  EM64L-G09RevE.01 30-Nov-2015

 --------------------------------------
 #p ccsd(t,maxcyc=200)/6-311++G(3df,2p)
 --------------------------------------

 -------------
 ccsd(t) iener
 -------------
 Symbolic Z-matrix:
 Charge = -1 Multiplicity = 2

                         Standard orientation:
 ---------------------------------------------------------------------
 Center     Atomic      Atomic             Coordinates (Angstroms)
 Number     Number       Type             X           Y           Z
 ---------------------------------------------------------------------
      1          6           0       -0.902309   -0.188523   -0.000000
      2          6           0        0.606455    0.013113    0.000000
      3          1           0        0.986519    0.578792   -0.881479
      4          1           0        1.157042   -0.936612   -0.000001
      5          1           0        0.986518    0.578790    0.881481
      6          1           0       -1.354956    0.831487    0.000001
 ---------------------------------------------------------------------

 SCF Done:  E(UHF) =  -77.9426784392     A.U. after   22 cycles
 E2 =    -0.3393591484D+00 EUMP2 =    -0.78282037587542D+02
 CCSD(T)
 CCSD(T)= -0.78326251577D+02

 The electronic state is 2-A.
 Alpha  occ. eigenvalues --  -11.00925 -10.95331  -0.77109  -0.55297  -0.35209
 Alpha  occ. eigenvalues --   -0.34880  -0.25433  -0.08875  -0.06307
 Alpha virt. eigenvalues --    0.16661   0.18774   0.19298   0.20708   0.27600
 Alpha virt. eigenvalues --    0.30085   0.30307   0.30699   0.32863   0.34638
 Alpha virt. eigenvalues --    0.35540   0.37684   0.45676   0.46465   0.49262

  Beta  occ. eigenvalues --  -11.01201 -10.93140  -0.75121  -0.49094  -0.34529
  Beta  occ. eigenvalues --   -0.32806  -0.24412  -0.03618
  Beta virt. eigenvalues --    0.16708   0.18801   0.19327   0.20707   0.27703
  Beta virt. eigenvalues --    0.28421   0.30094   0.30534   0.31561   0.34665
  Beta virt. eigenvalues --    0.35590   0.38684   0.44147   0.46454   0.47848

 Mulliken charges and spin densities:
               1          2
     1  C   -0.993087   1.255041
     2  C   -0.037792  -0.239731
     3  H   -0.016525   0.039075
     4  H    0.053423  -0.010664
     5  H   -0.016525   0.039075
     6  H    0.010507  -0.082797
 Sum of Mulliken charges =  -1.00000   1.00000

 Dipole moment (field-independent basis, Debye):
    X=              4.4459    Y=              2.3260    Z=              0.0000  Tot=              5.0176
 Quadrupole moment (field-independent basis, Debye-Ang):
   XX=            -27.3346   YY=            -21.6176   ZZ=            -20.1932
   XY=             -4.2176   XZ=             -0.0000   YZ=             -0.0000

 P3-0=-78.3097333\MP4SDQ=-78.3107826\CCSD=-78.3111745\CCSD(T)=-78.32625
 Normal termination of Gaussian 09 at Mon Mar 11 23:38:45 2019.
