 Gaussian 09, Revision E.01,
 Gaussian 09:  EM64L-G09RevE.01 30-Nov-2015

 --------------------------------------
 #p ccsd(t,maxcyc=200)/6-311++G(3df,2p)
 --------------------------------------

 -------------
 ccsd(t) iener
 -------------
 Symbolic Z-matrix:
 Charge = -1 Multiplicity = 4

                         Standard orientation:
 ---------------------------------------------------------------------
 Center     Atomic      Atomic             Coordinates (Angstroms)
 Number     Number       Type             X           Y           Z
 ---------------------------------------------------------------------
      1          6           0       -0.000000    0.000000    0.721127
      2          6           0       -0.000000   -0.000000   -0.721127
      3          1           0        0.309778   -0.866790   -1.299002
      4          1           0        0.866790    0.309778    1.299002
      5          1           0       -0.309778    0.866790   -1.299002
      6          1           0       -0.866790   -0.309778    1.299002
 ---------------------------------------------------------------------

 SCF Done:  E(UHF) =  -77.9470135253     A.U. after   15 cycles
 E2 =    -0.2962601791D+00 EUMP2 =    -0.78243273704376D+02
 CCSD(T)
 CCSD(T)= -0.78288661489D+02

 The electronic state is 4-A.
 Alpha  occ. eigenvalues --  -11.09358 -11.09269  -0.90488  -0.69988  -0.46291
 Alpha  occ. eigenvalues --   -0.46291  -0.43989  -0.21525  -0.21525   0.04522
 Alpha virt. eigenvalues --    0.15122   0.15855   0.15855   0.25345   0.25680
 Alpha virt. eigenvalues --    0.25680   0.26341   0.31295   0.31610   0.32753
 Alpha virt. eigenvalues --    0.32753   0.37103   0.42252   0.45230   0.45230

  Beta  occ. eigenvalues --  -11.07270 -11.07183  -0.80315  -0.61474  -0.41836
  Beta  occ. eigenvalues --   -0.41836  -0.40962
  Beta virt. eigenvalues --    0.16873   0.18225   0.18645   0.18645   0.22459
  Beta virt. eigenvalues --    0.22459   0.26784   0.27681   0.32304   0.32304
  Beta virt. eigenvalues --    0.32689   0.33672   0.35770   0.35770   0.40083

 Mulliken charges and spin densities:
               1          2
     1  C    1.067159  -0.235328
     2  C    1.067159  -0.235328
     3  H   -0.783579   0.867664
     4  H   -0.783579   0.867664
     5  H   -0.783579   0.867664
     6  H   -0.783579   0.867664
 Sum of Mulliken charges =  -1.00000   3.00000

 Dipole moment (field-independent basis, Debye):
    X=             -0.0000    Y=              0.0000    Z=              0.0000  Tot=              0.0000
 Quadrupole moment (field-independent basis, Debye-Ang):
   XX=            -39.6070   YY=            -39.6070   ZZ=            -42.0785
   XY=              0.0000   XZ=             -0.0000   YZ=              0.0000

 PMP3-0=-78.2736805\MP4SDQ=-78.276065\CCSD=-78.277051\CCSD(T)=-78.28866
 Normal termination of Gaussian 09 at Tue Mar 12 00:39:48 2019.
