 Gaussian 09, Revision E.01,
 Gaussian 09:  EM64L-G09RevE.01 30-Nov-2015

 --------------------------------------
 #p ccsd(t,maxcyc=200)/6-311++G(3df,2p)
 --------------------------------------

 -------------
 ccsd(t) iener
 -------------
 Symbolic Z-matrix:
 Charge = -1 Multiplicity = 4

                         Standard orientation:
 ---------------------------------------------------------------------
 Center     Atomic      Atomic             Coordinates (Angstroms)
 Number     Number       Type             X           Y           Z
 ---------------------------------------------------------------------
      1          6           0       -0.047317    0.850263   -0.000000
      2          6           0       -0.047317   -0.607886    0.000000
      3          1           0        0.458859   -1.025017    0.884248
      4          1           0        0.458859   -1.025017   -0.884248
      5          1           0       -1.062744   -1.021238    0.000000
      6          1           0        0.712837    1.617011   -0.000000
 ---------------------------------------------------------------------

 SCF Done:  E(UHF) =  -77.9466300559     A.U. after   28 cycles
 E2 =    -0.2934347210D+00 EUMP2 =    -0.78240064776916D+02
 CCSD(T)
 CCSD(T)= -0.78284059749D+02

 The electronic state is 4-A".
 Alpha  occ. eigenvalues --  -11.11356 -11.07991  -0.90207  -0.69579  -0.46386
 Alpha  occ. eigenvalues --   -0.44374  -0.42287  -0.26794  -0.22493   0.04240
 Alpha virt. eigenvalues --    0.14748   0.16812   0.16975   0.23973   0.25507
 Alpha virt. eigenvalues --    0.25617   0.27079   0.28282   0.30520   0.31246
 Alpha virt. eigenvalues --    0.31785   0.39855   0.42626   0.42733   0.50353

  Beta  occ. eigenvalues --  -11.08231 -11.06632  -0.84263  -0.58025  -0.42302
  Beta  occ. eigenvalues --   -0.40481  -0.39586
  Beta virt. eigenvalues --    0.16379   0.17462   0.19665   0.20038   0.21740
  Beta virt. eigenvalues --    0.23339   0.27189   0.28790   0.29207   0.29673
  Beta virt. eigenvalues --    0.32792   0.33080   0.35687   0.36255   0.41919

 Mulliken charges and spin densities:
               1          2
     1  C   -1.179144   3.019566
     2  C    3.839290  -4.285400
     3  H   -1.102462   1.296713
     4  H   -1.102462   1.296713
     5  H   -0.887090   1.028243
     6  H   -0.568132   0.644165
 Sum of Mulliken charges =  -1.00000   3.00000

 Dipole moment (field-independent basis, Debye):
    X=             -1.9745    Y=              3.9315    Z=              0.0000  Tot=              4.3995
 Quadrupole moment (field-independent basis, Debye-Ang):
   XX=            -40.8474   YY=            -41.6549   ZZ=            -39.7880
   XY=              0.6212   XZ=              0.0000   YZ=              0.0000

 64\MP4SDQ=-78.2713885\CCSD=-78.2724347\CCSD(T)=-78.2840597\S2=3.769485
 Normal termination of Gaussian 09 at Tue Mar 12 00:39:56 2019.
