 Gaussian 09, Revision E.01,
 Gaussian 09:  EM64L-G09RevE.01 30-Nov-2015

 --------------------------------------
 #p ccsd(t,maxcyc=200)/6-311++G(3df,2p)
 --------------------------------------

 -------------
 ccsd(t) iener
 -------------
 Symbolic Z-matrix:
 Charge = -1 Multiplicity = 2

                         Standard orientation:
 ---------------------------------------------------------------------
 Center     Atomic      Atomic             Coordinates (Angstroms)
 Number     Number       Type             X           Y           Z
 ---------------------------------------------------------------------
      1          6           0       -0.000000    0.430333   -0.000000
      2          6           0        1.219601   -0.100732   -0.000000
      3          1           0        2.080165    0.561087   -0.000000
      4          1           0       -1.064029   -1.176525    0.000000
      5          1           0       -0.151522    1.500430   -0.000000
      6          1           0        1.403522   -1.164906    0.000000
      7          8           0       -1.198217   -0.212211    0.000000
 ---------------------------------------------------------------------

 SCF Done:  E(UHF) =  -152.911204822     A.U. after   33 cycles
 E2 =    -0.5745381361D+00 EUMP2 =    -0.15348574295774D+03
 CCSD(T)
 CCSD(T)= -0.15353259463D+03

 The electronic state is 2-A'.
 Alpha  occ. eigenvalues --  -20.44346 -11.15952 -11.07356  -1.25630  -0.88453
 Alpha  occ. eigenvalues --   -0.69055  -0.53879  -0.52905  -0.43293  -0.40556
 Alpha  occ. eigenvalues --   -0.39977  -0.21041   0.03946
 Alpha virt. eigenvalues --    0.13949   0.15305   0.18448   0.23288   0.23513
 Alpha virt. eigenvalues --    0.23911   0.27181   0.28349   0.30344   0.31395
 Alpha virt. eigenvalues --    0.32978   0.35402   0.37356   0.41284   0.42796

  Beta  occ. eigenvalues --  -20.44254 -11.16003 -11.07222  -1.25408  -0.88341
  Beta  occ. eigenvalues --   -0.68750  -0.53599  -0.52813  -0.43388  -0.40492
  Beta  occ. eigenvalues --   -0.39729  -0.20954
  Beta virt. eigenvalues --    0.14341   0.16065   0.20395   0.21531   0.24094
  Beta virt. eigenvalues --    0.24442   0.24970   0.27930   0.29413   0.30945
  Beta virt. eigenvalues --    0.32141   0.34436   0.35651   0.38371   0.42123

 Mulliken charges and spin densities:
               1          2
     1  C    1.070663  -0.675773
     2  C    0.739595  -1.077685
     3  H    0.207237  -0.117365
     4  H   -0.540739   0.835663
     5  H   -0.018876   0.136205
     6  H   -1.757106   1.912980
     7  O   -0.700774  -0.014026
 Sum of Mulliken charges =  -1.00000   1.00000

 Dipole moment (field-independent basis, Debye):
    X=             -0.4125    Y=              9.5461    Z=             -0.0000  Tot=              9.5550
 Quadrupole moment (field-independent basis, Debye-Ang):
   XX=            -43.2982   YY=            -55.2747   ZZ=            -36.4429
   XY=              2.5677   XZ=             -0.0000   YZ=              0.0000

 068317\CCSD(T)=-153.5325946\S2=0.75061\S2-1=0.750297\S2A=0.75\RMSD=5.9
 Normal termination of Gaussian 09 at Fri Mar  8 19:39:27 2019.
