 Gaussian 09, Revision E.01,
 Gaussian 09:  EM64L-G09RevE.01 30-Nov-2015

 --------------------------------------
 #p ccsd(t,maxcyc=200)/6-311++G(3df,2p)
 --------------------------------------

 -------------
 ccsd(t) iener
 -------------
 Symbolic Z-matrix:
 Charge = -1 Multiplicity = 2

                         Standard orientation:
 ---------------------------------------------------------------------
 Center     Atomic      Atomic             Coordinates (Angstroms)
 Number     Number       Type             X           Y           Z
 ---------------------------------------------------------------------
      1          6           0       -0.663438    0.000000    0.000000
      2          6           0        0.663438   -0.000000    0.000000
      3          1           0        1.235712    0.920928   -0.000000
      4          1           0       -1.235712   -0.920928   -0.000000
      5          1           0        1.235712   -0.920928   -0.000000
      6          1           0       -1.235712    0.920928    0.000000
 ---------------------------------------------------------------------

 SCF Done:  E(UHF) =  -78.0026366506     A.U. after   17 cycles
 E2 =    -0.3369264830D+00 EUMP2 =    -0.78339563133590D+02
 CCSD(T)
 CCSD(T)= -0.78380462202D+02

 The electronic state is 2-B3U.
 Alpha  occ. eigenvalues --  -11.09698 -11.09521  -0.90424  -0.66071  -0.51019
 Alpha  occ. eigenvalues --   -0.45738  -0.37238  -0.24758   0.05955
 Alpha virt. eigenvalues --    0.13387   0.16196   0.16729   0.22267   0.24157
 Alpha virt. eigenvalues --    0.24282   0.28586   0.29254   0.31877   0.31998
 Alpha virt. eigenvalues --    0.33854   0.34673   0.37821   0.40581   0.41005

  Beta  occ. eigenvalues --  -11.09638 -11.09461  -0.90335  -0.65862  -0.51005
  Beta  occ. eigenvalues --   -0.45698  -0.37204  -0.24718
  Beta virt. eigenvalues --    0.16534   0.17862   0.18198   0.19498   0.23321
  Beta virt. eigenvalues --    0.24622   0.26770   0.29594   0.30390   0.32259
  Beta virt. eigenvalues --    0.32938   0.34701   0.35257   0.38356   0.41113

 Mulliken charges and spin densities:
               1          2
     1  C    0.713190  -0.955452
     2  C    0.713190  -0.955452
     3  H   -0.606595   0.727726
     4  H   -0.606595   0.727726
     5  H   -0.606595   0.727726
     6  H   -0.606595   0.727726
 Sum of Mulliken charges =  -1.00000   1.00000

 Dipole moment (field-independent basis, Debye):
    X=              0.0000    Y=             -0.0000    Z=              0.0000  Tot=              0.0000
 Quadrupole moment (field-independent basis, Debye-Ang):
   XX=            -67.1547   YY=            -37.7948   ZZ=            -29.6550
   XY=              0.0000   XZ=              0.0000   YZ=             -0.0000

 \PMP3-0=-78.3620985\MP4SDQ=-78.3646327\CCSD=-78.3646974\CCSD(T)=-78.38
 Normal termination of Gaussian 09 at Mon Mar 11 23:30:10 2019.
