 Gaussian 09, Revision E.01,
 Gaussian 09:  EM64L-G09RevE.01 30-Nov-2015

 --------------------------------------
 #p ccsd(t,maxcyc=200)/6-311++G(3df,2p)
 --------------------------------------

 -------------
 ccsd(t) iener
 -------------
 Symbolic Z-matrix:
 Charge = -1 Multiplicity = 4

                         Standard orientation:
 ---------------------------------------------------------------------
 Center     Atomic      Atomic             Coordinates (Angstroms)
 Number     Number       Type             X           Y           Z
 ---------------------------------------------------------------------
      1          6           0       -0.047327    0.850237   -0.000000
      2          6           0       -0.047327   -0.607897    0.000000
      3          1           0       -1.062635   -1.021413    0.000000
      4          1           0        0.458923   -1.024847    0.884240
      5          1           0        0.458923   -1.024847   -0.884240
      6          1           0        0.712710    1.617065   -0.000000
 ---------------------------------------------------------------------

 SCF Done:  E(UHF) =  -77.9466311891     A.U. after   28 cycles
 E2 =    -0.2934337810D+00 EUMP2 =    -0.78240064970095D+02
 CCSD(T)
 CCSD(T)= -0.78284059192D+02

 The electronic state is 4-A".
 Alpha  occ. eigenvalues --  -11.11355 -11.07989  -0.90208  -0.69580  -0.46385
 Alpha  occ. eigenvalues --   -0.44376  -0.42290  -0.26792  -0.22492   0.04240
 Alpha virt. eigenvalues --    0.14748   0.16812   0.16975   0.23973   0.25507
 Alpha virt. eigenvalues --    0.25618   0.27079   0.28281   0.30520   0.31245
 Alpha virt. eigenvalues --    0.31785   0.39855   0.42626   0.42733   0.50354

  Beta  occ. eigenvalues --  -11.08230 -11.06631  -0.84265  -0.58025  -0.42301
  Beta  occ. eigenvalues --   -0.40484  -0.39590
  Beta virt. eigenvalues --    0.16379   0.17462   0.19665   0.20038   0.21741
  Beta virt. eigenvalues --    0.23339   0.27189   0.28790   0.29205   0.29674
  Beta virt. eigenvalues --    0.32791   0.33080   0.35688   0.36256   0.41919

 Mulliken charges and spin densities:
               1          2
     1  C   -1.179458   3.019838
     2  C    3.839918  -4.286006
     3  H   -0.887187   1.028346
     4  H   -1.102413   1.296666
     5  H   -1.102413   1.296666
     6  H   -0.568447   0.644489
 Sum of Mulliken charges =  -1.00000   3.00000

 Dipole moment (field-independent basis, Debye):
    X=             -1.9748    Y=              3.9300    Z=             -0.0000  Tot=              4.3983
 Quadrupole moment (field-independent basis, Debye-Ang):
   XX=            -40.8485   YY=            -41.6543   ZZ=            -39.7876
   XY=              0.6199   XZ=              0.0000   YZ=              0.0000

 167\MP4SDQ=-78.2713884\CCSD=-78.2724346\CCSD(T)=-78.2840592\S2=3.76948
 Normal termination of Gaussian 09 at Tue Mar 12 00:37:17 2019.
