 Gaussian 09, Revision E.01,
 Gaussian 09:  EM64L-G09RevE.01 30-Nov-2015

 --------------------------------------
 #p ccsd(t,maxcyc=200)/6-311++G(3df,2p)
 --------------------------------------

 -------------
 ccsd(t) iener
 -------------
 Symbolic Z-matrix:
 Charge = -1 Multiplicity = 4

                         Standard orientation:
 ---------------------------------------------------------------------
 Center     Atomic      Atomic             Coordinates (Angstroms)
 Number     Number       Type             X           Y           Z
 ---------------------------------------------------------------------
      1          6           0        0.030204    0.506584   -0.092310
      2          6           0       -1.256290   -0.154241    0.017507
      3          1           0       -1.693467   -0.414691    0.981222
      4          1           0        1.035457   -1.146587   -0.103556
      5          1           0        0.171965    1.552836    0.138671
      6          1           0       -1.803640   -0.499232   -0.856658
      7          8           0        1.205775   -0.200797    0.036142
 ---------------------------------------------------------------------

 SCF Done:  E(UHF) =  -152.839716776     A.U. after   29 cycles
 E2 =    -0.5335229317D+00 EUMP2 =    -0.15337323970819D+03
 CCSD(T)
 CCSD(T)= -0.15342560882D+03

 The electronic state is 4-A.
 Alpha  occ. eigenvalues --  -20.45036 -11.14618 -11.10455  -1.26297  -0.89598
 Alpha  occ. eigenvalues --   -0.71775  -0.55101  -0.51293  -0.49842  -0.43066
 Alpha  occ. eigenvalues --   -0.39872  -0.24485  -0.18854   0.03968
 Alpha virt. eigenvalues --    0.14673   0.15810   0.16154   0.23256   0.24630
 Alpha virt. eigenvalues --    0.25032   0.25712   0.29243   0.30201   0.30868
 Alpha virt. eigenvalues --    0.32157   0.37006   0.39876   0.41415   0.43431

  Beta  occ. eigenvalues --  -20.44122 -11.12443 -11.08329  -1.23391  -0.79923
  Beta  occ. eigenvalues --   -0.66158  -0.52085  -0.47972  -0.43475  -0.38402
  Beta  occ. eigenvalues --   -0.36703
  Beta virt. eigenvalues --    0.15429   0.17557   0.18621   0.19103   0.22120
  Beta virt. eigenvalues --    0.23429   0.24486   0.27386   0.29440   0.30638
  Beta virt. eigenvalues --    0.32134   0.32348   0.33911   0.35100   0.39691

 Mulliken charges and spin densities:
               1          2
     1  C    1.136494   0.268525
     2  C    1.300046  -0.582790
     3  H   -0.927542   1.034426
     4  H   -0.454860   0.708185
     5  H   -0.055540   0.107969
     6  H   -1.213650   1.316091
     7  O   -0.784949   0.147595
 Sum of Mulliken charges =  -1.00000   3.00000

 Dipole moment (field-independent basis, Debye):
    X=              4.6673    Y=              4.5304    Z=              0.7062  Tot=              6.5427
 Quadrupole moment (field-independent basis, Debye-Ang):
   XX=            -54.5965   YY=            -43.5338   ZZ=            -45.4894
   XY=             -2.8762   XZ=             -1.3658   YZ=             -0.7090

 .4032736\CCSD=-153.4038929\CCSD(T)=-153.4256088\S2=3.766125\S2-1=3.752
 Normal termination of Gaussian 09 at Fri Mar  8 19:40:29 2019.
