 Gaussian 09, Revision E.01,
 Gaussian 09:  EM64L-G09RevE.01 30-Nov-2015

 --------------------------------------
 #p ccsd(t,maxcyc=200)/6-311++G(3df,2p)
 --------------------------------------

 -------------
 ccsd(t) iener
 -------------
 Symbolic Z-matrix:
 Charge = -1 Multiplicity = 4

                         Standard orientation:
 ---------------------------------------------------------------------
 Center     Atomic      Atomic             Coordinates (Angstroms)
 Number     Number       Type             X           Y           Z
 ---------------------------------------------------------------------
      1          6           0        0.838891    0.147187   -0.000000
      2          6           0       -0.609497   -0.024458   -0.000000
      3          1           0       -0.962723   -0.576574   -0.884238
      4          1           0       -1.140213    0.934609   -0.000001
      5          1           0       -0.962723   -0.576570    0.884240
      6          1           0        1.689293   -0.517844    0.000001
 ---------------------------------------------------------------------

 SCF Done:  E(UHF) =  -77.9466552313     A.U. after   27 cycles
 E2 =    -0.2934200092D+00 EUMP2 =    -0.78240075240552D+02
 CCSD(T)
 CCSD(T)= -0.78284067183D+02

 The electronic state is 4-A.
 Alpha  occ. eigenvalues --  -11.11353 -11.07986  -0.90203  -0.69583  -0.46375
 Alpha  occ. eigenvalues --   -0.44386  -0.42292  -0.26797  -0.22493   0.04240
 Alpha virt. eigenvalues --    0.14749   0.16812   0.16976   0.23973   0.25507
 Alpha virt. eigenvalues --    0.25619   0.27079   0.28273   0.30519   0.31247
 Alpha virt. eigenvalues --    0.31787   0.39856   0.42626   0.42736   0.50355

  Beta  occ. eigenvalues --  -11.08226 -11.06629  -0.84263  -0.58025  -0.42286
  Beta  occ. eigenvalues --   -0.40498  -0.39600
  Beta virt. eigenvalues --    0.16381   0.17462   0.19665   0.20039   0.21740
  Beta virt. eigenvalues --    0.23342   0.27188   0.28789   0.29198   0.29674
  Beta virt. eigenvalues --    0.32792   0.33081   0.35690   0.36263   0.41920

 Mulliken charges and spin densities:
               1          2
     1  C   -1.178428   3.018715
     2  C    3.839359  -4.285109
     3  H   -1.102300   1.296465
     4  H   -0.886895   1.027929
     5  H   -1.102302   1.296466
     6  H   -0.569434   0.645535
 Sum of Mulliken charges =  -1.00000   3.00000

 Dipole moment (field-independent basis, Debye):
    X=              3.6631    Y=              2.4266    Z=             -0.0000  Tot=              4.3939
 Quadrupole moment (field-independent basis, Debye-Ang):
   XX=            -41.4907   YY=            -41.0091   ZZ=            -39.7871
   XY=             -0.6909   XZ=              0.0000   YZ=              0.0000

 P3-0=-78.2691283\MP4SDQ=-78.2713994\CCSD=-78.2724447\CCSD(T)=-78.28406
 Normal termination of Gaussian 09 at Tue Mar 12 00:39:44 2019.
