 Gaussian 09, Revision E.01,
 Gaussian 09:  EM64L-G09RevE.01 30-Nov-2015

 --------------------------------------
 #p ccsd(t,maxcyc=200)/6-311++G(3df,2p)
 --------------------------------------

 -------------
 ccsd(t) iener
 -------------
 Symbolic Z-matrix:
 Charge = -1 Multiplicity = 2

                         Standard orientation:
 ---------------------------------------------------------------------
 Center     Atomic      Atomic             Coordinates (Angstroms)
 Number     Number       Type             X           Y           Z
 ---------------------------------------------------------------------
      1          6           0       -0.000000    0.000000    0.701097
      2          6           0        0.000000   -0.000000   -0.701097
      3          1           0       -0.000000    0.918871    1.276302
      4          1           0        0.000000   -0.918871    1.276302
      5          1           0       -0.000000   -0.918871   -1.276302
      6          1           0        0.000000    0.918871   -1.276302
 ---------------------------------------------------------------------

 SCF Done:  E(UHF) =  -77.9948007421     A.U. after   17 cycles
 E2 =    -0.3406790335D+00 EUMP2 =    -0.78335479775581D+02
 CCSD(T)
 CCSD(T)= -0.78377227451D+02

 The electronic state is 2-B1U.
 Alpha  occ. eigenvalues --  -11.11153 -11.11031  -0.88311  -0.67105  -0.50221
 Alpha  occ. eigenvalues --   -0.44707  -0.38433  -0.23107   0.05894
 Alpha virt. eigenvalues --    0.13320   0.16214   0.16729   0.21674   0.24284
 Alpha virt. eigenvalues --    0.24382   0.28458   0.29329   0.31884   0.32044
 Alpha virt. eigenvalues --    0.33315   0.33787   0.37828   0.40527   0.40694

  Beta  occ. eigenvalues --  -11.11088 -11.10966  -0.88203  -0.66897  -0.50203
  Beta  occ. eigenvalues --   -0.44681  -0.38396  -0.23064
  Beta virt. eigenvalues --    0.16495   0.17884   0.18152   0.19498   0.22627
  Beta virt. eigenvalues --    0.24849   0.26774   0.29672   0.30263   0.32269
  Beta virt. eigenvalues --    0.32984   0.34002   0.34622   0.38381   0.41089

 Mulliken charges and spin densities:
               1          2
     1  C    0.690668  -0.944467
     2  C    0.690668  -0.944467
     3  H   -0.595334   0.722233
     4  H   -0.595334   0.722233
     5  H   -0.595334   0.722233
     6  H   -0.595334   0.722233
 Sum of Mulliken charges =  -1.00000   1.00000

 Dipole moment (field-independent basis, Debye):
    X=             -0.0000    Y=             -0.0000    Z=             -0.0000  Tot=              0.0000
 Quadrupole moment (field-independent basis, Debye-Ang):
   XX=            -30.0169   YY=            -37.6866   ZZ=            -67.2056
   XY=             -0.0000   XZ=             -0.0000   YZ=              0.0000

 29\MP4SDQ=-78.3603538\CCSD=-78.360387\CCSD(T)=-78.3772275\S2=0.75015\S
 Normal termination of Gaussian 09 at Mon Mar 11 23:30:17 2019.
