 Gaussian 09, Revision E.01,
 Gaussian 09:  EM64L-G09RevE.01 30-Nov-2015

 --------------------------------------
 #p ccsd(t,maxcyc=200)/6-311++G(3df,2p)
 --------------------------------------

 -------------
 ccsd(t) iener
 -------------
 Symbolic Z-matrix:
 Charge = -1 Multiplicity = 2

                         Standard orientation:
 ---------------------------------------------------------------------
 Center     Atomic      Atomic             Coordinates (Angstroms)
 Number     Number       Type             X           Y           Z
 ---------------------------------------------------------------------
      1          6           0        1.866888    0.058371   -0.216419
      2          6           0       -0.661004    0.380801    0.309141
      3          6           0        0.731282   -0.438460    0.183807
      4          1           0       -0.807122    0.386675    1.424097
      5          1           0       -0.400225    1.432857    0.033553
      6          1           0        2.072423    1.067729   -0.563924
      7          1           0        0.575646   -1.479996    0.455710
      8          8           0       -1.632965   -0.176442   -0.376077
 ---------------------------------------------------------------------

 SCF Done:  E(UHF) =  -190.725557513     A.U. after   26 cycles
 E2 =    -0.7133133756D+00 EUMP2 =    -0.19143887088836D+03
 CCSD(T)
 CCSD(T)= -0.19150905343D+03

 The electronic state is 2-A.
 Alpha  occ. eigenvalues --  -20.22619 -11.07589 -11.07065 -11.04351  -1.04243
 Alpha  occ. eigenvalues --   -0.87007  -0.66619  -0.57246  -0.43819  -0.39400
 Alpha  occ. eigenvalues --   -0.35899  -0.32068  -0.24578  -0.22531  -0.13374
 Alpha  occ. eigenvalues --   -0.12070
 Alpha virt. eigenvalues --    0.15148   0.16994   0.17926   0.19972   0.24277
 Alpha virt. eigenvalues --    0.24841   0.25932   0.28081   0.28816   0.30550
 Alpha virt. eigenvalues --    0.30945   0.32775   0.33260   0.34324   0.35337

  Beta  occ. eigenvalues --  -20.22504 -11.06689 -11.05423 -11.04481  -1.03936
  Beta  occ. eigenvalues --   -0.84209  -0.63089  -0.55292  -0.42135  -0.37690
  Beta  occ. eigenvalues --   -0.33495  -0.31587  -0.20133  -0.13262  -0.13049
  Beta virt. eigenvalues --    0.15206   0.17012   0.17598   0.19908   0.21834
  Beta virt. eigenvalues --    0.24255   0.26014   0.27743   0.29216   0.30053
  Beta virt. eigenvalues --    0.30836   0.31536   0.33187   0.33636   0.34460

 Mulliken charges and spin densities:
               1          2
     1  C   -0.460925   1.555738
     2  C    0.329960   0.130583
     3  C    0.104117  -0.796757
     4  H   -0.035787   0.007523
     5  H   -0.021033  -0.006234
     6  H    0.105948   0.015188
     7  H    0.093978   0.070529
     8  O   -1.116258   0.023430
 Sum of Mulliken charges =  -1.00000   1.00000

 Dipole moment (field-independent basis, Debye):
    X=              4.1793    Y=              0.8660    Z=              1.4005  Tot=              4.4920
 Quadrupole moment (field-independent basis, Debye-Ang):
   XX=            -45.4646   YY=            -27.8869   ZZ=            -30.7480
   XY=             -0.1835   XZ=             -3.3192   YZ=             -1.6758

 4\PMP3-0=-191.4627688\MP4SDQ=-191.4682875\CCSD=-191.4720267\CCSD(T)=-1
 Normal termination of Gaussian 09 at Fri Mar  8 22:01:17 2019.
