 Gaussian 09, Revision E.01,
 Gaussian 09:  EM64L-G09RevE.01 30-Nov-2015

 --------------------------------------
 #p ccsd(t,maxcyc=200)/6-311++G(3df,2p)
 --------------------------------------

 -------------
 ccsd(t) iener
 -------------
 Symbolic Z-matrix:
 Charge = -1 Multiplicity = 4

                         Standard orientation:
 ---------------------------------------------------------------------
 Center     Atomic      Atomic             Coordinates (Angstroms)
 Number     Number       Type             X           Y           Z
 ---------------------------------------------------------------------
      1          6           0       -0.846976    0.361282   -0.340465
      2          6           0        0.509202    0.557897    0.233891
      3          6           0       -1.783550   -0.663513    0.205886
      4          1           0        1.177100   -0.852733   -0.906828
      5          1           0        0.933764    1.502962   -0.135768
      6          1           0        0.464673    0.616004    1.336326
      7          1           0       -1.314491    1.325085   -0.584761
      8          8           0        1.433362   -0.515663   -0.038105
 ---------------------------------------------------------------------

 SCF Done:  E(UHF) =  -190.633501127     A.U. after   27 cycles
 E2 =    -0.6712454414D+00 EUMP2 =    -0.19130474656893D+03
 CCSD(T)
 CCSD(T)= -0.19137700859D+03

 The electronic state is 4-A.
 Alpha  occ. eigenvalues --  -20.40149 -11.11254 -11.05112 -10.97979  -1.19844
 Alpha  occ. eigenvalues --   -0.86801  -0.70982  -0.56692  -0.47419  -0.46204
 Alpha  occ. eigenvalues --   -0.44808  -0.34505  -0.30736  -0.24833  -0.19647
 Alpha  occ. eigenvalues --   -0.09421  -0.03104
 Alpha virt. eigenvalues --    0.15158   0.17105   0.17846   0.18786   0.24745
 Alpha virt. eigenvalues --    0.26049   0.26716   0.27876   0.29345   0.31295
 Alpha virt. eigenvalues --    0.31595   0.32153   0.32972   0.34804   0.36304

  Beta  occ. eigenvalues --  -20.39992 -11.11295 -11.03310 -10.94202  -1.19289
  Beta  occ. eigenvalues --   -0.81007  -0.64163  -0.51468  -0.45568  -0.42915
  Beta  occ. eigenvalues --   -0.39561  -0.32124  -0.29147  -0.10808
  Beta virt. eigenvalues --    0.15061   0.17056   0.17939   0.18768   0.23102
  Beta virt. eigenvalues --    0.25007   0.26143   0.26867   0.28071   0.30207
  Beta virt. eigenvalues --    0.30898   0.31601   0.32513   0.33524   0.35596

 Mulliken charges and spin densities:
               1          2
     1  C   -0.002336   0.911328
     2  C    0.610880  -0.306151
     3  C   -1.141951   2.231871
     4  H    0.216003   0.019608
     5  H    0.050257   0.014016
     6  H   -0.017069   0.153080
     7  H    0.028593  -0.015396
     8  O   -0.744377  -0.008356
 Sum of Mulliken charges =  -1.00000   3.00000

 Dipole moment (field-independent basis, Debye):
    X=              6.2504    Y=              3.8538    Z=             -2.3204  Tot=              7.7009
 Quadrupole moment (field-independent basis, Debye-Ang):
   XX=            -52.1995   YY=            -33.1411   ZZ=            -31.2080
   XY=             -6.7294   XZ=              2.4624   YZ=              3.3757

 7\PMP3-0=-191.3379514\MP4SDQ=-191.3429786\CCSD=-191.3460252\CCSD(T)=-1
 Normal termination of Gaussian 09 at Sat Mar  9 01:44:40 2019.
