 Gaussian 09, Revision E.01,
 Gaussian 09:  EM64L-G09RevE.01 30-Nov-2015

 --------------------------------------
 #p ccsd(t,maxcyc=200)/6-311++G(3df,2p)
 --------------------------------------

 -------------
 ccsd(t) iener
 -------------
 Symbolic Z-matrix:
 Charge = -1 Multiplicity = 4

                         Standard orientation:
 ---------------------------------------------------------------------
 Center     Atomic      Atomic             Coordinates (Angstroms)
 Number     Number       Type             X           Y           Z
 ---------------------------------------------------------------------
      1          6           0        1.332944   -0.921834   -0.090775
      2          6           0       -0.589636    0.642105   -0.172010
      3          6           0        0.893677    0.518444    0.079374
      4          1           0       -0.622728   -1.194307    0.053587
      5          1           0        1.430415    1.221602   -0.586906
      6          1           0       -1.154985    1.559195   -0.018367
      7          1           0        1.128749    0.885359    1.113741
      8          8           0       -1.325420   -0.488017    0.067301
 ---------------------------------------------------------------------

 SCF Done:  E(UHF) =  -190.667614393     A.U. after   21 cycles
 E2 =    -0.6773769072D+00 EUMP2 =    -0.19134499130006D+03
 CCSD(T)
 CCSD(T)= -0.19141215640D+03

 The electronic state is 4-A.
 Alpha  occ. eigenvalues --  -20.39274 -11.09709 -11.03083 -10.98173  -1.20949
 Alpha  occ. eigenvalues --   -0.84214  -0.69763  -0.53820  -0.50393  -0.44129
 Alpha  occ. eigenvalues --   -0.43747  -0.36779  -0.32909  -0.18907  -0.14313
 Alpha  occ. eigenvalues --   -0.10738  -0.09097
 Alpha virt. eigenvalues --    0.15284   0.17634   0.18285   0.19907   0.25066
 Alpha virt. eigenvalues --    0.26129   0.26309   0.28194   0.29822   0.30357
 Alpha virt. eigenvalues --    0.31797   0.32103   0.33637   0.36092   0.36546

  Beta  occ. eigenvalues --  -20.38425 -11.07075 -11.03765 -10.94315  -1.18304
  Beta  occ. eigenvalues --   -0.80086  -0.62633  -0.47191  -0.45222  -0.38488
  Beta  occ. eigenvalues --   -0.36787  -0.32028  -0.30542  -0.11350
  Beta virt. eigenvalues --    0.15329   0.17666   0.18373   0.20002   0.24815
  Beta virt. eigenvalues --    0.25336   0.25632   0.27442   0.28201   0.29830
  Beta virt. eigenvalues --    0.31400   0.32382   0.32650   0.35005   0.36396

 Mulliken charges and spin densities:
               1          2
     1  C   -1.113612   2.236972
     2  C    0.190784   1.206632
     3  C    0.317617  -0.676216
     4  H    0.316732   0.002745
     5  H    0.002244   0.084117
     6  H    0.067698  -0.058855
     7  H   -0.009723   0.158427
     8  O   -0.771741   0.046178
 Sum of Mulliken charges =  -1.00000   3.00000

 Dipole moment (field-independent basis, Debye):
    X=             -3.3578    Y=              4.4588    Z=              0.6925  Tot=              5.6245
 Quadrupole moment (field-independent basis, Debye-Ang):
   XX=            -42.5247   YY=            -35.7039   ZZ=            -31.0743
   XY=              6.3515   XZ=              0.5044   YZ=             -0.5595

 Normal termination of Gaussian 09 at Sat Mar  9 00:00:44 2019.
