 Gaussian 09, Revision E.01,
 Gaussian 09:  EM64L-G09RevE.01 30-Nov-2015

 --------------------------------------
 #p ccsd(t,maxcyc=200)/6-311++G(3df,2p)
 --------------------------------------

 -------------
 ccsd(t) iener
 -------------
 Symbolic Z-matrix:
 Charge = -1 Multiplicity = 4

                         Standard orientation:
 ---------------------------------------------------------------------
 Center     Atomic      Atomic             Coordinates (Angstroms)
 Number     Number       Type             X           Y           Z
 ---------------------------------------------------------------------
      1          6           0        2.152114    0.117434   -0.108626
      2          6           0       -0.403186    0.464060    0.068122
      3          6           0        0.789761   -0.386078    0.068376
      4          1           0       -2.310784    0.133602    0.361790
      5          1           0       -0.483796    0.968568    1.069597
      6          1           0       -0.275454    1.287724   -0.645276
      7          1           0        0.612540   -1.412544    0.405937
      8          8           0       -1.596830   -0.268731   -0.169910
 ---------------------------------------------------------------------

 SCF Done:  E(UHF) =  -190.624186912     A.U. after   40 cycles
 E2 =    -0.6750570919D+00 EUMP2 =    -0.19129924400361D+03
 CCSD(T)
 CCSD(T)= -0.19137060476D+03

 The electronic state is 4-A.
 Alpha  occ. eigenvalues --  -20.42291 -11.12353 -11.05894 -11.00890  -1.22023
 Alpha  occ. eigenvalues --   -0.88984  -0.72091  -0.57840  -0.53818  -0.47319
 Alpha  occ. eigenvalues --   -0.43243  -0.37102  -0.32232  -0.23540  -0.22141
 Alpha  occ. eigenvalues --   -0.12022   0.01215
 Alpha virt. eigenvalues --    0.14002   0.16927   0.17572   0.18324   0.25008
 Alpha virt. eigenvalues --    0.25032   0.27081   0.28154   0.28762   0.30344
 Alpha virt. eigenvalues --    0.31378   0.32043   0.32747   0.33718   0.35666

  Beta  occ. eigenvalues --  -20.42229 -11.12462 -11.04122 -10.97589  -1.21771
  Beta  occ. eigenvalues --   -0.82890  -0.64776  -0.55427  -0.49195  -0.43992
  Beta  occ. eigenvalues --   -0.40268  -0.34685  -0.30565  -0.14075
  Beta virt. eigenvalues --    0.14506   0.17110   0.17825   0.19017   0.22530
  Beta virt. eigenvalues --    0.25220   0.25628   0.26826   0.28510   0.28780
  Beta virt. eigenvalues --    0.30362   0.31980   0.32539   0.33806   0.34314

 Mulliken charges and spin densities:
               1          2
     1  C   -1.184314   2.125011
     2  C    1.142035  -0.950058
     3  C    0.063753   1.005343
     4  H    0.116065   0.126235
     5  H   -0.501347   0.674193
     6  H    0.114015  -0.000009
     7  H    0.065858  -0.018265
     8  O   -0.816065   0.037550
 Sum of Mulliken charges =  -1.00000   3.00000

 Dipole moment (field-independent basis, Debye):
    X=             -7.9187    Y=             -1.1383    Z=             -0.1859  Tot=              8.0023
 Quadrupole moment (field-independent basis, Debye-Ang):
   XX=            -58.6473   YY=            -34.2191   ZZ=            -35.5130
   XY=             -4.5895   XZ=             -0.3953   YZ=             -3.5352

 Normal termination of Gaussian 09 at Sat Mar  9 06:27:29 2019.
