 Gaussian 09, Revision E.01,
 Gaussian 09:  EM64L-G09RevE.01 30-Nov-2015

 --------------------------------------
 #p ccsd(t,maxcyc=200)/6-311++G(3df,2p)
 --------------------------------------

 -------------
 ccsd(t) iener
 -------------
 Symbolic Z-matrix:
 Charge = -1 Multiplicity = 4

                         Standard orientation:
 ---------------------------------------------------------------------
 Center     Atomic      Atomic             Coordinates (Angstroms)
 Number     Number       Type             X           Y           Z
 ---------------------------------------------------------------------
      1          6           0        0.777435    0.208210   -0.477683
      2          6           0       -0.494888    0.486361    0.168915
      3          6           0        1.936347   -0.243264    0.030600
      4          1           0       -2.341332   -0.148320    0.252898
      5          1           0       -0.306855    0.576063    1.259703
      6          1           0       -0.872404    1.484556   -0.137946
      7          1           0        2.131703   -0.679894    1.013543
      8          8           0       -1.490559   -0.492531   -0.089899
 ---------------------------------------------------------------------

 SCF Done:  E(UHF) =  -190.644881282     A.U. after   44 cycles
 E2 =    -0.6704726869D+00 EUMP2 =    -0.19131535396875D+03
 CCSD(T)
 CCSD(T)= -0.19138561631D+03

 The electronic state is 4-A.
 Alpha  occ. eigenvalues --  -20.42436 -11.16145 -11.15898 -11.15619  -1.22383
 Alpha  occ. eigenvalues --   -0.96819  -0.81341  -0.62598  -0.56485  -0.51884
 Alpha  occ. eigenvalues --   -0.50555  -0.40211  -0.39085  -0.31443  -0.28692
 Alpha  occ. eigenvalues --   -0.24505   0.03040
 Alpha virt. eigenvalues --    0.13682   0.16598   0.17223   0.20705   0.20971
 Alpha virt. eigenvalues --    0.21868   0.24500   0.26135   0.26929   0.27263
 Alpha virt. eigenvalues --    0.28603   0.29833   0.30726   0.31484   0.31970

  Beta  occ. eigenvalues --  -20.42445 -11.15621 -11.13573 -11.13098  -1.22289
  Beta  occ. eigenvalues --   -0.89621  -0.75973  -0.56831  -0.55112  -0.49207
  Beta  occ. eigenvalues --   -0.47743  -0.38707  -0.31724  -0.24873
  Beta virt. eigenvalues --    0.13105   0.15450   0.17436   0.20002   0.20305
  Beta virt. eigenvalues --    0.20655   0.22123   0.24178   0.26433   0.27286
  Beta virt. eigenvalues --    0.27487   0.29079   0.29319   0.30144   0.31469

 Mulliken charges and spin densities:
               1          2
     1  C   -1.562132   2.341144
     2  C    4.827335  -4.598657
     3  C   -0.271393   1.200565
     4  H   -0.667606   0.925854
     5  H   -0.893257   1.088071
     6  H   -1.323266   1.476675
     7  H   -0.085142   0.275128
     8  O   -1.024538   0.291221
 Sum of Mulliken charges =  -1.00000   3.00000

 Dipole moment (field-independent basis, Debye):
    X=              8.1202    Y=             -3.4772    Z=             -2.4083  Tot=              9.1558
 Quadrupole moment (field-independent basis, Debye-Ang):
   XX=            -66.0121   YY=            -51.6803   ZZ=            -47.4049
   XY=              4.3025   XZ=              5.4071   YZ=             -2.8547

 98\PMP3-0=-191.3448889\MP4SDQ=-191.3507311\CCSD=-191.3535587\CCSD(T)=-
 Normal termination of Gaussian 09 at Sat Mar  9 00:38:21 2019.
