 Gaussian 09, Revision E.01,
 Gaussian 09:  EM64L-G09RevE.01 30-Nov-2015

 --------------------------------------
 #p ccsd(t,maxcyc=200)/6-311++G(3df,2p)
 --------------------------------------

 -------------
 ccsd(t) iener
 -------------
 Symbolic Z-matrix:
 Charge = -1 Multiplicity = 4

                         Standard orientation:
 ---------------------------------------------------------------------
 Center     Atomic      Atomic             Coordinates (Angstroms)
 Number     Number       Type             X           Y           Z
 ---------------------------------------------------------------------
      1          6           0        1.818533   -0.278659   -0.284188
      2          6           0       -0.666353   -0.370967    0.147149
      3          6           0        0.613579    0.424546    0.162873
      4          1           0       -0.595307   -1.383728    0.582836
      5          1           0        0.429717    1.343249   -0.408879
      6          1           0        2.874232   -0.208550   -0.027014
      7          1           0        0.832000    0.776873    1.214497
      8          8           0       -1.766899    0.102830   -0.189555
 ---------------------------------------------------------------------

 SCF Done:  E(UHF) =  -190.685124439     A.U. after   38 cycles
 E2 =    -0.6892709809D+00 EUMP2 =    -0.19137439541946D+03
 CCSD(T)
 CCSD(T)= -0.19143873991D+03

 The electronic state is 4-A.
 Alpha  occ. eigenvalues --  -20.29307 -11.09929 -11.06232 -11.05908  -1.12943
 Alpha  occ. eigenvalues --   -0.89027  -0.70448  -0.58261  -0.44828  -0.44469
 Alpha  occ. eigenvalues --   -0.39944  -0.36418  -0.33359  -0.25556  -0.21229
 Alpha  occ. eigenvalues --   -0.18329   0.02106
 Alpha virt. eigenvalues --    0.14711   0.17224   0.17721   0.18525   0.24562
 Alpha virt. eigenvalues --    0.24756   0.26245   0.27686   0.28342   0.29995
 Alpha virt. eigenvalues --    0.30609   0.31127   0.32540   0.34424   0.35020

  Beta  occ. eigenvalues --  -20.27896 -11.06492 -11.05138 -11.05003  -1.09487
  Beta  occ. eigenvalues --   -0.83295  -0.59047  -0.53153  -0.42122  -0.39640
  Beta  occ. eigenvalues --   -0.37071  -0.34138  -0.21701  -0.17729
  Beta virt. eigenvalues --    0.15231   0.17613   0.17908   0.18795   0.22567
  Beta virt. eigenvalues --    0.23503   0.24962   0.27182   0.28659   0.29868
  Beta virt. eigenvalues --    0.30465   0.31386   0.31630   0.33679   0.34901

 Mulliken charges and spin densities:
               1          2
     1  C   -0.474510   2.308343
     2  C    0.147006   0.826540
     3  C    0.792538  -1.243752
     4  H   -0.014505  -0.027769
     5  H    0.026262   0.129152
     6  H   -0.334840   0.412905
     7  H   -0.180133   0.362982
     8  O   -0.961818   0.231601
 Sum of Mulliken charges =  -1.00000   3.00000

 Dipole moment (field-independent basis, Debye):
    X=              2.5610    Y=              0.1233    Z=              0.5088  Tot=              2.6140
 Quadrupole moment (field-independent basis, Debye-Ang):
   XX=            -48.7597   YY=            -33.1766   ZZ=            -33.8403
   XY=              0.1988   XZ=             -2.4452   YZ=             -2.6732

 3\PMP3-0=-191.3959287\MP4SDQ=-191.4035925\CCSD=-191.4073531\CCSD(T)=-1
 Normal termination of Gaussian 09 at Sat Mar  9 01:38:46 2019.
