 Gaussian 09, Revision E.01,
 Gaussian 09:  EM64L-G09RevE.01 30-Nov-2015

 --------------------------------------
 #p ccsd(t,maxcyc=200)/6-311++G(3df,2p)
 --------------------------------------

 -------------
 ccsd(t) iener
 -------------
 Symbolic Z-matrix:
 Charge = -1 Multiplicity = 2

                         Standard orientation:
 ---------------------------------------------------------------------
 Center     Atomic      Atomic             Coordinates (Angstroms)
 Number     Number       Type             X           Y           Z
 ---------------------------------------------------------------------
      1          6           0       -0.768269    0.999834   -0.168225
      2          6           0        0.143008    0.029348    0.474245
      3          6           0       -1.096896   -0.509246   -0.152898
      4          1           0        1.483629    0.500808   -0.799781
      5          1           0       -1.025663   -1.061699   -1.091597
      6          1           0        0.253934   -0.035471    1.559162
      7          1           0       -1.872913   -0.916849    0.506077
      8          8           0        1.436744   -0.200801   -0.136574
 ---------------------------------------------------------------------

 SCF Done:  E(UHF) =  -190.697772602     A.U. after   21 cycles
 E2 =    -0.7267101100D+00 EUMP2 =    -0.19142448271174D+03
 CCSD(T)
 CCSD(T)= -0.19148279638D+03

 The electronic state is 2-A.
 Alpha  occ. eigenvalues --  -20.37146 -11.06617 -11.01380 -10.98155  -1.16565
 Alpha  occ. eigenvalues --   -0.90114  -0.61107  -0.56869  -0.45273  -0.41666
 Alpha  occ. eigenvalues --   -0.37547  -0.33963  -0.27721  -0.19073  -0.11357
 Alpha  occ. eigenvalues --   -0.09309
 Alpha virt. eigenvalues --    0.16755   0.17346   0.18096   0.19204   0.23185
 Alpha virt. eigenvalues --    0.26729   0.27108   0.28453   0.29368   0.30154
 Alpha virt. eigenvalues --    0.31683   0.34021   0.35323   0.36037   0.36778

  Beta  occ. eigenvalues --  -20.36894 -11.06856 -11.01610 -10.96060  -1.15751
  Beta  occ. eigenvalues --   -0.87489  -0.60928  -0.53827  -0.43781  -0.39857
  Beta  occ. eigenvalues --   -0.36083  -0.32753  -0.25691  -0.17380  -0.08676
  Beta virt. eigenvalues --    0.16782   0.17374   0.18077   0.19194   0.23098
  Beta virt. eigenvalues --    0.26676   0.27080   0.27822   0.28886   0.29720
  Beta virt. eigenvalues --    0.31596   0.32947   0.35409   0.35911   0.36420

 Mulliken charges and spin densities:
               1          2
     1  C   -0.767072   1.231523
     2  C    0.528836  -0.119616
     3  C   -0.226546  -0.271848
     4  H    0.220099  -0.004724
     5  H    0.034049   0.039758
     6  H    0.032909   0.039961
     7  H    0.004522   0.064432
     8  O   -0.826796   0.020514
 Sum of Mulliken charges =  -1.00000   1.00000

 Dipole moment (field-independent basis, Debye):
    X=              1.7490    Y=             -3.1397    Z=              0.7463  Tot=              3.6706
 Quadrupole moment (field-independent basis, Debye-Ang):
   XX=            -36.4240   YY=            -38.4906   ZZ=            -28.1966
   XY=              6.4870   XZ=             -2.3994   YZ=              1.3498

 Normal termination of Gaussian 09 at Fri Mar  8 20:58:30 2019.
