 Gaussian 09, Revision E.01,
 Gaussian 09:  EM64L-G09RevE.01 30-Nov-2015

 --------------------------------------
 #p ccsd(t,maxcyc=200)/6-311++G(3df,2p)
 --------------------------------------

 -------------
 ccsd(t) iener
 -------------
 Symbolic Z-matrix:
 Charge = -1 Multiplicity = 4

                         Standard orientation:
 ---------------------------------------------------------------------
 Center     Atomic      Atomic             Coordinates (Angstroms)
 Number     Number       Type             X           Y           Z
 ---------------------------------------------------------------------
      1          6           0       -1.959556   -0.003974    0.000577
      2          6           0        0.445805   -0.410772   -0.000639
      3          6           0       -0.665974    0.419953   -0.001050
      4          1           0        1.810236    0.966084    0.002372
      5          1           0       -0.478221    1.490887    0.000030
      6          1           0        0.356361   -1.485913   -0.000341
      7          1           0       -2.498374   -0.936084    0.001855
      8          8           0        1.736043   -0.008276    0.000344
 ---------------------------------------------------------------------

 SCF Done:  E(UHF) =  -190.717806734     A.U. after   28 cycles
 E2 =    -0.6569408634D+00 EUMP2 =    -0.19137474759740D+03
 CCSD(T)
 CCSD(T)= -0.19144621702D+03

 The electronic state is 4-A.
 Alpha  occ. eigenvalues --  -20.45431 -11.16431 -11.13510 -11.09875  -1.27293
 Alpha  occ. eigenvalues --   -0.95449  -0.80700  -0.67858  -0.57251  -0.53637
 Alpha  occ. eigenvalues --   -0.47788  -0.44287  -0.42445  -0.33273  -0.29783
 Alpha  occ. eigenvalues --   -0.18557   0.03420
 Alpha virt. eigenvalues --    0.12635   0.14691   0.17560   0.21291   0.21766
 Alpha virt. eigenvalues --    0.24597   0.25023   0.25328   0.26258   0.27584
 Alpha virt. eigenvalues --    0.28769   0.29921   0.31409   0.31660   0.34465

  Beta  occ. eigenvalues --  -20.44771 -11.14426 -11.11284 -11.09218  -1.25329
  Beta  occ. eigenvalues --   -0.92170  -0.71969  -0.63335  -0.55269  -0.51650
  Beta  occ. eigenvalues --   -0.42939  -0.41022  -0.40370  -0.27014
  Beta virt. eigenvalues --    0.12982   0.15056   0.17917   0.20574   0.20675
  Beta virt. eigenvalues --    0.21275   0.22712   0.25325   0.26177   0.28066
  Beta virt. eigenvalues --    0.28238   0.29323   0.29913   0.31080   0.31993

 Mulliken charges and spin densities:
               1          2
     1  C    1.241409   0.313556
     2  C    3.297048  -2.090933
     3  C   -1.081520   0.324402
     4  H   -0.584473   0.875973
     5  H   -2.755895   2.983021
     6  H   -0.104342   0.161709
     7  H   -0.144640   0.235052
     8  O   -0.867586   0.197222
 Sum of Mulliken charges =  -1.00000   3.00000

 Dipole moment (field-independent basis, Debye):
    X=             -3.8028    Y=            -10.1462    Z=             -0.0198  Tot=             10.8354
 Quadrupole moment (field-independent basis, Debye-Ang):
   XX=            -56.8622   YY=            -65.1031   ZZ=            -43.8701
   XY=             -4.4102   XZ=             -0.0163   YZ=             -0.0472

 \PMP3-0=-191.4094046\MP4SDQ=-191.4105165\CCSD=-191.4153966\CCSD(T)=-19
 Normal termination of Gaussian 09 at Sat Mar  9 05:00:09 2019.
