 Gaussian 09, Revision E.01,
 Gaussian 09:  EM64L-G09RevE.01 30-Nov-2015

 --------------------------------------
 #p ccsd(t,maxcyc=200)/6-311++G(3df,2p)
 --------------------------------------

 -------------
 ccsd(t) iener
 -------------
 Symbolic Z-matrix:
 Charge = -1 Multiplicity = 2

                         Standard orientation:
 ---------------------------------------------------------------------
 Center     Atomic      Atomic             Coordinates (Angstroms)
 Number     Number       Type             X           Y           Z
 ---------------------------------------------------------------------
      1          6           0        0.928252    0.446578   -0.000161
      2          6           0       -0.582010    0.653884    0.000304
      3          6           0        1.501701   -0.753107    0.000285
      4          1           0       -0.553933   -1.244942   -0.000578
      5          1           0       -0.897072    1.234447    0.882922
      6          1           0       -0.897232    1.235863   -0.881339
      7          1           0        1.501463    1.391998   -0.001515
      8          8           0       -1.280111   -0.587687   -0.000257
 ---------------------------------------------------------------------

 SCF Done:  E(UHF) =  -190.732366896     A.U. after   26 cycles
 E2 =    -0.7114347952D+00 EUMP2 =    -0.19144380169134D+03
 CCSD(T)
 CCSD(T)= -0.19150865447D+03

 The electronic state is 2-A.
 Alpha  occ. eigenvalues --  -20.37419 -11.10235 -10.99570 -10.98597  -1.17690
 Alpha  occ. eigenvalues --   -0.82735  -0.71535  -0.51405  -0.46807  -0.44707
 Alpha  occ. eigenvalues --   -0.41380  -0.31916  -0.27320  -0.20190  -0.13618
 Alpha  occ. eigenvalues --   -0.09751
 Alpha virt. eigenvalues --    0.15373   0.17497   0.17974   0.19759   0.24912
 Alpha virt. eigenvalues --    0.26140   0.26480   0.27633   0.29672   0.31209
 Alpha virt. eigenvalues --    0.31889   0.32496   0.33307   0.35033   0.36045

  Beta  occ. eigenvalues --  -20.37312 -11.09854 -11.00472 -10.96264  -1.17281
  Beta  occ. eigenvalues --   -0.81626  -0.68557  -0.48637  -0.44951  -0.44856
  Beta  occ. eigenvalues --   -0.39959  -0.30507  -0.27452  -0.14949  -0.13785
  Beta virt. eigenvalues --    0.15336   0.17508   0.17980   0.19862   0.24949
  Beta virt. eigenvalues --    0.25490   0.26455   0.27694   0.29338   0.29863
  Beta virt. eigenvalues --    0.31735   0.32166   0.33742   0.34370   0.36286

 Mulliken charges and spin densities:
               1          2
     1  C    0.105174  -0.626077
     2  C    0.401076   0.113314
     3  C   -1.018318   1.401885
     4  H    0.307399   0.025326
     5  H    0.035871  -0.012525
     6  H    0.035859  -0.012488
     7  H    0.001295   0.113786
     8  O   -0.868356  -0.003221
 Sum of Mulliken charges =  -1.00000   1.00000

 Dipole moment (field-independent basis, Debye):
    X=             -3.9736    Y=              3.6205    Z=             -0.0015  Tot=              5.3757
 Quadrupole moment (field-independent basis, Debye-Ang):
   XX=            -44.8419   YY=            -32.8042   ZZ=            -30.5203
   XY=              4.6309   XZ=             -0.0042   YZ=              0.0009

 185\PMP3-0=-191.4716365\MP4SDQ=-191.4738003\CCSD=-191.4747676\CCSD(T)=
 Normal termination of Gaussian 09 at Fri Mar  8 20:36:41 2019.
