 Gaussian 09, Revision E.01,
 Gaussian 09:  EM64L-G09RevE.01 30-Nov-2015

 --------------------------------------
 #p ccsd(t,maxcyc=200)/6-311++G(3df,2p)
 --------------------------------------

 -------------
 ccsd(t) iener
 -------------
 Symbolic Z-matrix:
 Charge = -1 Multiplicity = 2

                         Standard orientation:
 ---------------------------------------------------------------------
 Center     Atomic      Atomic             Coordinates (Angstroms)
 Number     Number       Type             X           Y           Z
 ---------------------------------------------------------------------
      1          6           0        1.860737   -0.389284   -0.308937
      2          6           0       -0.469048    0.565082   -0.215101
      3          6           0        0.856813    0.164652    0.376545
      4          1           0       -1.046882   -1.252933    0.068220
      5          1           0       -0.850051    1.503370    0.206669
      6          1           0       -0.365173    0.682391   -1.298651
      7          1           0        0.914277    0.324356    1.471148
      8          8           0       -1.517898   -0.412485    0.054697
 ---------------------------------------------------------------------

 SCF Done:  E(UHF) =  -190.732190756     A.U. after   26 cycles
 E2 =    -0.7103502790D+00 EUMP2 =    -0.19144254103487D+03
 CCSD(T)
 CCSD(T)= -0.19150662854D+03

 The electronic state is 2-A.
 Alpha  occ. eigenvalues --  -20.38846 -11.10259 -10.99285 -10.98961  -1.18032
 Alpha  occ. eigenvalues --   -0.83486  -0.70778  -0.52262  -0.49739  -0.42039
 Alpha  occ. eigenvalues --   -0.39188  -0.35358  -0.27759  -0.20190  -0.14003
 Alpha  occ. eigenvalues --   -0.08976
 Alpha virt. eigenvalues --    0.15767   0.17589   0.17937   0.19593   0.24314
 Alpha virt. eigenvalues --    0.25762   0.27233   0.27701   0.29409   0.31508
 Alpha virt. eigenvalues --    0.31960   0.32332   0.32669   0.34831   0.36187

  Beta  occ. eigenvalues --  -20.38927 -11.09881 -11.00061 -10.96649  -1.18229
  Beta  occ. eigenvalues --   -0.82248  -0.68063  -0.49862  -0.48736  -0.42284
  Beta  occ. eigenvalues --   -0.37736  -0.33713  -0.27369  -0.14969  -0.14367
  Beta virt. eigenvalues --    0.15718   0.17628   0.17979   0.19633   0.24493
  Beta virt. eigenvalues --    0.25705   0.26385   0.27770   0.28977   0.30282
  Beta virt. eigenvalues --    0.32045   0.32558   0.32896   0.34673   0.36025

 Mulliken charges and spin densities:
               1          2
     1  C   -0.984157   1.407077
     2  C    0.332787   0.071430
     3  C    0.069138  -0.596909
     4  H    0.245154   0.005894
     5  H    0.040628   0.010629
     6  H    0.079168  -0.002010
     7  H    0.011690   0.110186
     8  O   -0.794407  -0.006296
 Sum of Mulliken charges =  -1.00000   1.00000

 Dipole moment (field-independent basis, Debye):
    X=             -5.5237    Y=              1.4254    Z=              1.1386  Tot=              5.8171
 Quadrupole moment (field-independent basis, Debye-Ang):
   XX=            -52.8144   YY=            -29.0560   ZZ=            -30.9976
   XY=              3.3017   XZ=              3.8608   YZ=             -1.0092

 9\PMP3-0=-191.4694341\MP4SDQ=-191.4722638\CCSD=-191.4728146\CCSD(T)=-1
 Normal termination of Gaussian 09 at Sat Mar  9 00:06:23 2019.
