 Gaussian 09, Revision E.01,
 Gaussian 09:  EM64L-G09RevE.01 30-Nov-2015

 --------------------------------------
 #p ccsd(t,maxcyc=200)/6-311++G(3df,2p)
 --------------------------------------

 -------------
 ccsd(t) iener
 -------------
 Symbolic Z-matrix:
 Charge = -1 Multiplicity = 4

                         Standard orientation:
 ---------------------------------------------------------------------
 Center     Atomic      Atomic             Coordinates (Angstroms)
 Number     Number       Type             X           Y           Z
 ---------------------------------------------------------------------
      1          6           0        1.876108    0.032620   -0.163930
      2          6           0       -0.582194    0.392860    0.217107
      3          6           0        0.694808   -0.428504    0.144955
      4          1           0       -0.815177    0.630552    1.287722
      5          1           0       -0.458206    1.407037   -0.197461
      6          1           0        2.349681    0.952479   -0.460871
      7          1           0        0.565722   -1.472053    0.422740
      8          8           0       -1.696794   -0.187484   -0.280115
 ---------------------------------------------------------------------

 SCF Done:  E(UHF) =  -190.685185774     A.U. after   46 cycles
 E2 =    -0.6369163120D+00 EUMP2 =    -0.19132210208628D+03
 CCSD(T)
 CCSD(T)= -0.19140420945D+03

 The electronic state is 4-A.
 Alpha  occ. eigenvalues --  -20.50945 -11.17114 -11.13164 -11.10908  -1.30467
 Alpha  occ. eigenvalues --   -0.95000  -0.80153  -0.65798  -0.59856  -0.54493
 Alpha  occ. eigenvalues --   -0.52814  -0.47890  -0.39946  -0.38359  -0.28115
 Alpha  occ. eigenvalues --   -0.27168   0.03599
 Alpha virt. eigenvalues --    0.13784   0.14414   0.16991   0.20801   0.22498
 Alpha virt. eigenvalues --    0.23113   0.24765   0.24848   0.27674   0.28300
 Alpha virt. eigenvalues --    0.28454   0.30346   0.31039   0.31395   0.32533

  Beta  occ. eigenvalues --  -20.46961 -11.16934 -11.12163 -11.09714  -1.17741
  Beta  occ. eigenvalues --   -0.92187  -0.73984  -0.62218  -0.51829  -0.49003
  Beta  occ. eigenvalues --   -0.48255  -0.43090  -0.33764  -0.26443
  Beta virt. eigenvalues --    0.14245   0.16440   0.17655   0.19070   0.19741
  Beta virt. eigenvalues --    0.21497   0.22468   0.23548   0.25677   0.26475
  Beta virt. eigenvalues --    0.28729   0.29236   0.29473   0.29881   0.31448

 Mulliken charges and spin densities:
               1          2
     1  C    2.050360  -0.762167
     2  C    4.485393  -4.287159
     3  C   -2.176328   1.424795
     4  H   -0.464216   0.660158
     5  H   -1.228768   1.448611
     6  H   -2.301415   2.487017
     7  H   -0.706599   0.900197
     8  O   -0.658427   1.128550
 Sum of Mulliken charges =  -1.00000   3.00000

 Dipole moment (field-independent basis, Debye):
    X=             -5.3555    Y=             -7.0968    Z=              0.9543  Tot=              8.9418
 Quadrupole moment (field-independent basis, Debye-Ang):
   XX=            -66.3067   YY=            -62.9791   ZZ=            -49.6086
   XY=             -9.6159   XZ=              3.1369   YZ=              2.9438

 7\PMP3-0=-191.3656457\MP4SDQ=-191.3672085\CCSD=-191.3743701\CCSD(T)=-1
 Normal termination of Gaussian 09 at Sat Mar  9 02:35:44 2019.
