 Gaussian 09, Revision E.01,
 Gaussian 09:  EM64L-G09RevE.01 30-Nov-2015

 --------------------------------------
 #p ccsd(t,maxcyc=200)/6-311++G(3df,2p)
 --------------------------------------

 -------------
 ccsd(t) iener
 -------------
 Symbolic Z-matrix:
 Charge = -1 Multiplicity = 2

                         Standard orientation:
 ---------------------------------------------------------------------
 Center     Atomic      Atomic             Coordinates (Angstroms)
 Number     Number       Type             X           Y           Z
 ---------------------------------------------------------------------
      1          6           0        1.652903   -0.508771   -0.303720
      2          6           0       -0.605192   -0.023218    0.390659
      3          6           0        0.669439    0.635389    0.015845
      4          1           0       -0.561001   -0.529751    1.383217
      5          1           0        0.528169    1.312259   -0.831294
      6          1           0        1.497183   -1.312811    0.453600
      7          1           0        1.036910    1.228579    0.874541
      8          8           0       -1.600520   -0.164835   -0.312096
 ---------------------------------------------------------------------

 SCF Done:  E(UHF) =  -190.729278000     A.U. after   25 cycles
 E2 =    -0.7178683289D+00 EUMP2 =    -0.19144714632930D+03
 CCSD(T)
 CCSD(T)= -0.19150844799D+03

 The electronic state is 2-A.
 Alpha  occ. eigenvalues --  -20.37660 -11.15520 -11.04294 -10.98666  -1.20613
 Alpha  occ. eigenvalues --   -0.85526  -0.63734  -0.58738  -0.48695  -0.44396
 Alpha  occ. eigenvalues --   -0.38507  -0.35175  -0.28599  -0.25191  -0.11798
 Alpha  occ. eigenvalues --   -0.09702
 Alpha virt. eigenvalues --    0.15939   0.17150   0.18803   0.19158   0.23068
 Alpha virt. eigenvalues --    0.25206   0.26646   0.27900   0.29357   0.30121
 Alpha virt. eigenvalues --    0.31025   0.31853   0.33184   0.33987   0.34680

  Beta  occ. eigenvalues --  -20.37549 -11.15477 -11.04530 -10.96511  -1.20377
  Beta  occ. eigenvalues --   -0.84241  -0.61908  -0.53928  -0.47961  -0.43935
  Beta  occ. eigenvalues --   -0.37264  -0.34215  -0.27590  -0.24717  -0.07008
  Beta virt. eigenvalues --    0.15958   0.17174   0.18788   0.19222   0.23012
  Beta virt. eigenvalues --    0.25253   0.26543   0.27342   0.28057   0.30217
  Beta virt. eigenvalues --    0.30927   0.31466   0.32664   0.33937   0.34558

 Mulliken charges and spin densities:
               1          2
     1  C   -1.018694   1.262085
     2  C    0.614160  -0.012823
     3  C    0.073384  -0.256170
     4  H    0.060027  -0.000514
     5  H    0.065816   0.001782
     6  H    0.063491  -0.091712
     7  H    0.009309   0.077942
     8  O   -0.867493   0.019410
 Sum of Mulliken charges =  -1.00000   1.00000

 Dipole moment (field-independent basis, Debye):
    X=             -4.0705    Y=              2.3930    Z=              3.6605  Tot=              5.9745
 Quadrupole moment (field-independent basis, Debye-Ang):
   XX=            -52.5939   YY=            -30.1941   ZZ=            -31.0152
   XY=              3.5419   XZ=              3.3432   YZ=             -2.0166

 Normal termination of Gaussian 09 at Fri Mar  8 21:27:19 2019.
