 Gaussian 09, Revision E.01,
 Gaussian 09:  EM64L-G09RevE.01 30-Nov-2015

 --------------------------------------
 #p ccsd(t,maxcyc=200)/6-311++G(3df,2p)
 --------------------------------------

 -------------
 ccsd(t) iener
 -------------
 Symbolic Z-matrix:
 Charge = -1 Multiplicity = 2

                         Standard orientation:
 ---------------------------------------------------------------------
 Center     Atomic      Atomic             Coordinates (Angstroms)
 Number     Number       Type             X           Y           Z
 ---------------------------------------------------------------------
      1          6           0        1.087197   -0.653057    0.000126
      2          6           0       -0.213772    0.050513   -0.000208
      3          6           0        0.795711    0.854668   -0.000162
      4          1           0       -2.029572    0.628889    0.001218
      5          1           0        1.443681   -1.141299   -0.911282
      6          1           0        1.443614   -1.140765    0.911836
      7          1           0        1.234007    1.830062    0.000343
      8          8           0       -1.513318   -0.211204   -0.000082
 ---------------------------------------------------------------------

 SCF Done:  E(UHF) =  -190.716078940     A.U. after   34 cycles
 E2 =    -0.7280118929D+00 EUMP2 =    -0.19144409083307D+03
 CCSD(T)
 CCSD(T)= -0.19149717541D+03

 The electronic state is 2-A.
 Alpha  occ. eigenvalues --  -20.46455 -11.17527 -11.11654 -11.09511  -1.27814
 Alpha  occ. eigenvalues --   -1.02454  -0.70282  -0.66972  -0.57806  -0.50892
 Alpha  occ. eigenvalues --   -0.49535  -0.42227  -0.34942  -0.30725  -0.20624
 Alpha  occ. eigenvalues --    0.03172
 Alpha virt. eigenvalues --    0.13806   0.14479   0.15566   0.20876   0.23271
 Alpha virt. eigenvalues --    0.23578   0.23802   0.25038   0.26666   0.27485
 Alpha virt. eigenvalues --    0.29840   0.31702   0.31752   0.32166   0.33532

  Beta  occ. eigenvalues --  -20.46303 -11.17533 -11.11627 -11.09490  -1.27435
  Beta  occ. eigenvalues --   -1.02413  -0.70172  -0.66620  -0.57653  -0.50795
  Beta  occ. eigenvalues --   -0.49500  -0.42141  -0.34897  -0.30573  -0.20625
  Beta virt. eigenvalues --    0.14007   0.15799   0.15997   0.20167   0.21868
  Beta virt. eigenvalues --    0.23706   0.24339   0.24803   0.26706   0.27852
  Beta virt. eigenvalues --    0.29183   0.30503   0.32041   0.32267   0.32907

 Mulliken charges and spin densities:
               1          2
     1  C    0.370965  -0.729191
     2  C    2.956697  -2.536426
     3  C   -1.039997   1.079079
     4  H   -1.478200   1.794559
     5  H    0.006708   0.045390
     6  H    0.006802   0.045291
     7  H   -0.985243   1.219305
     8  O   -0.837732   0.081994
 Sum of Mulliken charges =  -1.00000   1.00000

 Dipole moment (field-independent basis, Debye):
    X=              8.3949    Y=             -5.9154    Z=             -0.0093  Tot=             10.2697
 Quadrupole moment (field-independent basis, Debye-Ang):
   XX=            -68.3916   YY=            -51.9611   ZZ=            -40.8372
   XY=              8.5705   XZ=              0.0205   YZ=             -0.0139

 Normal termination of Gaussian 09 at Fri Mar  8 21:26:18 2019.
