 Gaussian 09, Revision E.01,
 Gaussian 09:  EM64L-G09RevE.01 30-Nov-2015

 --------------------------------------
 #p ccsd(t,maxcyc=200)/6-311++G(3df,2p)
 --------------------------------------

 -------------
 ccsd(t) iener
 -------------
 Symbolic Z-matrix:
 Charge = -1 Multiplicity = 2

                         Standard orientation:
 ---------------------------------------------------------------------
 Center     Atomic      Atomic             Coordinates (Angstroms)
 Number     Number       Type             X           Y           Z
 ---------------------------------------------------------------------
      1          8           0       -2.202579    0.180070    0.046157
      2          6           0        1.520838   -0.646491    0.067523
      3          6           0        1.230540    0.863799    0.021159
      4          6           0        0.175315   -0.153096   -0.217758
      5          6           0       -1.129139   -0.422694   -0.012167
      6          1           0        1.767702   -1.068401    1.046322
      7          1           0        2.144204   -1.063486   -0.728613
      8          1           0        1.649859    1.438100   -0.808152
      9          1           0        1.273540    1.404118    0.968652
 ---------------------------------------------------------------------

 SCF Done:  E(UHF) =  -228.620955885     A.U. after   26 cycles
 E2 =    -0.8770441663D+00 EUMP2 =    -0.22949800005120D+03
 CCSD(T)
 CCSD(T)= -0.22956280184D+03

 The electronic state is 2-A.
 Alpha  occ. eigenvalues --  -20.32520 -11.08287 -11.05879 -11.05799 -11.00334
 Alpha  occ. eigenvalues --   -1.15611  -0.94590  -0.72008  -0.65095  -0.51874
 Alpha  occ. eigenvalues --   -0.46099  -0.44316  -0.38896  -0.34048  -0.33543
 Alpha  occ. eigenvalues --   -0.26503  -0.25113  -0.10352  -0.09102
 Alpha virt. eigenvalues --    0.15254   0.16285   0.16749   0.18573   0.22148
 Alpha virt. eigenvalues --    0.23569   0.24877   0.25843   0.27675   0.28401
 Alpha virt. eigenvalues --    0.29438   0.30493   0.31719   0.33315   0.34337

  Beta  occ. eigenvalues --  -20.30945 -11.06351 -11.05772 -11.05532 -11.00460
  Beta  occ. eigenvalues --   -1.11527  -0.94372  -0.67794  -0.64676  -0.50641
  Beta  occ. eigenvalues --   -0.46210  -0.41274  -0.34096  -0.30827  -0.28938
  Beta  occ. eigenvalues --   -0.25299  -0.21034  -0.09938
  Beta virt. eigenvalues --    0.15262   0.16271   0.16774   0.18580   0.21682
  Beta virt. eigenvalues --    0.23665   0.25054   0.25763   0.27802   0.28376
  Beta virt. eigenvalues --    0.29277   0.30168   0.31328   0.33443   0.33662

 Mulliken charges and spin densities:
               1          2
     1  O   -0.909853   0.196348
     2  C   -0.239975   0.055599
     3  C   -0.389366   0.182207
     4  C    0.225290  -0.657278
     5  C    0.112173   1.252377
     6  H    0.033434  -0.000216
     7  H    0.060979  -0.007166
     8  H    0.047310  -0.007551
     9  H    0.060008  -0.014320
 Sum of Mulliken charges =  -1.00000   1.00000

 Dipole moment (field-independent basis, Debye):
    X=              4.6240    Y=              0.3307    Z=              0.5663  Tot=              4.6702
 Quadrupole moment (field-independent basis, Debye-Ang):
   XX=            -51.5146   YY=            -36.0397   ZZ=            -34.1042
   XY=              0.3470   XZ=             -0.0292   YZ=             -0.2482

 06\CCSD=-229.5175581\CCSD(T)=-229.5628018\S2=0.784228\S2-1=0.768256\S2
 Normal termination of Gaussian 09 at Sat Mar  9 14:04:32 2019.
