 Gaussian 09, Revision E.01,
 Gaussian 09:  EM64L-G09RevE.01 30-Nov-2015

 --------------------------------------
 #p ccsd(t,maxcyc=200)/6-311++G(3df,2p)
 --------------------------------------

 -------------
 ccsd(t) iener
 -------------
 Symbolic Z-matrix:
 Charge = -1 Multiplicity = 4

                         Standard orientation:
 ---------------------------------------------------------------------
 Center     Atomic      Atomic             Coordinates (Angstroms)
 Number     Number       Type             X           Y           Z
 ---------------------------------------------------------------------
      1          6           0        1.090060    0.302287    0.000000
      2          6           0       -1.198415    0.297035    0.000000
      3          8           0        0.000000    1.129571    0.000000
      4          6           0       -0.624420   -1.071116    0.000000
      5          6           0        0.747911   -1.037743    0.000000
      6          1           0        2.053120    0.785743    0.000000
      7          1           0       -1.795507    0.547525    0.887114
      8          1           0       -1.795507    0.547525   -0.887114
      9          1           0        1.447072   -1.860144    0.000000
 ---------------------------------------------------------------------

 SCF Done:  E(UHF) =  -228.578902059     A.U. after   34 cycles
 E2 =    -0.8036241208D+00 EUMP2 =    -0.22938252618029D+03
 CCSD(T)
 CCSD(T)= -0.22946611672D+03

 The electronic state is 4-A".
 Alpha  occ. eigenvalues --  -20.46688 -11.18205 -11.16093 -11.14441 -11.09984
 Alpha  occ. eigenvalues --   -1.29929  -0.97706  -0.89326  -0.70494  -0.65043
 Alpha  occ. eigenvalues --   -0.58900  -0.56210  -0.47786  -0.44915  -0.41878
 Alpha  occ. eigenvalues --   -0.40769  -0.33577  -0.32825  -0.17626   0.03961
 Alpha virt. eigenvalues --    0.12633   0.14106   0.14901   0.19153   0.20729
 Alpha virt. eigenvalues --    0.23175   0.23739   0.24590   0.25562   0.26478
 Alpha virt. eigenvalues --    0.27423   0.28154   0.29592   0.30328   0.30513

  Beta  occ. eigenvalues --  -20.46003 -11.18385 -11.14131 -11.11262 -11.09942
  Beta  occ. eigenvalues --   -1.27742  -0.93660  -0.86341  -0.65895  -0.62239
  Beta  occ. eigenvalues --   -0.53670  -0.52801  -0.46208  -0.43425  -0.38859
  Beta  occ. eigenvalues --   -0.36881  -0.27323
  Beta virt. eigenvalues --    0.13407   0.15811   0.16018   0.17023   0.19254
  Beta virt. eigenvalues --    0.21752   0.22586   0.22988   0.24660   0.25419
  Beta virt. eigenvalues --    0.27038   0.28010   0.28615   0.29287   0.29906

 Mulliken charges and spin densities:
               1          2
     1  C    2.182786  -1.095794
     2  C    0.742214  -0.707570
     3  O   -0.945889   0.101094
     4  C    1.680137   0.344951
     5  C   -0.262596  -0.688733
     6  H   -1.329217   1.456430
     7  H   -0.217783   0.357436
     8  H   -0.217783   0.357436
     9  H   -2.631870   2.874750
 Sum of Mulliken charges =  -1.00000   3.00000

 Dipole moment (field-independent basis, Debye):
    X=             -8.6864    Y=              4.8246    Z=              0.0000  Tot=              9.9363
 Quadrupole moment (field-independent basis, Debye-Ang):
   XX=            -76.9043   YY=            -68.7168   ZZ=            -52.5521
   XY=              9.8180   XZ=             -0.0000   YZ=              0.0000

 29.4179646\MP4SDQ=-229.4204681\CCSD=-229.425527\CCSD(T)=-229.4661167\S
 Normal termination of Gaussian 09 at Sun Mar 10 00:23:31 2019.
