 Gaussian 09, Revision E.01,
 Gaussian 09:  EM64L-G09RevE.01 30-Nov-2015

 --------------------------------------
 #p ccsd(t,maxcyc=200)/6-311++G(3df,2p)
 --------------------------------------

 -------------
 ccsd(t) iener
 -------------
 Symbolic Z-matrix:
 Charge = -1 Multiplicity = 2

                         Standard orientation:
 ---------------------------------------------------------------------
 Center     Atomic      Atomic             Coordinates (Angstroms)
 Number     Number       Type             X           Y           Z
 ---------------------------------------------------------------------
      1          6           0       -0.975542   -0.381649   -0.000040
      2          6           0        2.569567   -0.170178   -0.000001
      3          8           0       -2.290826   -0.113900   -0.000048
      4          6           0        1.395270    0.107232   -0.000028
      5          6           0        0.036082    0.502466    0.000044
      6          1           0       -0.786240   -1.446768    0.000252
      7          1           0       -2.463020    0.850615    0.000343
      8          1           0        3.605733   -0.405297    0.000039
      9          1           0       -0.182126    1.565424   -0.000103
 ---------------------------------------------------------------------

 SCF Done:  E(UHF) =  -228.619126723     A.U. after   47 cycles
 E2 =    -0.8621164379D+00 EUMP2 =    -0.22948124316129D+03
 CCSD(T)
 CCSD(T)= -0.22954719550D+03

 The electronic state is 2-A.
 Alpha  occ. eigenvalues --  -20.46998 -11.19607 -11.13447 -11.11226 -11.10819
 Alpha  occ. eigenvalues --   -1.28849  -0.96617  -0.88044  -0.73638  -0.63270
 Alpha  occ. eigenvalues --   -0.57822  -0.56822  -0.46933  -0.46518  -0.43017
 Alpha  occ. eigenvalues --   -0.33588  -0.28292  -0.19999   0.02845
 Alpha virt. eigenvalues --    0.11513   0.14128   0.17107   0.19503   0.20146
 Alpha virt. eigenvalues --    0.22772   0.22959   0.23679   0.24055   0.25400
 Alpha virt. eigenvalues --    0.26488   0.28336   0.29358   0.30496   0.30634

  Beta  occ. eigenvalues --  -20.46734 -11.19206 -11.13014 -11.11591 -11.11260
  Beta  occ. eigenvalues --   -1.28155  -0.96523  -0.88155  -0.73302  -0.63271
  Beta  occ. eigenvalues --   -0.57731  -0.56568  -0.46277  -0.45378  -0.42736
  Beta  occ. eigenvalues --   -0.34008  -0.28362  -0.20662
  Beta virt. eigenvalues --    0.11610   0.14272   0.18429   0.20064   0.20424
  Beta virt. eigenvalues --    0.20947   0.22930   0.23879   0.25388   0.25416
  Beta virt. eigenvalues --    0.25672   0.27270   0.28817   0.30117   0.31135

 Mulliken charges and spin densities:
               1          2
     1  C    3.427315  -3.043591
     2  C   -1.027734   0.668317
     3  O   -0.922784   0.199173
     4  C    2.699602  -2.722975
     5  C   -1.995402   1.809143
     6  H   -0.054908   0.183978
     7  H   -0.987655   1.305860
     8  H    0.102087   0.185062
     9  H   -2.240522   2.415033
 Sum of Mulliken charges =  -1.00000   1.00000

 Dipole moment (field-independent basis, Debye):
    X=              8.2047    Y=             -9.1514    Z=             -0.0007  Tot=             12.2909
 Quadrupole moment (field-independent basis, Debye-Ang):
   XX=            -72.5903   YY=            -67.1180   ZZ=            -48.8689
   XY=             15.6138   XZ=              0.0033   YZ=             -0.0019

 CSD=-229.5023619\CCSD(T)=-229.5471955\S2=0.79242\S2-1=0.783448\S2A=0.7
 Normal termination of Gaussian 09 at Sat Mar  9 13:58:25 2019.
