 Gaussian 09, Revision E.01,
 Gaussian 09:  EM64L-G09RevE.01 30-Nov-2015

 --------------------------------------
 #p ccsd(t,maxcyc=200)/6-311++G(3df,2p)
 --------------------------------------

 -------------
 ccsd(t) iener
 -------------
 Symbolic Z-matrix:
 Charge = -1 Multiplicity = 2

                         Standard orientation:
 ---------------------------------------------------------------------
 Center     Atomic      Atomic             Coordinates (Angstroms)
 Number     Number       Type             X           Y           Z
 ---------------------------------------------------------------------
      1          6           0       -1.266244    0.394988   -0.000650
      2          6           0        1.150187    0.197707    0.000513
      3          8           0       -1.549135   -0.924797    0.000056
      4          6           0        2.187440   -0.418706   -0.000491
      5          6           0       -0.045695    0.950995    0.000516
      6          1           0       -2.161484    0.999470   -0.001813
      7          1           0       -0.719795   -1.427994    0.002431
      8          1           0        3.101986   -0.958457   -0.001091
      9          1           0        0.018239    2.035450    0.000691
 ---------------------------------------------------------------------

 SCF Done:  E(UHF) =  -228.619186197     A.U. after   47 cycles
 E2 =    -0.8651823066D+00 EUMP2 =    -0.22948436850373D+03
 CCSD(T)
 CCSD(T)= -0.22954855038D+03

 The electronic state is 2-A.
 Alpha  occ. eigenvalues --  -20.49873 -11.21155 -11.13911 -11.12040 -11.11224
 Alpha  occ. eigenvalues --   -1.31552  -0.97525  -0.88881  -0.75698  -0.63756
 Alpha  occ. eigenvalues --   -0.59387  -0.57477  -0.49205  -0.48483  -0.45995
 Alpha  occ. eigenvalues --   -0.33970  -0.28118  -0.21532   0.03532
 Alpha virt. eigenvalues --    0.11476   0.13909   0.15504   0.19504   0.20700
 Alpha virt. eigenvalues --    0.22311   0.23098   0.23124   0.24018   0.24728
 Alpha virt. eigenvalues --    0.26872   0.27194   0.27906   0.29319   0.29597

  Beta  occ. eigenvalues --  -20.49829 -11.21052 -11.13998 -11.12001 -11.11196
  Beta  occ. eigenvalues --   -1.31421  -0.97569  -0.88851  -0.75626  -0.63633
  Beta  occ. eigenvalues --   -0.59346  -0.57268  -0.48876  -0.48463  -0.45963
  Beta  occ. eigenvalues --   -0.34176  -0.28137  -0.21587
  Beta virt. eigenvalues --    0.12074   0.14673   0.16303   0.18327   0.20042
  Beta virt. eigenvalues --    0.21574   0.23100   0.24186   0.24329   0.24796
  Beta virt. eigenvalues --    0.25746   0.27507   0.27529   0.28640   0.29998

 Mulliken charges and spin densities:
               1          2
     1  C    1.471928  -1.293954
     2  C    8.203325  -8.464264
     3  O   -0.808019   0.036954
     4  C    0.074868  -0.151044
     5  C   -4.882893   4.918766
     6  H   -0.044332   0.198619
     7  H   -0.009585   0.301430
     8  H   -4.414531   4.740676
     9  H   -0.590759   0.712818
 Sum of Mulliken charges =  -1.00000   1.00000

 Dipole moment (field-independent basis, Debye):
    X=            -13.5620    Y=              5.3573    Z=              0.0054  Tot=             14.5818
 Quadrupole moment (field-independent basis, Debye-Ang):
   XX=           -105.7570   YY=            -63.3337   ZZ=            -53.3875
   XY=             16.8022   XZ=              0.0201   YZ=             -0.0080

 .503749\CCSD=-229.5036435\CCSD(T)=-229.5485504\S2=0.752092\S2-1=0.7515
 Normal termination of Gaussian 09 at Sat Mar  9 21:52:01 2019.
