 Gaussian 09, Revision E.01,
 Gaussian 09:  EM64L-G09RevE.01 30-Nov-2015

 --------------------------------------
 #p ccsd(t,maxcyc=200)/6-311++G(3df,2p)
 --------------------------------------

 -------------
 ccsd(t) iener
 -------------
 Symbolic Z-matrix:
 Charge = -1 Multiplicity = 2

                         Standard orientation:
 ---------------------------------------------------------------------
 Center     Atomic      Atomic             Coordinates (Angstroms)
 Number     Number       Type             X           Y           Z
 ---------------------------------------------------------------------
      1          6           0        1.447896    0.252439   -0.001056
      2          6           0       -1.590751   -0.786086   -0.000267
      3          8           0        1.443549   -0.940373    0.000682
      4          6           0       -1.294142    0.506342    0.000682
      5          6           0        0.027055    1.136899    0.000033
      6          1           0        0.176911    1.786919   -0.868918
      7          1           0       -0.821859   -1.568611   -0.001548
      8          1           0       -2.622089   -1.139275   -0.000574
      9          1           0        0.178296    1.786392    0.869226
 ---------------------------------------------------------------------

 SCF Done:  E(UHF) =  -228.596428445     A.U. after   38 cycles
 E2 =    -0.8757013841D+00 EUMP2 =    -0.22947212982919D+03
 CCSD(T)
 CCSD(T)= -0.22954395297D+03

 The electronic state is 2-A.
 Alpha  occ. eigenvalues --  -20.40013 -11.13029 -11.06994 -11.02081 -11.01427
 Alpha  occ. eigenvalues --   -1.24051  -0.87100  -0.76088  -0.58810  -0.53207
 Alpha  occ. eigenvalues --   -0.46844  -0.41963  -0.41449  -0.38969  -0.35532
 Alpha  occ. eigenvalues --   -0.33212  -0.20100  -0.15808  -0.09730
 Alpha virt. eigenvalues --    0.16044   0.16839   0.18380   0.18883   0.21982
 Alpha virt. eigenvalues --    0.24503   0.25318   0.26904   0.27355   0.27840
 Alpha virt. eigenvalues --    0.29674   0.30312   0.32702   0.33116   0.33374

  Beta  occ. eigenvalues --  -20.38918 -11.12263 -11.06777 -11.01871 -11.00707
  Beta  occ. eigenvalues --   -1.21597  -0.84962  -0.75142  -0.55342  -0.51287
  Beta  occ. eigenvalues --   -0.41695  -0.41505  -0.39317  -0.34743  -0.34059
  Beta  occ. eigenvalues --   -0.31056  -0.16173  -0.06343
  Beta virt. eigenvalues --    0.16123   0.16763   0.18374   0.18816   0.21280
  Beta virt. eigenvalues --    0.22623   0.25536   0.27215   0.27347   0.27712
  Beta virt. eigenvalues --    0.28711   0.30023   0.30148   0.32896   0.33362

 Mulliken charges and spin densities:
               1          2
     1  C   -0.155490   0.430257
     2  C   -0.425277  -0.396993
     3  O   -0.676513   0.142275
     4  C   -0.340692   0.734082
     5  C    0.334593   0.050889
     6  H    0.063230  -0.006481
     7  H    0.070850   0.025406
     8  H    0.066076   0.026977
     9  H    0.063223  -0.006413
 Sum of Mulliken charges =  -1.00000   1.00000

 Dipole moment (field-independent basis, Debye):
    X=              1.3122    Y=             -0.0057    Z=             -0.0020  Tot=              1.3122
 Quadrupole moment (field-independent basis, Debye-Ang):
   XX=            -52.4772   YY=            -39.8332   ZZ=            -35.0038
   XY=              4.1775   XZ=              0.0110   YZ=              0.0040

 63\CCSD=-229.4958885\CCSD(T)=-229.543953\S2=0.828843\S2-1=0.793595\S2A
 Normal termination of Gaussian 09 at Sat Mar  9 14:03:37 2019.
