 Gaussian 09, Revision E.01,
 Gaussian 09:  EM64L-G09RevE.01 30-Nov-2015

 --------------------------------------
 #p ccsd(t,maxcyc=200)/6-311++G(3df,2p)
 --------------------------------------

 -------------
 ccsd(t) iener
 -------------
 Symbolic Z-matrix:
 Charge = -1 Multiplicity = 2

                         Standard orientation:
 ---------------------------------------------------------------------
 Center     Atomic      Atomic             Coordinates (Angstroms)
 Number     Number       Type             X           Y           Z
 ---------------------------------------------------------------------
      1          6           0       -1.393588    0.296480    0.078222
      2          6           0        2.207333   -0.375549    0.120889
      3          8           0       -1.770175   -0.893781   -0.026926
      4          6           0        1.088653    0.157295   -0.315741
      5          6           0       -0.080390    0.822842   -0.011351
      6          1           0       -2.160652    1.083842    0.268514
      7          1           0        2.441995   -0.456126    1.193814
      8          1           0        2.964481   -0.791994   -0.541571
      9          1           0       -0.016469    1.908118    0.062540
 ---------------------------------------------------------------------

 SCF Done:  E(UHF) =  -228.652084531     A.U. after   28 cycles
 E2 =    -0.8584381838D+00 EUMP2 =    -0.22951052271513D+03
 CCSD(T)
 CCSD(T)= -0.22958692939D+03

 The electronic state is 2-A.
 Alpha  occ. eigenvalues --  -20.30530 -11.09503 -11.06564 -11.05236 -11.02523
 Alpha  occ. eigenvalues --   -1.13645  -0.89616  -0.78671  -0.63564  -0.51363
 Alpha  occ. eigenvalues --   -0.45809  -0.44104  -0.42259  -0.36719  -0.34810
 Alpha  occ. eigenvalues --   -0.23209  -0.21201  -0.19041  -0.06029
 Alpha virt. eigenvalues --    0.15108   0.15912   0.16535   0.17689   0.22858
 Alpha virt. eigenvalues --    0.24013   0.25126   0.26152   0.27456   0.29054
 Alpha virt. eigenvalues --    0.29666   0.30627   0.31470   0.32346   0.32937

  Beta  occ. eigenvalues --  -20.29428 -11.09080 -11.06148 -11.04026 -11.03108
  Beta  occ. eigenvalues --   -1.11167  -0.86544  -0.78629  -0.61206  -0.49440
  Beta  occ. eigenvalues --   -0.45045  -0.42185  -0.40521  -0.35565  -0.28192
  Beta  occ. eigenvalues --   -0.20979  -0.19043  -0.14271
  Beta virt. eigenvalues --    0.15064   0.15944   0.16561   0.17713   0.22482
  Beta virt. eigenvalues --    0.24714   0.25206   0.26269   0.27311   0.27800
  Beta virt. eigenvalues --    0.29461   0.29931   0.31338   0.32021   0.32804

 Mulliken charges and spin densities:
               1          2
     1  C    0.238837   0.256314
     2  C   -0.597622  -0.490649
     3  O   -0.988335   0.201304
     4  C    0.269977   1.383672
     5  C   -0.121757  -0.528518
     6  H    0.006254  -0.037568
     7  H    0.034666   0.139625
     8  H    0.100739   0.042958
     9  H    0.057240   0.032863
 Sum of Mulliken charges =  -1.00000   1.00000

 Dipole moment (field-independent basis, Debye):
    X=              2.5043    Y=              2.0517    Z=              0.4829  Tot=              3.2733
 Quadrupole moment (field-independent basis, Debye-Ang):
   XX=            -47.6101   YY=            -38.5237   ZZ=            -35.9407
   XY=             -5.8197   XZ=              0.1761   YZ=              0.0588

 5\CCSD=-229.5417064\CCSD(T)=-229.5869294\S2=0.939772\S2-1=0.880864\S2A
 Normal termination of Gaussian 09 at Sat Mar  9 07:14:11 2019.
