 Gaussian 09, Revision E.01,
 Gaussian 09:  EM64L-G09RevE.01 30-Nov-2015

 --------------------------------------
 #p ccsd(t,maxcyc=200)/6-311++G(3df,2p)
 --------------------------------------

 -------------
 ccsd(t) iener
 -------------
 Symbolic Z-matrix:
 Charge = -1 Multiplicity = 4

                         Standard orientation:
 ---------------------------------------------------------------------
 Center     Atomic      Atomic             Coordinates (Angstroms)
 Number     Number       Type             X           Y           Z
 ---------------------------------------------------------------------
      1          8           0        2.273101    1.244844    0.000000
      2          6           0       -1.676808   -1.638885    0.000000
      3          6           0       -1.268619   -0.193052    0.000000
      4          6           0        0.000000    0.274340    0.000000
      5          6           0        1.157927    0.812785    0.000000
      6          1           0       -2.291001   -1.868208    0.879430
      7          1           0       -2.291001   -1.868208   -0.879430
      8          1           0       -0.819354   -2.309840    0.000000
      9          1           0       -2.058457    0.556371    0.000000
 ---------------------------------------------------------------------

 SCF Done:  E(UHF) =  -228.588948763     A.U. after   34 cycles
 E2 =    -0.8209995147D+00 EUMP2 =    -0.22940994827742D+03
 CCSD(T)
 CCSD(T)= -0.22948839302D+03

 The electronic state is 4-A".
 Alpha  occ. eigenvalues --  -20.51843 -11.23704 -11.17679 -11.13906 -11.10887
 Alpha  occ. eigenvalues --   -1.35347  -1.01187  -0.91073  -0.77832  -0.62680
 Alpha  occ. eigenvalues --   -0.56965  -0.55341  -0.54894  -0.47495  -0.46861
 Alpha  occ. eigenvalues --   -0.41652  -0.34983  -0.29834  -0.17987   0.03142
 Alpha virt. eigenvalues --    0.13830   0.15020   0.15913   0.17531   0.20526
 Alpha virt. eigenvalues --    0.20783   0.21161   0.24391   0.24623   0.25494
 Alpha virt. eigenvalues --    0.27915   0.28029   0.29264   0.30901   0.31747

  Beta  occ. eigenvalues --  -20.49249 -11.23092 -11.17206 -11.12018 -11.10891
  Beta  occ. eigenvalues --   -1.29525  -0.94560  -0.85953  -0.74311  -0.59287
  Beta  occ. eigenvalues --   -0.53984  -0.47546  -0.44681  -0.43526  -0.41538
  Beta  occ. eigenvalues --   -0.40326  -0.28559
  Beta virt. eigenvalues --    0.12712   0.14971   0.16605   0.17345   0.18863
  Beta virt. eigenvalues --    0.19014   0.21304   0.21321   0.21617   0.22082
  Beta virt. eigenvalues --    0.25992   0.26109   0.27349   0.29564   0.29720

 Mulliken charges and spin densities:
               1          2
     1  O   -0.805577   0.477933
     2  C    4.432844  -5.013737
     3  C   -2.841108   3.918540
     4  C    1.456247  -0.387470
     5  C    1.331534  -1.159048
     6  H   -0.766937   0.941990
     7  H   -0.766937   0.941990
     8  H   -0.918163   1.029797
     9  H   -2.121902   2.250006
 Sum of Mulliken charges =  -1.00000   3.00000

 Dipole moment (field-independent basis, Debye):
    X=              8.9084    Y=              3.0580    Z=              0.0000  Tot=              9.4187
 Quadrupole moment (field-independent basis, Debye-Ang):
   XX=            -89.9227   YY=            -65.1615   ZZ=            -55.7907
   XY=            -12.3736   XZ=             -0.0000   YZ=             -0.0000

 .4387496\MP4SDQ=-229.4456927\CCSD=-229.4461206\CCSD(T)=-229.488393\S2=
 Normal termination of Gaussian 09 at Fri Mar  8 10:28:06 2019.
