 Gaussian 09, Revision E.01,
 Gaussian 09:  EM64L-G09RevE.01 30-Nov-2015

 --------------------------------------
 #p ccsd(t,maxcyc=200)/6-311++G(3df,2p)
 --------------------------------------

 -------------
 ccsd(t) iener
 -------------
 Symbolic Z-matrix:
 Charge = -1 Multiplicity = 2

                         Standard orientation:
 ---------------------------------------------------------------------
 Center     Atomic      Atomic             Coordinates (Angstroms)
 Number     Number       Type             X           Y           Z
 ---------------------------------------------------------------------
      1          6           0        0.000000    1.093270    0.345154
      2          6           0       -0.000000   -1.093270    0.345154
      3          8           0        0.000000   -0.000000    1.158051
      4          6           0        0.000000   -0.715415   -0.955117
      5          6           0        0.000000    0.715415   -0.955117
      6          1           0        0.000000    2.049839    0.838717
      7          1           0       -0.000000   -2.049839    0.838717
      8          1           0        0.000000   -1.371457   -1.811137
      9          1           0        0.000000    1.371457   -1.811137
 ---------------------------------------------------------------------

 SCF Done:  E(UHF) =  -228.655977376     A.U. after   30 cycles
 E2 =    -0.8738888278D+00 EUMP2 =    -0.22952986620332D+03
 CCSD(T)
 CCSD(T)= -0.22958997411D+03

 The electronic state is 2-B2.
 Alpha  occ. eigenvalues --  -20.51152 -11.17251 -11.17247 -11.11656 -11.11557
 Alpha  occ. eigenvalues --   -1.34657  -0.97360  -0.89257  -0.69470  -0.66891
 Alpha  occ. eigenvalues --   -0.62772  -0.52246  -0.49628  -0.46525  -0.45355
 Alpha  occ. eigenvalues --   -0.42850  -0.28765  -0.20799   0.04796
 Alpha virt. eigenvalues --    0.11001   0.13787   0.14377   0.20593   0.20746
 Alpha virt. eigenvalues --    0.23000   0.24569   0.24640   0.24773   0.25691
 Alpha virt. eigenvalues --    0.25790   0.27623   0.28488   0.29015   0.29497

  Beta  occ. eigenvalues --  -20.51152 -11.17226 -11.17222 -11.11647 -11.11548
  Beta  occ. eigenvalues --   -1.34651  -0.97351  -0.89205  -0.69430  -0.66796
  Beta  occ. eigenvalues --   -0.62671  -0.52252  -0.49514  -0.46412  -0.45339
  Beta  occ. eigenvalues --   -0.42814  -0.28780  -0.20801
  Beta virt. eigenvalues --    0.14234   0.15537   0.15593   0.16510   0.21085
  Beta virt. eigenvalues --    0.21987   0.23225   0.25130   0.25696   0.25930
  Beta virt. eigenvalues --    0.26278   0.26478   0.28669   0.29013   0.29713

 Mulliken charges and spin densities:
               1          2
     1  C    1.875048  -1.772516
     2  C    1.875048  -1.772516
     3  O   -0.846729   0.068232
     4  C    0.542820  -0.622668
     5  C    0.542820  -0.622668
     6  H   -1.770264   1.960039
     7  H   -1.770264   1.960039
     8  H   -0.724239   0.901029
     9  H   -0.724239   0.901029
 Sum of Mulliken charges =  -1.00000   1.00000

 Dipole moment (field-independent basis, Debye):
    X=              0.0000    Y=              0.0000    Z=             -0.5707  Tot=              0.5707
 Quadrupole moment (field-independent basis, Debye-Ang):
   XX=            -51.3462   YY=           -104.1453   ZZ=            -56.3642
   XY=             -0.0000   XZ=              0.0000   YZ=              0.0000

 9.5461013\CCSD=-229.544398\CCSD(T)=-229.5899741\S2=0.750057\S2-1=0.749
 Normal termination of Gaussian 09 at Sat Mar  9 10:20:00 2019.
