 Gaussian 09, Revision E.01,
 Gaussian 09:  EM64L-G09RevE.01 30-Nov-2015

 --------------------------------------
 #p ccsd(t,maxcyc=200)/6-311++G(3df,2p)
 --------------------------------------

 -------------
 ccsd(t) iener
 -------------
 Symbolic Z-matrix:
 Charge = -1 Multiplicity = 4

                         Standard orientation:
 ---------------------------------------------------------------------
 Center     Atomic      Atomic             Coordinates (Angstroms)
 Number     Number       Type             X           Y           Z
 ---------------------------------------------------------------------
      1          6           0       -1.076682    0.358118    0.000000
      2          6           0        0.582684   -1.055742    0.000000
      3          8           0       -0.775592   -1.004688    0.000000
      4          6           0        1.252494    0.281560    0.000000
      5          6           0        0.000000    1.134641    0.000000
      6          1           0       -2.129898    0.586916    0.000000
      7          1           0        1.891786    0.462607    0.878963
      8          1           0        1.891786    0.462607   -0.878963
      9          1           0        0.000078    2.213913    0.000000
 ---------------------------------------------------------------------

 SCF Done:  E(UHF) =  -228.560875277     A.U. after   33 cycles
 E2 =    -0.8180644024D+00 EUMP2 =    -0.22937893967950D+03
 CCSD(T)
 CCSD(T)= -0.22945240541D+03

 The electronic state is 4-A".
 Alpha  occ. eigenvalues --  -20.48460 -11.18608 -11.16740 -11.12805 -11.10796
 Alpha  occ. eigenvalues --   -1.32708  -0.96717  -0.88491  -0.70713  -0.65339
 Alpha  occ. eigenvalues --   -0.59259  -0.55158  -0.47335  -0.45256  -0.44150
 Alpha  occ. eigenvalues --   -0.42155  -0.33490  -0.26887  -0.19127   0.03688
 Alpha virt. eigenvalues --    0.13393   0.14847   0.15584   0.18732   0.21154
 Alpha virt. eigenvalues --    0.22309   0.23453   0.24905   0.25388   0.26363
 Alpha virt. eigenvalues --    0.26968   0.28527   0.29516   0.30209   0.31374

  Beta  occ. eigenvalues --  -20.47861 -11.16970 -11.13499 -11.12848 -11.10275
  Beta  occ. eigenvalues --   -1.30303  -0.94974  -0.84002  -0.67903  -0.61191
  Beta  occ. eigenvalues --   -0.54867  -0.49236  -0.44491  -0.42474  -0.42465
  Beta  occ. eigenvalues --   -0.40385  -0.22673
  Beta virt. eigenvalues --    0.14466   0.15617   0.17278   0.17379   0.19614
  Beta virt. eigenvalues --    0.21753   0.22811   0.23947   0.24309   0.24564
  Beta virt. eigenvalues --    0.26657   0.26795   0.28079   0.29764   0.30720

 Mulliken charges and spin densities:
               1          2
     1  C    1.563530  -1.592815
     2  C   -0.146392   2.496175
     3  O   -0.818820  -0.033183
     4  C    2.385887  -2.827435
     5  C    0.130180   0.184814
     6  H   -0.704473   0.887994
     7  H   -0.374456   0.522967
     8  H   -0.374456   0.522967
     9  H   -2.661001   2.838517
 Sum of Mulliken charges =  -1.00000   3.00000

 Dipole moment (field-independent basis, Debye):
    X=             -0.2496    Y=             -9.6348    Z=             -0.0000  Tot=              9.6381
 Quadrupole moment (field-independent basis, Debye-Ang):
   XX=            -60.0921   YY=            -82.1383   ZZ=            -53.0047
   XY=             -1.2365   XZ=             -0.0000   YZ=             -0.0000

 229.4055095\MP4SDQ=-229.4109445\CCSD=-229.4117421\CCSD(T)=-229.4524054
 Normal termination of Gaussian 09 at Fri Mar  8 11:09:23 2019.
