 Gaussian 09, Revision E.01,
 Gaussian 09:  EM64L-G09RevE.01 30-Nov-2015

 --------------------------------------
 #p ccsd(t,maxcyc=200)/6-311++G(3df,2p)
 --------------------------------------

 -------------
 ccsd(t) iener
 -------------
 Symbolic Z-matrix:
 Charge = -1 Multiplicity = 4

                         Standard orientation:
 ---------------------------------------------------------------------
 Center     Atomic      Atomic             Coordinates (Angstroms)
 Number     Number       Type             X           Y           Z
 ---------------------------------------------------------------------
      1          6           0        0.810511    0.788865    0.000025
      2          6           0       -1.193887   -0.316607    0.000001
      3          8           0       -0.543838    0.990662   -0.000019
      4          6           0       -0.032202   -1.239962    0.000019
      5          6           0        1.155385   -0.549273   -0.000025
      6          1           0        1.421717    1.676545    0.000032
      7          1           0       -1.837152   -0.383564    0.887433
      8          1           0       -1.837173   -0.383608   -0.887409
      9          1           0        2.164463   -0.932803   -0.000018
 ---------------------------------------------------------------------

 SCF Done:  E(UHF) =  -228.578885774     A.U. after   35 cycles
 E2 =    -0.8036707360D+00 EUMP2 =    -0.22938255650960D+03
 CCSD(T)
 CCSD(T)= -0.22946613846D+03

 The electronic state is 4-A.
 Alpha  occ. eigenvalues --  -20.46683 -11.18207 -11.16093 -11.14462 -11.09986
 Alpha  occ. eigenvalues --   -1.29875  -0.97696  -0.89326  -0.70493  -0.65036
 Alpha  occ. eigenvalues --   -0.58880  -0.56198  -0.47744  -0.44900  -0.41876
 Alpha  occ. eigenvalues --   -0.40783  -0.33589  -0.32835  -0.17645   0.03960
 Alpha virt. eigenvalues --    0.12634   0.14109   0.14898   0.19150   0.20728
 Alpha virt. eigenvalues --    0.23173   0.23740   0.24590   0.25563   0.26480
 Alpha virt. eigenvalues --    0.27420   0.28157   0.29594   0.30331   0.30513

  Beta  occ. eigenvalues --  -20.45999 -11.18388 -11.14136 -11.11263 -11.09957
  Beta  occ. eigenvalues --   -1.27691  -0.93657  -0.86333  -0.65882  -0.62234
  Beta  occ. eigenvalues --   -0.53656  -0.52800  -0.46170  -0.43415  -0.38865
  Beta  occ. eigenvalues --   -0.36889  -0.27318
  Beta virt. eigenvalues --    0.13403   0.15806   0.16016   0.17025   0.19255
  Beta virt. eigenvalues --    0.21750   0.22581   0.22982   0.24661   0.25418
  Beta virt. eigenvalues --    0.27039   0.28014   0.28612   0.29289   0.29903

 Mulliken charges and spin densities:
               1          2
     1  C    2.182963  -1.097322
     2  C    0.736994  -0.702526
     3  O   -0.946668   0.101032
     4  C    1.683036   0.342856
     5  C   -0.260709  -0.689099
     6  H   -1.327578   1.454891
     7  H   -0.216225   0.355904
     8  H   -0.216291   0.355968
     9  H   -2.635522   2.878295
 Sum of Mulliken charges =  -1.00000   3.00000

 Dipole moment (field-independent basis, Debye):
    X=             -9.9573    Y=              0.0475    Z=             -0.0000  Tot=              9.9574
 Quadrupole moment (field-independent basis, Debye-Ang):
   XX=            -83.3342   YY=            -62.3157   ZZ=            -52.5396
   XY=              1.8328   XZ=             -0.0004   YZ=             -0.0001

 4204882\CCSD=-229.4255374\CCSD(T)=-229.4661385\S2=3.965849\S2-1=3.8972
 Normal termination of Gaussian 09 at Fri Mar  8 23:19:51 2019.
