 Gaussian 09, Revision E.01,
 Gaussian 09:  EM64L-G09RevE.01 30-Nov-2015

 --------------------------------------
 #p ccsd(t,maxcyc=200)/6-311++G(3df,2p)
 --------------------------------------

 -------------
 ccsd(t) iener
 -------------
 Symbolic Z-matrix:
 Charge = -1 Multiplicity = 2

                         Standard orientation:
 ---------------------------------------------------------------------
 Center     Atomic      Atomic             Coordinates (Angstroms)
 Number     Number       Type             X           Y           Z
 ---------------------------------------------------------------------
      1          6           0        0.917858    0.000020   -0.319526
      2          6           0       -1.520150   -0.678142   -0.016489
      3          8           0        2.103911   -0.000008    0.044139
      4          6           0       -1.520156    0.678134   -0.016445
      5          6           0       -0.257164   -0.000014    0.531022
      6          1           0        0.673785    0.000080   -1.406596
      7          1           0       -1.587297    1.425862   -0.808878
      8          1           0       -1.587273   -1.425811   -0.808979
      9          1           0       -0.052825   -0.000052    1.599963
 ---------------------------------------------------------------------

 SCF Done:  E(UHF) =  -228.592190809     A.U. after   24 cycles
 E2 =    -0.8869058404D+00 EUMP2 =    -0.22947909664991D+03
 CCSD(T)
 CCSD(T)= -0.22954323959D+03

 The electronic state is 2-A.
 Alpha  occ. eigenvalues --  -20.36250 -11.13933 -11.04934 -11.03007 -11.02865
 Alpha  occ. eigenvalues --   -1.18998  -0.95314  -0.72560  -0.58755  -0.57353
 Alpha  occ. eigenvalues --   -0.47519  -0.45863  -0.40741  -0.36978  -0.29560
 Alpha  occ. eigenvalues --   -0.24103  -0.22457  -0.21217  -0.05013
 Alpha virt. eigenvalues --    0.15357   0.16777   0.17299   0.18241   0.23312
 Alpha virt. eigenvalues --    0.24493   0.24918   0.26684   0.26752   0.29351
 Alpha virt. eigenvalues --    0.29529   0.30570   0.31083   0.31906   0.32624

  Beta  occ. eigenvalues --  -20.35562 -11.14041 -11.05007 -11.01807 -11.01653
  Beta  occ. eigenvalues --   -1.17559  -0.94296  -0.71163  -0.58547  -0.53384
  Beta  occ. eigenvalues --   -0.46762  -0.44865  -0.40022  -0.33376  -0.28427
  Beta  occ. eigenvalues --   -0.23048  -0.20349  -0.11046
  Beta virt. eigenvalues --    0.15429   0.16877   0.17328   0.18304   0.23300
  Beta virt. eigenvalues --    0.23427   0.24585   0.25576   0.27135   0.29415
  Beta virt. eigenvalues --    0.29819   0.30627   0.30850   0.31404   0.31944

 Mulliken charges and spin densities:
               1          2
     1  C    0.221755   0.002503
     2  C   -0.417922   0.474543
     3  O   -0.891782   0.144612
     4  C   -0.417917   0.474574
     5  C    0.193918  -0.170719
     6  H    0.084429  -0.016458
     7  H    0.059813   0.047909
     8  H    0.059813   0.047913
     9  H    0.107893  -0.004877
 Sum of Mulliken charges =  -1.00000   1.00000

 Dipole moment (field-independent basis, Debye):
    X=              0.8566    Y=              0.0002    Z=             -1.9431  Tot=              2.1236
 Quadrupole moment (field-independent basis, Debye-Ang):
   XX=            -57.4161   YY=            -37.1088   ZZ=            -34.4906
   XY=             -0.0001   XZ=              2.4900   YZ=             -0.0001

 71073\CCSD=-229.4959264\CCSD(T)=-229.5432396\S2=0.79571\S2-1=0.771521\
 Normal termination of Gaussian 09 at Sat Mar  9 13:41:51 2019.
