 Gaussian 09, Revision E.01,
 Gaussian 09:  EM64L-G09RevE.01 30-Nov-2015

 --------------------------------------
 #p ccsd(t,maxcyc=200)/6-311++G(3df,2p)
 --------------------------------------

 -------------
 ccsd(t) iener
 -------------
 Symbolic Z-matrix:
 Charge = -1 Multiplicity = 4

                         Standard orientation:
 ---------------------------------------------------------------------
 Center     Atomic      Atomic             Coordinates (Angstroms)
 Number     Number       Type             X           Y           Z
 ---------------------------------------------------------------------
      1          6           0        2.464347   -0.474377    0.000000
      2          6           0       -1.238673   -0.208040    0.000000
      3          8           0       -2.414354    0.374078    0.000000
      4          6           0        0.000000    0.459925    0.000000
      5          6           0        1.214148   -0.101313    0.000000
      6          1           0        3.016578   -0.650810    0.922930
      7          1           0       -1.312565   -1.296779    0.000000
      8          1           0       -0.044693    1.548600    0.000000
      9          1           0        3.016578   -0.650810   -0.922930
 ---------------------------------------------------------------------

 SCF Done:  E(UHF) =  -228.561145454     A.U. after   38 cycles
 E2 =    -0.7763349511D+00 EUMP2 =    -0.22933748040474D+03
 CCSD(T)
 CCSD(T)= -0.22943800716D+03

 The electronic state is 4-A".
 Alpha  occ. eigenvalues --  -20.55561 -11.18022 -11.13149 -11.12786 -11.10604
 Alpha  occ. eigenvalues --   -1.35980  -0.98167  -0.87810  -0.75211  -0.66671
 Alpha  occ. eigenvalues --   -0.58005  -0.56325  -0.55638  -0.50278  -0.49123
 Alpha  occ. eigenvalues --   -0.44242  -0.32033  -0.26484  -0.18250   0.03961
 Alpha virt. eigenvalues --    0.13391   0.13772   0.14936   0.19290   0.20911
 Alpha virt. eigenvalues --    0.22077   0.22432   0.23674   0.24394   0.26357
 Alpha virt. eigenvalues --    0.27170   0.27369   0.29889   0.30706   0.32006

  Beta  occ. eigenvalues --  -20.50903 -11.16245 -11.14132 -11.11733 -11.10557
  Beta  occ. eigenvalues --   -1.20750  -0.95048  -0.86917  -0.69134  -0.59352
  Beta  occ. eigenvalues --   -0.53847  -0.50917  -0.46556  -0.45530  -0.44490
  Beta  occ. eigenvalues --   -0.28520  -0.26535
  Beta virt. eigenvalues --    0.14531   0.15924   0.16403   0.17407   0.17421
  Beta virt. eigenvalues --    0.20645   0.22148   0.23407   0.23895   0.25385
  Beta virt. eigenvalues --    0.25828   0.26349   0.27349   0.27777   0.28254

 Mulliken charges and spin densities:
               1          2
     1  C    5.637861  -6.694523
     2  C    1.537689  -0.684518
     3  O   -0.533790   1.148087
     4  C   -7.760279   6.760715
     5  C    4.439652  -2.678017
     6  H   -0.640455   0.868873
     7  H   -1.291904   1.471961
     8  H   -1.748319   1.938548
     9  H   -0.640455   0.868873
 Sum of Mulliken charges =  -1.00000   3.00000

 Dipole moment (field-independent basis, Debye):
    X=             -5.7081    Y=              0.3380    Z=             -0.0000  Tot=              5.7181
 Quadrupole moment (field-independent basis, Debye-Ang):
   XX=            -77.6986   YY=            -62.7291   ZZ=            -58.6749
   XY=              1.0533   XZ=             -0.0000   YZ=              0.0000

 .3885094\MP4SDQ=-229.3873841\CCSD=-229.3974618\CCSD(T)=-229.4380072\S2
 Normal termination of Gaussian 09 at Fri Mar  8 21:28:12 2019.
