 Gaussian 09, Revision E.01,
 Gaussian 09:  EM64L-G09RevE.01 30-Nov-2015

 --------------------------------------
 #p ccsd(t,maxcyc=200)/6-311++G(3df,2p)
 --------------------------------------

 -------------
 ccsd(t) iener
 -------------
 Symbolic Z-matrix:
 Charge = -1 Multiplicity = 4

                         Standard orientation:
 ---------------------------------------------------------------------
 Center     Atomic      Atomic             Coordinates (Angstroms)
 Number     Number       Type             X           Y           Z
 ---------------------------------------------------------------------
      1          6           0       -1.343966    0.228761   -0.281368
      2          6           0        1.935444   -0.597014    0.043544
      3          8           0       -1.706234   -0.885136    0.051377
      4          6           0        1.112797    0.389075   -0.279135
      5          6           0       -0.133560    0.995382    0.190369
      6          1           0       -0.125252    1.013327    1.320137
      7          1           0        1.774188   -1.196509    0.940809
      8          1           0        2.786400   -0.871103   -0.570812
      9          1           0       -0.209750    2.038144   -0.141607
 ---------------------------------------------------------------------

 SCF Done:  E(UHF) =  -228.556123377     A.U. after   35 cycles
 E2 =    -0.8257089749D+00 EUMP2 =    -0.22938183235233D+03
 CCSD(T)
 CCSD(T)= -0.22946823233D+03

 The electronic state is 4-A.
 Alpha  occ. eigenvalues --  -20.30111 -11.10200 -11.07214 -11.06352 -11.04224
 Alpha  occ. eigenvalues --   -1.14937  -0.92767  -0.80356  -0.61019  -0.53833
 Alpha  occ. eigenvalues --   -0.47954  -0.45030  -0.41337  -0.40460  -0.34845
 Alpha  occ. eigenvalues --   -0.32599  -0.23363  -0.21793  -0.10282  -0.00934
 Alpha virt. eigenvalues --    0.14615   0.16350   0.16466   0.18939   0.22528
 Alpha virt. eigenvalues --    0.23427   0.23925   0.26345   0.27615   0.28520
 Alpha virt. eigenvalues --    0.29712   0.30436   0.30482   0.32105   0.32726

  Beta  occ. eigenvalues --  -20.27681 -11.07308 -11.07090 -11.06801 -11.00971
  Beta  occ. eigenvalues --   -1.08663  -0.87369  -0.78983  -0.53814  -0.46485
  Beta  occ. eigenvalues --   -0.43749  -0.40824  -0.37991  -0.35597  -0.22987
  Beta  occ. eigenvalues --   -0.21478  -0.21163
  Beta virt. eigenvalues --    0.14564   0.16259   0.16597   0.19097   0.21393
  Beta virt. eigenvalues --    0.23186   0.24959   0.26363   0.26719   0.27600
  Beta virt. eigenvalues --    0.29004   0.29481   0.30573   0.31741   0.32447

 Mulliken charges and spin densities:
               1          2
     1  C   -0.109827   1.831179
     2  C   -0.422824  -0.687458
     3  O   -0.881395   0.314222
     4  C    0.413517   1.343560
     5  C   -0.239393  -0.203469
     6  H   -0.013628   0.213090
     7  H    0.087572   0.102948
     8  H    0.105791   0.057374
     9  H    0.060185   0.028554
 Sum of Mulliken charges =  -1.00000   3.00000

 Dipole moment (field-independent basis, Debye):
    X=              5.0356    Y=              1.5872    Z=              0.8418  Tot=              5.3465
 Quadrupole moment (field-independent basis, Debye-Ang):
   XX=            -50.8991   YY=            -38.0170   ZZ=            -36.6183
   XY=             -4.3587   XZ=             -1.4657   YZ=             -0.2314

 64\CCSD=-229.4241982\CCSD(T)=-229.4682323\S2=3.896313\S2-1=3.847082\S2
 Normal termination of Gaussian 09 at Fri Mar  8 17:35:39 2019.
