 Gaussian 09, Revision E.01,
 Gaussian 09:  EM64L-G09RevE.01 30-Nov-2015

 --------------------------------------
 #p ccsd(t,maxcyc=200)/6-311++G(3df,2p)
 --------------------------------------

 -------------
 ccsd(t) iener
 -------------
 Symbolic Z-matrix:
 Charge = -1 Multiplicity = 2

                         Standard orientation:
 ---------------------------------------------------------------------
 Center     Atomic      Atomic             Coordinates (Angstroms)
 Number     Number       Type             X           Y           Z
 ---------------------------------------------------------------------
      1          8           0        2.338752    0.122885   -0.000000
      2          6           0       -1.876017   -1.009661    0.000000
      3          6           0        1.133254   -0.075709   -0.000000
      4          6           0       -1.352909    0.242817    0.000000
      5          6           0        0.000000    0.712356    0.000000
      6          1           0       -2.948777   -1.158635    0.000000
      7          1           0       -1.250402   -1.893159    0.000000
      8          1           0       -2.085604    1.051383    0.000000
      9          1           0        0.148802    1.798508   -0.000000
 ---------------------------------------------------------------------

 SCF Done:  E(UHF) =  -228.671500473     A.U. after   24 cycles
 E2 =    -0.8660939780D+00 EUMP2 =    -0.22953759445057D+03
 CCSD(T)
 CCSD(T)= -0.22960553144D+03

 The electronic state is 2-A'.
 Alpha  occ. eigenvalues --  -20.35035 -11.10159 -11.07515 -11.02801 -11.01093
 Alpha  occ. eigenvalues --   -1.18537  -0.89064  -0.77477  -0.62953  -0.51182
 Alpha  occ. eigenvalues --   -0.47505  -0.44309  -0.40107  -0.36193  -0.35314
 Alpha  occ. eigenvalues --   -0.32703  -0.24015  -0.12986  -0.08117
 Alpha virt. eigenvalues --    0.14665   0.16047   0.17234   0.17957   0.22466
 Alpha virt. eigenvalues --    0.24163   0.26927   0.27488   0.28158   0.28192
 Alpha virt. eigenvalues --    0.30273   0.30817   0.31582   0.32247   0.33334

  Beta  occ. eigenvalues --  -20.33500 -11.08207 -11.07261 -11.03157 -11.00954
  Beta  occ. eigenvalues --   -1.14580  -0.88454  -0.75815  -0.61085  -0.48285
  Beta  occ. eigenvalues --   -0.46444  -0.41578  -0.36558  -0.33573  -0.33102
  Beta  occ. eigenvalues --   -0.25986  -0.23964  -0.08895
  Beta virt. eigenvalues --    0.14643   0.15999   0.17113   0.18008   0.22463
  Beta virt. eigenvalues --    0.24871   0.26936   0.27543   0.27992   0.28281
  Beta virt. eigenvalues --    0.29538   0.30497   0.30783   0.31685   0.33013

 Mulliken charges and spin densities:
               1          2
     1  O   -0.849730   0.198032
     2  C   -0.590849  -0.266196
     3  C    0.204481   1.153250
     4  C    0.046967   0.315847
     5  C   -0.106445  -0.510435
     6  H    0.088214   0.016978
     7  H    0.084691   0.020673
     8  H    0.077884  -0.015667
     9  H    0.044787   0.087518
 Sum of Mulliken charges =  -1.00000   1.00000

 Dipole moment (field-independent basis, Debye):
    X=             -3.1314    Y=              0.5696    Z=              0.0000  Tot=              3.1828
 Quadrupole moment (field-independent basis, Debye-Ang):
   XX=            -53.3086   YY=            -35.2099   ZZ=            -37.2953
   XY=             -3.4781   XZ=              0.0000   YZ=             -0.0000

 CSD=-229.5599497\CCSD(T)=-229.6055314\S2=0.798614\S2-1=0.781164\S2A=0.
 Normal termination of Gaussian 09 at Sat Mar  9 18:21:49 2019.
