 Gaussian 09, Revision E.01,
 Gaussian 09:  EM64L-G09RevE.01 30-Nov-2015

 --------------------------------------
 #p ccsd(t,maxcyc=200)/6-311++G(3df,2p)
 --------------------------------------

 -------------
 ccsd(t) iener
 -------------
 Symbolic Z-matrix:
 Charge = -1 Multiplicity = 2

                         Standard orientation:
 ---------------------------------------------------------------------
 Center     Atomic      Atomic             Coordinates (Angstroms)
 Number     Number       Type             X           Y           Z
 ---------------------------------------------------------------------
      1          6           0        1.244279    1.080957    0.002007
      2          6           0        0.396698   -0.189963    0.008669
      3          8           0        1.000725   -1.310390    0.001500
      4          6           0       -0.983868   -0.025898    0.031142
      5          6           0       -2.214260    0.145137   -0.124384
      6          1           0        1.892975    1.085423   -0.882385
      7          1           0        1.903295    1.099818    0.878013
      8          1           0        0.637598    1.988573   -0.001766
      9          1           0       -3.096765    0.247906    0.489531
 ---------------------------------------------------------------------

 SCF Done:  E(UHF) =  -228.643984963     A.U. after   29 cycles
 E2 =    -0.8678895559D+00 EUMP2 =    -0.22951187451890D+03
 CCSD(T)
 CCSD(T)= -0.22958501418D+03

 The electronic state is 2-A.
 Alpha  occ. eigenvalues --  -20.30185 -11.09740 -11.05534 -11.03958 -11.03069
 Alpha  occ. eigenvalues --   -1.13016  -0.85588  -0.80324  -0.67415  -0.49668
 Alpha  occ. eigenvalues --   -0.44919  -0.42274  -0.40034  -0.36621  -0.33254
 Alpha  occ. eigenvalues --   -0.25577  -0.21043  -0.19689  -0.06432
 Alpha virt. eigenvalues --    0.15042   0.15632   0.18028   0.18207   0.22892
 Alpha virt. eigenvalues --    0.23481   0.24989   0.26324   0.27326   0.28436
 Alpha virt. eigenvalues --    0.28711   0.29816   0.31238   0.32033   0.32755

  Beta  occ. eigenvalues --  -20.28794 -11.08971 -11.05710 -11.04129 -11.01980
  Beta  occ. eigenvalues --   -1.09873  -0.84603  -0.79562  -0.63723  -0.47913
  Beta  occ. eigenvalues --   -0.44146  -0.40291  -0.39722  -0.36039  -0.25802
  Beta  occ. eigenvalues --   -0.20017  -0.18715  -0.15671
  Beta virt. eigenvalues --    0.15080   0.15700   0.17974   0.18212   0.22422
  Beta virt. eigenvalues --    0.23095   0.24697   0.26333   0.27280   0.28364
  Beta virt. eigenvalues --    0.28618   0.29545   0.30225   0.31719   0.32625

 Mulliken charges and spin densities:
               1          2
     1  C   -0.200675  -0.071723
     2  C    0.116086   0.511344
     3  O   -1.063527   0.273553
     4  C    0.398473  -0.726240
     5  C   -0.611543   0.944726
     6  H    0.064935   0.026040
     7  H    0.071197   0.019401
     8  H    0.084608   0.002517
     9  H    0.140446   0.020382
 Sum of Mulliken charges =  -1.00000   1.00000

 Dipole moment (field-independent basis, Debye):
    X=              0.6565    Y=              3.4752    Z=              0.8234  Tot=              3.6313
 Quadrupole moment (field-independent basis, Debye-Ang):
   XX=            -44.6684   YY=            -41.6708   ZZ=            -34.9400
   XY=              4.3715   XZ=             -2.7693   YZ=              0.2125

 .5392936\CCSD(T)=-229.5850142\S2=0.9022\S2-1=0.847695\S2A=0.764815\RMS
 Normal termination of Gaussian 09 at Sat Mar  9 07:52:45 2019.
