 Gaussian 09, Revision E.01,
 Gaussian 09:  EM64L-G09RevE.01 30-Nov-2015

 --------------------------------------
 #p ccsd(t,maxcyc=200)/6-311++G(3df,2p)
 --------------------------------------

 -------------
 ccsd(t) iener
 -------------
 Symbolic Z-matrix:
 Charge = -1 Multiplicity = 4

                         Standard orientation:
 ---------------------------------------------------------------------
 Center     Atomic      Atomic             Coordinates (Angstroms)
 Number     Number       Type             X           Y           Z
 ---------------------------------------------------------------------
      1          8           0        2.272243    1.246751    0.000000
      2          6           0       -1.676025   -1.640193    0.000000
      3          6           0       -1.268068   -0.194244    0.000000
      4          6           0        0.000000    0.274177    0.000000
      5          6           0        1.157304    0.813839    0.000000
      6          1           0       -2.290114   -1.869535    0.879472
      7          1           0       -2.290114   -1.869535   -0.879472
      8          1           0       -0.818504   -2.311081    0.000000
      9          1           0       -2.058472    0.554665    0.000000
 ---------------------------------------------------------------------

 SCF Done:  E(UHF) =  -228.588931300     A.U. after   33 cycles
 E2 =    -0.8210071033D+00 EUMP2 =    -0.22940993840296D+03
 CCSD(T)
 CCSD(T)= -0.22948838637D+03

 The electronic state is 4-A".
 Alpha  occ. eigenvalues --  -20.51843 -11.23702 -11.17678 -11.13905 -11.10888
 Alpha  occ. eigenvalues --   -1.35341  -1.01190  -0.91073  -0.77837  -0.62677
 Alpha  occ. eigenvalues --   -0.56964  -0.55338  -0.54893  -0.47495  -0.46863
 Alpha  occ. eigenvalues --   -0.41651  -0.34987  -0.29833  -0.17987   0.03142
 Alpha virt. eigenvalues --    0.13830   0.15020   0.15913   0.17531   0.20524
 Alpha virt. eigenvalues --    0.20783   0.21162   0.24390   0.24623   0.25493
 Alpha virt. eigenvalues --    0.27915   0.28027   0.29267   0.30901   0.31747

  Beta  occ. eigenvalues --  -20.49248 -11.23089 -11.17206 -11.12017 -11.10892
  Beta  occ. eigenvalues --   -1.29516  -0.94563  -0.85954  -0.74315  -0.59283
  Beta  occ. eigenvalues --   -0.53983  -0.47542  -0.44681  -0.43529  -0.41534
  Beta  occ. eigenvalues --   -0.40320  -0.28562
  Beta virt. eigenvalues --    0.12711   0.14971   0.16604   0.17346   0.18864
  Beta virt. eigenvalues --    0.19014   0.21304   0.21318   0.21618   0.22084
  Beta virt. eigenvalues --    0.25990   0.26108   0.27349   0.29564   0.29719

 Mulliken charges and spin densities:
               1          2
     1  O   -0.805549   0.478113
     2  C    4.433383  -5.014293
     3  C   -2.854139   3.931243
     4  C    1.460776  -0.391994
     5  C    1.339434  -1.166864
     6  H   -0.766992   0.942069
     7  H   -0.766992   0.942069
     8  H   -0.918511   1.030122
     9  H   -2.121409   2.249536
 Sum of Mulliken charges =  -1.00000   3.00000

 Dipole moment (field-independent basis, Debye):
    X=              8.9051    Y=              3.0649    Z=              0.0000  Tot=              9.4178
 Quadrupole moment (field-independent basis, Debye-Ang):
   XX=            -89.9025   YY=            -65.1820   ZZ=            -55.7899
   XY=            -12.3988   XZ=             -0.0000   YZ=             -0.0000

 29.4387396\MP4SDQ=-229.4456835\CCSD=-229.4461124\CCSD(T)=-229.4883864\
 Normal termination of Gaussian 09 at Fri Mar  8 20:58:41 2019.
