 Gaussian 09, Revision E.01,
 Gaussian 09:  EM64L-G09RevE.01 30-Nov-2015

 --------------------------------------
 #p ccsd(t,maxcyc=200)/6-311++G(3df,2p)
 --------------------------------------

 -------------
 ccsd(t) iener
 -------------
 Symbolic Z-matrix:
 Charge = -1 Multiplicity = 2

                         Standard orientation:
 ---------------------------------------------------------------------
 Center     Atomic      Atomic             Coordinates (Angstroms)
 Number     Number       Type             X           Y           Z
 ---------------------------------------------------------------------
      1          6           0        1.256023    0.228016   -0.446554
      2          6           0       -2.261017   -0.128848   -0.343616
      3          8           0        2.033164   -0.542140    0.019951
      4          6           0       -1.088664   -0.276206    0.282926
      5          6           0        0.006839    0.793081    0.211883
      6          1           0        0.325250    1.126465    1.212024
      7          1           0       -2.930322   -0.982367   -0.127232
      8          1           0       -0.768721   -1.140608    0.886251
      9          1           0       -0.370606    1.637368   -0.358490
 ---------------------------------------------------------------------

 SCF Done:  E(UHF) =  -228.604035859     A.U. after   29 cycles
 E2 =    -0.8619207712D+00 EUMP2 =    -0.22946595662994D+03
 CCSD(T)
 CCSD(T)= -0.22953713418D+03

 The electronic state is 2-A.
 Alpha  occ. eigenvalues --  -20.44149 -11.18232 -11.08297 -11.01893 -10.97922
 Alpha  occ. eigenvalues --   -1.28468  -0.89080  -0.76060  -0.61420  -0.53258
 Alpha  occ. eigenvalues --   -0.51329  -0.47897  -0.43419  -0.40078  -0.34844
 Alpha  occ. eigenvalues --   -0.30938  -0.21239  -0.13659  -0.10088
 Alpha virt. eigenvalues --    0.15751   0.17055   0.17749   0.18945   0.20192
 Alpha virt. eigenvalues --    0.23449   0.24534   0.26213   0.27173   0.28340
 Alpha virt. eigenvalues --    0.29707   0.30006   0.30816   0.31509   0.32410

  Beta  occ. eigenvalues --  -20.43010 -11.16417 -11.07766 -11.01997 -10.97809
  Beta  occ. eigenvalues --   -1.25575  -0.87399  -0.74579  -0.57466  -0.52657
  Beta  occ. eigenvalues --   -0.45678  -0.45062  -0.40027  -0.37253  -0.32911
  Beta  occ. eigenvalues --   -0.30533  -0.14635  -0.09784
  Beta virt. eigenvalues --    0.15477   0.17068   0.17754   0.18872   0.20120
  Beta virt. eigenvalues --    0.23292   0.24071   0.26016   0.26296   0.27724
  Beta virt. eigenvalues --    0.28584   0.30011   0.30775   0.31676   0.32595

 Mulliken charges and spin densities:
               1          2
     1  C    0.314982   0.886049
     2  C   -1.018793   0.075304
     3  O   -0.716378   0.128596
     4  C   -0.148889  -0.099696
     5  C    0.319720  -0.008510
     6  H    0.076703   0.020554
     7  H    0.052271  -0.001207
     8  H    0.058111   0.003012
     9  H    0.062274  -0.004102
 Sum of Mulliken charges =  -1.00000   1.00000

 Dipole moment (field-independent basis, Debye):
    X=              5.3927    Y=              0.6405    Z=              1.9898  Tot=              5.7836
 Quadrupole moment (field-independent basis, Debye-Ang):
   XX=            -62.6211   YY=            -35.6323   ZZ=            -37.7840
   XY=              5.2671   XZ=             -4.3115   YZ=              1.1269

 940973\CCSD=-229.492123\CCSD(T)=-229.5371342\S2=0.7656\S2-1=0.754948\S
 Normal termination of Gaussian 09 at Sat Mar  9 14:25:53 2019.
