 Gaussian 09, Revision E.01,
 Gaussian 09:  EM64L-G09RevE.01 30-Nov-2015

 --------------------------------------
 #p ccsd(t,maxcyc=200)/6-311++G(3df,2p)
 --------------------------------------

 -------------
 ccsd(t) iener
 -------------
 Symbolic Z-matrix:
 Charge = -1 Multiplicity = 4

                         Standard orientation:
 ---------------------------------------------------------------------
 Center     Atomic      Atomic             Coordinates (Angstroms)
 Number     Number       Type             X           Y           Z
 ---------------------------------------------------------------------
      1          8           0        2.289985   -0.593053    0.000143
      2          6           0       -2.501052   -0.157139    0.000554
      3          6           0       -1.070672    0.082914   -0.000330
      4          6           0        0.139690    0.254844   -0.000073
      5          6           0        1.494188    0.478447    0.000045
      6          1           0       -2.832500   -0.652800    0.921302
      7          1           0       -2.808251   -0.782537   -0.846979
      8          1           0       -3.050302    0.783820   -0.076746
      9          1           0        1.998250    1.441543    0.000095
 ---------------------------------------------------------------------

 SCF Done:  E(UHF) =  -228.566334816     A.U. after   39 cycles
 E2 =    -0.7858658944D+00 EUMP2 =    -0.22935220071055D+03
 CCSD(T)
 CCSD(T)= -0.22944250733D+03

 The electronic state is 4-A.
 Alpha  occ. eigenvalues --  -20.56122 -11.20174 -11.13664 -11.11118 -11.10467
 Alpha  occ. eigenvalues --   -1.35779  -0.96496  -0.88338  -0.79924  -0.66988
 Alpha  occ. eigenvalues --   -0.58251  -0.56113  -0.52030  -0.48417  -0.46909
 Alpha  occ. eigenvalues --   -0.45973  -0.33567  -0.27159  -0.20464   0.03411
 Alpha virt. eigenvalues --    0.12279   0.16064   0.16396   0.18174   0.19685
 Alpha virt. eigenvalues --    0.20307   0.23533   0.25534   0.26524   0.26815
 Alpha virt. eigenvalues --    0.28091   0.28335   0.28878   0.29189   0.30573

  Beta  occ. eigenvalues --  -20.51482 -11.18233 -11.12094 -11.11562 -11.11219
  Beta  occ. eigenvalues --   -1.20502  -0.93883  -0.86102  -0.74075  -0.58172
  Beta  occ. eigenvalues --   -0.53531  -0.49494  -0.45340  -0.44836  -0.44029
  Beta  occ. eigenvalues --   -0.28502  -0.27453
  Beta virt. eigenvalues --    0.12811   0.15692   0.16937   0.18651   0.18772
  Beta virt. eigenvalues --    0.19994   0.20494   0.21799   0.23693   0.25170
  Beta virt. eigenvalues --    0.26127   0.27789   0.28318   0.29465   0.29525

 Mulliken charges and spin densities:
               1          2
     1  O   -0.434416   1.089376
     2  C    8.022434  -8.683314
     3  C   -4.639198   5.791784
     4  C   -0.890470   0.331299
     5  C    0.482593   0.274214
     6  H   -1.083068   1.259301
     7  H   -1.071623   1.245033
     8  H   -1.283227   1.447756
     9  H   -0.103023   0.244550
 Sum of Mulliken charges =  -1.00000   3.00000

 Dipole moment (field-independent basis, Debye):
    X=             13.4431    Y=              0.9348    Z=              0.0222  Tot=             13.4756
 Quadrupole moment (field-independent basis, Debye-Ang):
   XX=           -103.2325   YY=            -55.6393   ZZ=            -54.6227
   XY=              1.6880   XZ=             -0.0774   YZ=              0.1070

 3970186\CCSD=-229.4027825\CCSD(T)=-229.4425073\S2=3.936215\S2-1=3.8683
 Normal termination of Gaussian 09 at Fri Mar  8 22:20:25 2019.
