 Gaussian 09, Revision E.01,
 Gaussian 09:  EM64L-G09RevE.01 30-Nov-2015

 --------------------------------------
 #p ccsd(t,maxcyc=200)/6-311++G(3df,2p)
 --------------------------------------

 -------------
 ccsd(t) iener
 -------------
 Symbolic Z-matrix:
 Charge = -1 Multiplicity = 4

                         Standard orientation:
 ---------------------------------------------------------------------
 Center     Atomic      Atomic             Coordinates (Angstroms)
 Number     Number       Type             X           Y           Z
 ---------------------------------------------------------------------
      1          8           0        2.055751   -0.126561   -0.013744
      2          6           0       -0.354897    0.109267   -0.007437
      3          6           0        0.895912   -0.524867   -0.000243
      4          6           0       -0.532235    1.489812    0.104040
      5          6           0       -1.597977   -0.771925   -0.002899
      6          1           0       -1.146787    2.204583   -0.437206
      7          1           0       -1.315045   -1.816084   -0.151299
      8          1           0       -2.294463   -0.490264   -0.802276
      9          1           0       -2.154536   -0.699468    0.939965
 ---------------------------------------------------------------------

 SCF Done:  E(UHF) =  -228.598375821     A.U. after   24 cycles
 E2 =    -0.8267858102D+00 EUMP2 =    -0.22942516163109D+03
 CCSD(T)
 CCSD(T)= -0.22950173400D+03

 The electronic state is 4-A.
 Alpha  occ. eigenvalues --  -20.32969 -11.07774 -11.05997 -11.05804 -11.02772
 Alpha  occ. eigenvalues --   -1.16763  -0.89467  -0.76032  -0.68853  -0.50029
 Alpha  occ. eigenvalues --   -0.44179  -0.42575  -0.40861  -0.37170  -0.35781
 Alpha  occ. eigenvalues --   -0.34090  -0.25276  -0.19929  -0.12316  -0.06121
 Alpha virt. eigenvalues --    0.14703   0.16187   0.17696   0.18302   0.22874
 Alpha virt. eigenvalues --    0.24015   0.24728   0.25553   0.26414   0.28201
 Alpha virt. eigenvalues --    0.29434   0.30758   0.31475   0.32043   0.33943

  Beta  occ. eigenvalues --  -20.30821 -11.05730 -11.05403 -11.03093 -11.01596
  Beta  occ. eigenvalues --   -1.11333  -0.86225  -0.71110  -0.57688  -0.44894
  Beta  occ. eigenvalues --   -0.41809  -0.40198  -0.36266  -0.35017  -0.28926
  Beta  occ. eigenvalues --   -0.23213  -0.13461
  Beta virt. eigenvalues --    0.14696   0.16279   0.17655   0.18274   0.22687
  Beta virt. eigenvalues --    0.22966   0.23741   0.25114   0.26445   0.27637
  Beta virt. eigenvalues --    0.28918   0.29429   0.30876   0.31420   0.32974

 Mulliken charges and spin densities:
               1          2
     1  O   -0.869024   0.290390
     2  C    0.400252  -0.925675
     3  C    0.024401   1.380643
     4  C   -0.308199   2.146676
     5  C   -0.598037   0.141494
     6  H    0.107685  -0.032665
     7  H    0.084366   0.010508
     8  H    0.080128  -0.014596
     9  H    0.078429   0.003225
 Sum of Mulliken charges =  -1.00000   3.00000

 Dipole moment (field-independent basis, Debye):
    X=             -4.3852    Y=             -0.5056    Z=             -0.5317  Tot=              4.4462
 Quadrupole moment (field-independent basis, Debye-Ang):
   XX=            -48.5307   YY=            -38.6356   ZZ=            -35.4210
   XY=              1.1243   XZ=              0.8765   YZ=             -1.3135

 583384\CCSD=-229.4595285\CCSD(T)=-229.501734\S2=3.867073\S2-1=3.815272
 Normal termination of Gaussian 09 at Fri Mar  8 12:33:05 2019.
