 Gaussian 09, Revision E.01,
 Gaussian 09:  EM64L-G09RevE.01 30-Nov-2015

 --------------------------------------
 #p ccsd(t,maxcyc=200)/6-311++G(3df,2p)
 --------------------------------------

 -------------
 ccsd(t) iener
 -------------
 Symbolic Z-matrix:
 Charge = -1 Multiplicity = 2

                         Standard orientation:
 ---------------------------------------------------------------------
 Center     Atomic      Atomic             Coordinates (Angstroms)
 Number     Number       Type             X           Y           Z
 ---------------------------------------------------------------------
      1          6           0        0.866621   -0.761205    0.000018
      2          6           0       -1.158982    0.250706    0.000007
      3          8           0       -0.466275   -1.088210   -0.000010
      4          6           0       -0.140733    1.340433   -0.000016
      5          6           0        1.057485    0.626120    0.000003
      6          1           0        1.555958   -1.593368   -0.000050
      7          1           0       -1.812051    0.249226   -0.886920
      8          1           0       -1.812001    0.249231    0.886972
      9          1           0        2.051946    1.064268    0.000006
 ---------------------------------------------------------------------

 SCF Done:  E(UHF) =  -228.609862271     A.U. after   24 cycles
 E2 =    -0.8600517693D+00 EUMP2 =    -0.22946991404060D+03
 CCSD(T)
 CCSD(T)= -0.22954705745D+03

 The electronic state is 2-A.
 Alpha  occ. eigenvalues --  -20.37840 -11.08106 -11.08070 -11.00747 -10.97074
 Alpha  occ. eigenvalues --   -1.19520  -0.84770  -0.78652  -0.60376  -0.54062
 Alpha  occ. eigenvalues --   -0.48012  -0.46090  -0.38316  -0.33185  -0.32220
 Alpha  occ. eigenvalues --   -0.29522  -0.20301  -0.12407  -0.05423
 Alpha virt. eigenvalues --    0.14858   0.16751   0.16842   0.18630   0.23932
 Alpha virt. eigenvalues --    0.24031   0.26683   0.27294   0.28378   0.28686
 Alpha virt. eigenvalues --    0.30406   0.30974   0.31465   0.32231   0.33522

  Beta  occ. eigenvalues --  -20.37338 -11.08362 -11.06236 -11.01926 -10.95585
  Beta  occ. eigenvalues --   -1.18065  -0.83849  -0.76591  -0.57316  -0.53454
  Beta  occ. eigenvalues --   -0.46801  -0.43030  -0.37712  -0.32083  -0.28949
  Beta  occ. eigenvalues --   -0.28404  -0.16960  -0.09035
  Beta virt. eigenvalues --    0.14907   0.16744   0.16876   0.18609   0.24001
  Beta virt. eigenvalues --    0.24088   0.25516   0.27363   0.28388   0.28707
  Beta virt. eigenvalues --    0.30526   0.30633   0.31517   0.32421   0.33452

 Mulliken charges and spin densities:
               1          2
     1  C    0.060921   1.102764
     2  C    0.324784  -0.250967
     3  O   -0.973781   0.026348
     4  C   -0.712876   1.068309
     5  C    0.057740  -0.993376
     6  H    0.141865  -0.089299
     7  H    0.025457   0.053203
     8  H    0.025453   0.053211
     9  H    0.050437   0.029808
 Sum of Mulliken charges =  -1.00000   1.00000

 Dipole moment (field-independent basis, Debye):
    X=              0.5096    Y=             -4.2192    Z=             -0.0000  Tot=              4.2499
 Quadrupole moment (field-independent basis, Debye-Ang):
   XX=            -34.4389   YY=            -50.8095   ZZ=            -36.0317
   XY=              0.0277   XZ=             -0.0002   YZ=              0.0003

 02196\CCSD=-229.5022396\CCSD(T)=-229.5470575\S2=0.917773\S2-1=0.860478
 Normal termination of Gaussian 09 at Sat Mar  9 13:02:43 2019.
