 Gaussian 09, Revision E.01,
 Gaussian 09:  EM64L-G09RevE.01 30-Nov-2015

 --------------------------------------
 #p ccsd(t,maxcyc=200)/6-311++G(3df,2p)
 --------------------------------------

 -------------
 ccsd(t) iener
 -------------
 Symbolic Z-matrix:
 Charge = -1 Multiplicity = 2

                         Standard orientation:
 ---------------------------------------------------------------------
 Center     Atomic      Atomic             Coordinates (Angstroms)
 Number     Number       Type             X           Y           Z
 ---------------------------------------------------------------------
      1          6           0       -0.665233   -0.018077    0.000005
      2          1           0        1.136759   -0.763110   -0.000038
      3          1           0       -1.025474   -0.550774    0.887542
      4          1           0       -1.092105    0.985342   -0.000484
      5          1           0       -1.025360   -0.551525   -0.887129
      6          8           0        0.749697    0.123566    0.000010
 ---------------------------------------------------------------------

 SCF Done:  E(UHF) =  -115.049609363     A.U. after   26 cycles
 E2 =    -0.4319048185D+00 EUMP2 =    -0.11548151418142D+03
 CCSD(T)
 CCSD(T)= -0.11551698083D+03

 The electronic state is 2-A.
 Alpha  occ. eigenvalues --  -20.41520 -11.12166  -1.21213  -0.77909  -0.54614
 Alpha  occ. eigenvalues --   -0.47105  -0.45020  -0.35960  -0.30511   0.03785
 Alpha virt. eigenvalues --    0.15510   0.16848   0.17628   0.23794   0.26658
 Alpha virt. eigenvalues --    0.27129   0.30046   0.39885   0.40365   0.41722
 Alpha virt. eigenvalues --    0.42517   0.43162   0.45040   0.47558   0.49502

  Beta  occ. eigenvalues --  -20.41480 -11.12053  -1.21117  -0.77559  -0.54384
  Beta  occ. eigenvalues --   -0.47088  -0.44876  -0.35931  -0.30502
  Beta virt. eigenvalues --    0.16436   0.18403   0.20255   0.20391   0.25047
  Beta virt. eigenvalues --    0.28007   0.28705   0.31359   0.40704   0.40946
  Beta virt. eigenvalues --    0.42354   0.43232   0.43982   0.45482   0.48356

 Mulliken charges and spin densities:
               1          2
     1  C    3.563061  -3.392509
     2  H   -0.423461   0.652482
     3  H   -1.272168   1.380763
     4  H   -0.677065   0.761321
     5  H   -1.272907   1.381538
     6  O   -0.917460   0.216405
 Sum of Mulliken charges =  -1.00000   1.00000

 Dipole moment (field-independent basis, Debye):
    X=              2.9302    Y=              3.5031    Z=              0.0013  Tot=              4.5670
 Quadrupole moment (field-independent basis, Debye-Ang):
   XX=            -41.7416   YY=            -38.2551   ZZ=            -38.8541
   XY=             -2.4897   XZ=             -0.0009   YZ=             -0.0040

 \CCSD(T)=-115.5169808\S2=0.750215\S2-1=0.749986\S2A=0.75\RMSD=4.178e-0
 Normal termination of Gaussian 09 at Fri Mar  8 17:43:23 2019.
