 Gaussian 09, Revision E.01,
 Gaussian 09:  EM64L-G09RevE.01 30-Nov-2015

 --------------------------------------
 #p ccsd(t,maxcyc=200)/6-311++G(3df,2p)
 --------------------------------------

 -------------
 ccsd(t) iener
 -------------
 Symbolic Z-matrix:
 Charge = -1 Multiplicity = 3

                         Standard orientation:
 ---------------------------------------------------------------------
 Center     Atomic      Atomic             Coordinates (Angstroms)
 Number     Number       Type             X           Y           Z
 ---------------------------------------------------------------------
      1          6           0        0.000000    0.000000    0.162395
      2          1           0        0.000000    0.000000   -0.974373
 ---------------------------------------------------------------------

 SCF Done:  E(UHF) =  -38.2964929405     A.U. after   15 cycles
 E2 =    -0.1284590867D+00 EUMP2 =    -0.38424952027218D+02
 CCSD(T)
 CCSD(T)= -0.38449431845D+02

 The electronic state is 3-SG.
 Alpha  occ. eigenvalues --  -10.96873  -0.58155  -0.15800  -0.07775  -0.07775
 Alpha virt. eigenvalues --    0.19418   0.30424   0.30828   0.30828   0.35076
 Alpha virt. eigenvalues --    0.47639   0.69249   0.69249   0.69613   0.69613
 Alpha virt. eigenvalues --    0.74603   0.97316   0.97316   0.99334   1.03931

  Beta  occ. eigenvalues --  -10.93320  -0.41919  -0.08692
  Beta virt. eigenvalues --    0.19667   0.27156   0.27156   0.31097   0.37085
  Beta virt. eigenvalues --    0.48187   0.48187   0.49103   0.72716   0.72716
  Beta virt. eigenvalues --    0.76139   0.76139   0.77155   1.02048   1.06089

 Mulliken charges and spin densities:
               1          2
     1  C   -0.981469   2.110337
     2  H   -0.018531  -0.110337
 Sum of Mulliken charges =  -1.00000   2.00000

 Dipole moment (field-independent basis, Debye):
    X=              0.0000    Y=              0.0000    Z=             -1.8509  Tot=              1.8509
 Quadrupole moment (field-independent basis, Debye-Ang):
   XX=            -12.3748   YY=            -12.3748   ZZ=            -13.1551
   XY=              0.0000   XZ=              0.0000   YZ=              0.0000

 97\MP4SDQ=-38.4430616\CCSD=-38.4437437\CCSD(T)=-38.4494318\S2=2.022975
 Normal termination of Gaussian 09 at Tue Mar 12 00:50:31 2019.
