 Gaussian 09, Revision E.01,
 Gaussian 09:  EM64L-G09RevE.01 30-Nov-2015

 --------------------------------------
 #p ccsd(t,maxcyc=200)/6-311++G(3df,2p)
 --------------------------------------

 -------------
 ccsd(t) iener
 -------------
 Symbolic Z-matrix:
 Charge = -1 Multiplicity = 1

                         Standard orientation:
 ---------------------------------------------------------------------
 Center     Atomic      Atomic             Coordinates (Angstroms)
 Number     Number       Type             X           Y           Z
 ---------------------------------------------------------------------
      1          6           0        0.000000    0.000000    0.161521
      2          1           0        0.000000    0.000000   -0.969125
 ---------------------------------------------------------------------

 SCF Done:  E(RHF) =  -38.2293564891     A.U. after   11 cycles
 E2 =    -0.1472067584D+00 EUMP2 =    -0.38376563247438D+02
 CCSD(T)
 CCSD(T)= -0.38407931435D+02

 Unable to determine electronic state:  an orbital has unidentified symmetry.
 Alpha  occ. eigenvalues --  -11.00371  -0.52886  -0.15800  -0.01364
 Alpha virt. eigenvalues --    0.19244   0.24499   0.30116   0.32785   0.35331
 Alpha virt. eigenvalues --    0.39530   0.47152   0.69065   0.70157   0.71394
 Alpha virt. eigenvalues --    0.71482   0.74498   0.98500   1.00627   1.00956

 Mulliken charges:
               1
     1  C   -1.031739
     2  H    0.031739
 Sum of Mulliken charges =  -1.00000

 Dipole moment (field-independent basis, Debye):
    X=              0.0000    Y=              0.0000    Z=             -1.8593  Tot=              1.8593
 Quadrupole moment (field-independent basis, Debye-Ang):
   XX=             -9.8446   YY=            -18.9119   ZZ=            -13.2433
   XY=              0.0000   XZ=              0.0000   YZ=              0.0000

 64398\MP4SDQ=-38.39759\CCSD=-38.3998625\CCSD(T)=-38.4079314\RMSD=5.183
 Normal termination of Gaussian 09 at Tue Mar 12 00:50:28 2019.
