 Gaussian 09, Revision E.01,
 Gaussian 09:  EM64L-G09RevE.01 30-Nov-2015

 --------------------------------------
 #p ccsd(t,maxcyc=200)/6-311++G(3df,2p)
 --------------------------------------

 -------------
 ccsd(t) iener
 -------------
 Symbolic Z-matrix:
 Charge = -1 Multiplicity = 1

                         Standard orientation:
 ---------------------------------------------------------------------
 Center     Atomic      Atomic             Coordinates (Angstroms)
 Number     Number       Type             X           Y           Z
 ---------------------------------------------------------------------
      1          1           0        0.000000    0.000000   -1.557259
      2          6           0        0.000000    0.000000   -0.489627
      3          6           0        0.000000    0.000000    0.749171
 ---------------------------------------------------------------------

 SCF Done:  E(RHF) =  -76.2321722851     A.U. after   12 cycles
 E2 =    -0.3141906982D+00 EUMP2 =    -0.76546362983343D+02
 CCSD(T)
 CCSD(T)= -0.76573492790D+02

 The electronic state is 1-SG.
 Alpha  occ. eigenvalues --  -10.96351 -10.95746  -0.74181  -0.47643  -0.16914
 Alpha  occ. eigenvalues --   -0.12762  -0.12762
 Alpha virt. eigenvalues --    0.15855   0.25974   0.28112   0.28112   0.29982
 Alpha virt. eigenvalues --    0.29982   0.30810   0.32990   0.37019   0.48823
 Alpha virt. eigenvalues --    0.48823   0.52716   0.66120   0.66461   0.66461

 Mulliken charges:
               1
     1  H    0.194367
     2  C   -0.186970
     3  C   -1.007398
 Sum of Mulliken charges =  -1.00000

 Dipole moment (field-independent basis, Debye):
    X=              0.0000    Y=              0.0000    Z=             -3.4168  Tot=              3.4168
 Quadrupole moment (field-independent basis, Debye-Ang):
   XX=            -18.0146   YY=            -18.0146   ZZ=            -19.2567
   XY=              0.0000   XZ=              0.0000   YZ=              0.0000

 \CCSD(T)=-76.5734928\RMSD=2.672e-09\PG=C*V [C*(H1C1C1)]\\@
 Normal termination of Gaussian 09 at Tue Mar 12 00:40:21 2019.
