 Gaussian 09, Revision E.01,
 Gaussian 09:  EM64L-G09RevE.01 30-Nov-2015

 --------------------------------------
 #p ccsd(t,maxcyc=200)/6-311++G(3df,2p)
 --------------------------------------

 -------------
 ccsd(t) iener
 -------------
 Symbolic Z-matrix:
 Charge = -1 Multiplicity = 3

                         Standard orientation:
 ---------------------------------------------------------------------
 Center     Atomic      Atomic             Coordinates (Angstroms)
 Number     Number       Type             X           Y           Z
 ---------------------------------------------------------------------
      1          1           0        0.000000    0.000000   -1.535790
      2          6           0        0.000000    0.000000   -0.472542
      3          6           0        0.000000    0.000000    0.728506
 ---------------------------------------------------------------------

 SCF Done:  E(UHF) =  -76.1356742743     A.U. after   26 cycles
 E2 =    -0.2472380471D+00 EUMP2 =    -0.76382912321428D+02
 CCSD(T)
 CCSD(T)= -0.76430104887D+02

 The electronic state is 3-SG.
 Alpha  occ. eigenvalues --  -11.16289 -11.10453  -0.92653  -0.60193  -0.48205
 Alpha  occ. eigenvalues --   -0.31910  -0.31910   0.03847
 Alpha virt. eigenvalues --    0.17725   0.22722   0.22722   0.23102   0.23102
 Alpha virt. eigenvalues --    0.25170   0.30540   0.32035   0.36812   0.36812
 Alpha virt. eigenvalues --    0.49812   0.55886   0.55886   0.57959   0.65218

  Beta  occ. eigenvalues --  -11.11903 -11.10978  -0.88961  -0.58228  -0.29191
  Beta  occ. eigenvalues --   -0.29191
  Beta virt. eigenvalues --    0.12271   0.19319   0.22015   0.22668   0.22668
  Beta virt. eigenvalues --    0.26634   0.26634   0.27780   0.33222   0.34293
  Beta virt. eigenvalues --    0.40175   0.40175   0.49888   0.56260   0.56260

 Mulliken charges and spin densities:
               1          2
     1  H   -5.217302   5.639663
     2  C   -2.184405   0.983609
     3  C    6.401708  -4.623272
 Sum of Mulliken charges =  -1.00000   2.00000

 Dipole moment (field-independent basis, Debye):
    X=              0.0000    Y=              0.0000    Z=             12.0585  Tot=             12.0585
 Quadrupole moment (field-independent basis, Debye-Ang):
   XX=            -32.0831   YY=            -32.0831   ZZ=            -63.1172
   XY=              0.0000   XZ=              0.0000   YZ=              0.0000

 558\PMP3-0=-76.4082698\MP4SDQ=-76.4036751\CCSD=-76.4148364\CCSD(T)=-76
 Normal termination of Gaussian 09 at Tue Mar 12 00:40:34 2019.
