 Gaussian 09, Revision E.01,
 Gaussian 09:  EM64L-G09RevE.01 30-Nov-2015

 --------------------------------------
 #p ccsd(t,maxcyc=200)/6-311++G(3df,2p)
 --------------------------------------

 -------------
 ccsd(t) iener
 -------------
 Symbolic Z-matrix:
 Charge = -1 Multiplicity = 1

                         Standard orientation:
 ---------------------------------------------------------------------
 Center     Atomic      Atomic             Coordinates (Angstroms)
 Number     Number       Type             X           Y           Z
 ---------------------------------------------------------------------
      1          1           0        0.000000   -0.000000    1.005323
      2          6           0        0.000000    0.636314   -0.083777
      3          6           0       -0.000000   -0.636314   -0.083777
 ---------------------------------------------------------------------

 SCF Done:  E(RHF) =  -76.1985439318     A.U. after   12 cycles
 E2 =    -0.3107981612D+00 EUMP2 =    -0.76509342093053D+02
 CCSD(T)
 CCSD(T)= -0.76538606405D+02

 The electronic state is 1-A1.
 Alpha  occ. eigenvalues --  -10.98349 -10.98086  -0.82340  -0.28416  -0.26826
 Alpha  occ. eigenvalues --   -0.15307  -0.14542
 Alpha virt. eigenvalues --    0.19555   0.24945   0.26986   0.28425   0.28897
 Alpha virt. eigenvalues --    0.29215   0.29970   0.36515   0.37110   0.45239
 Alpha virt. eigenvalues --    0.46720   0.48327   0.63082   0.66844   0.72196

 Mulliken charges:
               1
     1  H    0.064018
     2  C   -0.532009
     3  C   -0.532009
 Sum of Mulliken charges =  -1.00000

 Dipole moment (field-independent basis, Debye):
    X=              0.0000    Y=              0.0000    Z=              0.9215  Tot=              0.9215
 Quadrupole moment (field-independent basis, Debye-Ang):
   XX=            -18.4233   YY=            -23.9224   ZZ=            -15.4521
   XY=             -0.0000   XZ=             -0.0000   YZ=             -0.0000

 CSD=-76.5196713\CCSD(T)=-76.5386064\RMSD=2.961e-09\PG=C02V [C2(H1),SGV
 Normal termination of Gaussian 09 at Tue Mar 12 00:40:20 2019.
