 Gaussian 09, Revision E.01,
 Gaussian 09:  EM64L-G09RevE.01 30-Nov-2015

 --------------------------------------
 #p ccsd(t,maxcyc=200)/6-311++G(3df,2p)
 --------------------------------------

 -------------
 ccsd(t) iener
 -------------
 Symbolic Z-matrix:
 Charge = -1 Multiplicity = 3

                         Standard orientation:
 ---------------------------------------------------------------------
 Center     Atomic      Atomic             Coordinates (Angstroms)
 Number     Number       Type             X           Y           Z
 ---------------------------------------------------------------------
      1          1           0       -0.899743    1.167631    0.000000
      2          6           0        0.074979   -0.768714    0.000000
      3          6           0        0.074979    0.574109    0.000000
 ---------------------------------------------------------------------

 SCF Done:  E(UHF) =  -76.1197032098     A.U. after   25 cycles
 E2 =    -0.2655869150D+00 EUMP2 =    -0.76385290124794D+02
 CCSD(T)
 CCSD(T)= -0.76431677311D+02

 The electronic state is 3-A'.
 Alpha  occ. eigenvalues --  -11.02158 -10.98696  -0.78452  -0.46599  -0.28746
 Alpha  occ. eigenvalues --   -0.20185  -0.14717  -0.02980
 Alpha virt. eigenvalues --    0.18101   0.25069   0.27629   0.28211   0.29172
 Alpha virt. eigenvalues --    0.30245   0.31289   0.35549   0.36313   0.44930
 Alpha virt. eigenvalues --    0.45566   0.63052   0.66338   0.68761   0.74037

  Beta  occ. eigenvalues --  -10.99886 -10.96772  -0.68263  -0.38765  -0.14919
  Beta  occ. eigenvalues --   -0.10936
  Beta virt. eigenvalues --    0.18227   0.22519   0.25777   0.28268   0.28879
  Beta virt. eigenvalues --    0.29753   0.30495   0.34206   0.36699   0.36961
  Beta virt. eigenvalues --    0.44423   0.47345   0.52699   0.65571   0.69719

 Mulliken charges and spin densities:
               1          2
     1  H   -0.019036   0.143267
     2  C   -0.762178   0.947106
     3  C   -0.218787   0.909626
 Sum of Mulliken charges =  -1.00000   2.00000

 Dipole moment (field-independent basis, Debye):
    X=             -0.1253    Y=              2.5844    Z=              0.0000  Tot=              2.5874
 Quadrupole moment (field-independent basis, Debye-Ang):
   XX=            -17.5516   YY=            -23.1245   ZZ=            -18.5276
   XY=             -0.7867   XZ=              0.0000   YZ=              0.0000

 145291\CCSD(T)=-76.4316773\S2=2.031661\S2-1=2.016989\S2A=2.000428\RMSD
 Normal termination of Gaussian 09 at Tue Mar 12 00:50:18 2019.
