 Gaussian 09, Revision E.01,
 Gaussian 09:  EM64L-G09RevE.01 30-Nov-2015

 --------------------------------------
 #p ccsd(t,maxcyc=200)/6-311++G(3df,2p)
 --------------------------------------

 -------------
 ccsd(t) iener
 -------------
 Symbolic Z-matrix:
 Charge = -1 Multiplicity = 1

                         Standard orientation:
 ---------------------------------------------------------------------
 Center     Atomic      Atomic             Coordinates (Angstroms)
 Number     Number       Type             X           Y           Z
 ---------------------------------------------------------------------
      1          1           0        0.000000    0.000000    1.557164
      2          6           0       -0.000000   -0.000000   -0.749141
      3          6           0        0.000000    0.000000    0.489613
 ---------------------------------------------------------------------

 SCF Done:  E(RHF) =  -76.2321756990     A.U. after   12 cycles
 E2 =    -0.3141851042D+00 EUMP2 =    -0.76546360803159D+02
 CCSD(T)
 CCSD(T)= -0.76573490373D+02

 The electronic state is 1-SG.
 Alpha  occ. eigenvalues --  -10.96349 -10.95743  -0.74182  -0.47645  -0.16913
 Alpha  occ. eigenvalues --   -0.12763  -0.12763
 Alpha virt. eigenvalues --    0.15855   0.25974   0.28112   0.28112   0.29982
 Alpha virt. eigenvalues --    0.29982   0.30811   0.32990   0.37019   0.48824
 Alpha virt. eigenvalues --    0.48824   0.52718   0.66120   0.66462   0.66462

 Mulliken charges:
               1
     1  H    0.194412
     2  C   -1.007538
     3  C   -0.186874
 Sum of Mulliken charges =  -1.00000

 Dipole moment (field-independent basis, Debye):
    X=              0.0000    Y=              0.0000    Z=              3.4170  Tot=              3.4170
 Quadrupole moment (field-independent basis, Debye-Ang):
   XX=            -18.0142   YY=            -18.0142   ZZ=            -19.2566
   XY=              0.0000   XZ=             -0.0000   YZ=             -0.0000

 5875\CCSD=-76.554271\CCSD(T)=-76.5734904\RMSD=2.663e-09\PG=C*V [C*(C1C
 Normal termination of Gaussian 09 at Tue Mar 12 00:40:24 2019.
