 Gaussian 09, Revision E.01,
 Gaussian 09:  EM64L-G09RevE.01 30-Nov-2015

 --------------------------------------
 #p ccsd(t,maxcyc=200)/6-311++G(3df,2p)
 --------------------------------------

 -------------
 ccsd(t) iener
 -------------
 Symbolic Z-matrix:
 Charge = -1 Multiplicity = 1

                         Standard orientation:
 ---------------------------------------------------------------------
 Center     Atomic      Atomic             Coordinates (Angstroms)
 Number     Number       Type             X           Y           Z
 ---------------------------------------------------------------------
      1          6           0       -0.105669    0.787344    0.040860
      2          6           0        0.878057   -0.202967   -0.181374
      3          1           0        1.353114   -0.502348    0.767262
      4          8           0       -0.748430   -0.375489    0.009478
 ---------------------------------------------------------------------

 SCF Done:  E(RHF) =  -151.046482167     A.U. after   17 cycles
 E2 =    -0.5523117562D+00 EUMP2 =    -0.15159879392298D+03
 CCSD(T)
 CCSD(T)= -0.15163876345D+03

 The electronic state is 1-A.
 Alpha  occ. eigenvalues --  -20.34963 -11.06490 -11.01830  -1.17005  -0.69083
 Alpha  occ. eigenvalues --   -0.49969  -0.37805  -0.31693  -0.28484  -0.12941
 Alpha  occ. eigenvalues --   -0.11256
 Alpha virt. eigenvalues --    0.17748   0.24303   0.24856   0.26546   0.27303
 Alpha virt. eigenvalues --    0.28563   0.29827   0.33995   0.35343   0.38925
 Alpha virt. eigenvalues --    0.43215   0.46124   0.47373   0.50401   0.54385

 Mulliken charges:
               1
     1  C   -0.087318
     2  C   -0.267589
     3  H    0.039958
     4  O   -0.685051
 Sum of Mulliken charges =  -1.00000

 Dipole moment (field-independent basis, Debye):
    X=             -0.0723    Y=             -0.6061    Z=              1.5319  Tot=              1.6490
 Quadrupole moment (field-independent basis, Debye-Ang):
   XX=            -25.3007   YY=            -26.4962   ZZ=            -22.1486
   XY=              1.1725   XZ=              2.9530   YZ=             -1.5573

 -151.6074265\CCSD(T)=-151.6387634\RMSD=3.742e-09\PG=C01 [X(C2H1O1)]\\@
 Normal termination of Gaussian 09 at Sat Mar  9 00:00:19 2019.
