 Gaussian 09, Revision E.01,
 Gaussian 09:  EM64L-G09RevE.01 30-Nov-2015

 --------------------------------------
 #p ccsd(t,maxcyc=200)/6-311++G(3df,2p)
 --------------------------------------

 -------------
 ccsd(t) iener
 -------------
 Symbolic Z-matrix:
 Charge = -1 Multiplicity = 3

                         Standard orientation:
 ---------------------------------------------------------------------
 Center     Atomic      Atomic             Coordinates (Angstroms)
 Number     Number       Type             X           Y           Z
 ---------------------------------------------------------------------
      1          6           0       -0.547918   -0.500832   -0.145848
      2          6           0        0.919641   -0.388477    0.042249
      3          1           0       -1.377107   -0.839194    0.508721
      4          8           0       -0.106654    0.771881    0.014109
 ---------------------------------------------------------------------

 SCF Done:  E(UHF) =  -151.020916953     A.U. after   20 cycles
 E2 =    -0.5214109123D+00 EUMP2 =    -0.15154232786547D+03
 CCSD(T)
 CCSD(T)= -0.15158308097D+03

 The electronic state is 3-A.
 Alpha  occ. eigenvalues --  -20.36515 -11.06170 -11.02013  -1.19166  -0.67859
 Alpha  occ. eigenvalues --   -0.56895  -0.43458  -0.37694  -0.24394  -0.18468
 Alpha  occ. eigenvalues --   -0.15114  -0.06313
 Alpha virt. eigenvalues --    0.16920   0.24211   0.25017   0.26827   0.28022
 Alpha virt. eigenvalues --    0.30107   0.30930   0.33596   0.35280   0.43233
 Alpha virt. eigenvalues --    0.46195   0.47532   0.50474   0.52700   0.54826

  Beta  occ. eigenvalues --  -20.35035 -11.04250 -10.99765  -1.15116  -0.60629
  Beta  occ. eigenvalues --   -0.50827  -0.36824  -0.25931  -0.21228  -0.13224
  Beta virt. eigenvalues --    0.17042   0.24184   0.24444   0.26114   0.28022
  Beta virt. eigenvalues --    0.28594   0.30270   0.33878   0.35383   0.37363
  Beta virt. eigenvalues --    0.43714   0.45397   0.48276   0.50280   0.51807

 Mulliken charges and spin densities:
               1          2
     1  C    0.156495   0.739443
     2  C   -0.500863   1.088025
     3  H   -0.002387   0.052925
     4  O   -0.653245   0.119606
 Sum of Mulliken charges =  -1.00000   2.00000

 Dipole moment (field-independent basis, Debye):
    X=             -3.1942    Y=              0.1215    Z=              0.3048  Tot=              3.2110
 Quadrupole moment (field-independent basis, Debye-Ang):
   XX=            -27.5226   YY=            -23.4769   ZZ=            -22.4642
   XY=              1.9515   XZ=             -1.2103   YZ=             -0.4481

 03\CCSD(T)=-151.583081\S2=2.028818\S2-1=2.009099\S2A=2.000385\RMSD=8.9
 Normal termination of Gaussian 09 at Sat Mar  9 00:22:44 2019.
