 Gaussian 09, Revision E.01,
 Gaussian 09:  EM64L-G09RevE.01 30-Nov-2015

 --------------------------------------
 #p ccsd(t,maxcyc=200)/6-311++G(3df,2p)
 --------------------------------------

 -------------
 ccsd(t) iener
 -------------
 Symbolic Z-matrix:
 Charge = -1 Multiplicity = 3

                         Standard orientation:
 ---------------------------------------------------------------------
 Center     Atomic      Atomic             Coordinates (Angstroms)
 Number     Number       Type             X           Y           Z
 ---------------------------------------------------------------------
      1          6           0       -0.198962   -0.065930    0.000020
      2          6           0       -1.476079    0.060370   -0.000010
      3          1           0        1.550703    0.861267    0.000005
      4          8           0        1.062443   -0.103489   -0.000008
 ---------------------------------------------------------------------

 SCF Done:  E(UHF) =  -151.035702661     A.U. after   30 cycles
 E2 =    -0.5120836931D+00 EUMP2 =    -0.15154778635423D+03
 CCSD(T)
 CCSD(T)= -0.15159006994D+03

 The electronic state is 3-A.
 Alpha  occ. eigenvalues --  -20.51144 -11.18647 -11.10870  -1.32884  -0.90103
 Alpha  occ. eigenvalues --   -0.68030  -0.53576  -0.51614  -0.31348  -0.26841
 Alpha  occ. eigenvalues --   -0.24444  -0.00167
 Alpha virt. eigenvalues --    0.20500   0.21596   0.23565   0.24843   0.25431
 Alpha virt. eigenvalues --    0.26125   0.29081   0.31836   0.33522   0.36864
 Alpha virt. eigenvalues --    0.41153   0.44891   0.45270   0.45603   0.48474

  Beta  occ. eigenvalues --  -20.49882 -11.18176 -11.09749  -1.29967  -0.82361
  Beta  occ. eigenvalues --   -0.65731  -0.52355  -0.43373  -0.28492  -0.22678
  Beta virt. eigenvalues --    0.16287   0.19711   0.21960   0.22458   0.25738
  Beta virt. eigenvalues --    0.26314   0.26986   0.28114   0.31519   0.33163
  Beta virt. eigenvalues --    0.36310   0.43433   0.44846   0.46598   0.47195

 Mulliken charges and spin densities:
               1          2
     1  C    0.579538   0.366749
     2  C    0.320489  -0.220770
     3  H   -1.406659   1.874138
     4  O   -0.493369  -0.020116
 Sum of Mulliken charges =  -1.00000   2.00000

 Dipole moment (field-independent basis, Debye):
    X=             -3.9281    Y=             -5.0354    Z=              0.0001  Tot=              6.3863
 Quadrupole moment (field-independent basis, Debye-Ang):
   XX=            -53.3594   YY=            -37.1288   ZZ=            -27.0950
   XY=            -10.8699   XZ=             -0.0002   YZ=             -0.0001

 11\CCSD(T)=-151.5900699\S2=2.011123\S2-1=2.003015\S2A=2.000068\RMSD=2.
 Normal termination of Gaussian 09 at Sat Mar  9 00:05:46 2019.
