 Gaussian 09, Revision E.01,
 Gaussian 09:  EM64L-G09RevE.01 30-Nov-2015

 --------------------------------------
 #p ccsd(t,maxcyc=200)/6-311++G(3df,2p)
 --------------------------------------

 -------------
 ccsd(t) iener
 -------------
 Symbolic Z-matrix:
 Charge = -1 Multiplicity = 1

                         Standard orientation:
 ---------------------------------------------------------------------
 Center     Atomic      Atomic             Coordinates (Angstroms)
 Number     Number       Type             X           Y           Z
 ---------------------------------------------------------------------
      1          6           0       -0.005168    0.022873   -0.000025
      2          6           0       -1.253197   -0.114453    0.000008
      3          1           0       -2.156647    0.452995    0.000018
      4          8           0        1.213355    0.012060    0.000010
 ---------------------------------------------------------------------

 SCF Done:  E(RHF) =  -151.175315736     A.U. after   17 cycles
 E2 =    -0.5596844616D+00 EUMP2 =    -0.15173500019792D+03
 CCSD(T)
 CCSD(T)= -0.15176303496D+03

 The electronic state is 1-A.
 Alpha  occ. eigenvalues --  -20.32465 -11.08732 -10.96442  -1.15199  -0.76494
 Alpha  occ. eigenvalues --   -0.47629  -0.41818  -0.34562  -0.33717  -0.10984
 Alpha  occ. eigenvalues --   -0.10083
 Alpha virt. eigenvalues --    0.16895   0.22429   0.26330   0.28120   0.28166
 Alpha virt. eigenvalues --    0.28688   0.30425   0.33178   0.34812   0.42113
 Alpha virt. eigenvalues --    0.47651   0.49511   0.50989   0.51760   0.53304

 Mulliken charges:
               1
     1  C    0.612135
     2  C   -0.796243
     3  H    0.146821
     4  O   -0.962713
 Sum of Mulliken charges =  -1.00000

 Dipole moment (field-independent basis, Debye):
    X=              0.1900    Y=              1.2875    Z=             -0.0000  Tot=              1.3015
 Quadrupole moment (field-independent basis, Debye-Ang):
   XX=            -28.7709   YY=            -21.9165   ZZ=            -22.2447
   XY=             -2.5403   XZ=             -0.0001   YZ=              0.0000

 151.7324697\CCSD(T)=-151.763035\RMSD=4.998e-09\PG=C01 [X(C2H1O1)]\\@
 Normal termination of Gaussian 09 at Fri Mar  8 23:50:39 2019.
