 Gaussian 09, Revision E.01,
 Gaussian 09:  EM64L-G09RevE.01 30-Nov-2015

 --------------------------------------
 #p ccsd(t,maxcyc=200)/6-311++G(3df,2p)
 --------------------------------------

 -------------
 ccsd(t) iener
 -------------
 Symbolic Z-matrix:
 Charge = -1 Multiplicity = 3

                         Standard orientation:
 ---------------------------------------------------------------------
 Center     Atomic      Atomic             Coordinates (Angstroms)
 Number     Number       Type             X           Y           Z
 ---------------------------------------------------------------------
      1          6           0        0.035276    0.333016   -0.000710
      2          6           0       -1.253599   -0.268819   -0.000250
      3          1           0       -2.024092    0.514918    0.002650
      4          8           0        1.166754   -0.112512    0.000389
 ---------------------------------------------------------------------

 SCF Done:  E(UHF) =  -151.103947059     A.U. after   27 cycles
 E2 =    -0.5161963081D+00 EUMP2 =    -0.15162014336732D+03
 CCSD(T)
 CCSD(T)= -0.15166348970D+03

 The electronic state is 3-A.
 Alpha  occ. eigenvalues --  -20.36463 -11.09524 -11.01055  -1.20099  -0.78112
 Alpha  occ. eigenvalues --   -0.51671  -0.42841  -0.38288  -0.36416  -0.21200
 Alpha  occ. eigenvalues --   -0.15015  -0.06594
 Alpha virt. eigenvalues --    0.17939   0.22709   0.25246   0.26826   0.28388
 Alpha virt. eigenvalues --    0.28951   0.29906   0.33583   0.35735   0.41009
 Alpha virt. eigenvalues --    0.44228   0.45952   0.48447   0.50845   0.54559

  Beta  occ. eigenvalues --  -20.34208 -11.08214 -10.99240  -1.14553  -0.68153
  Beta  occ. eigenvalues --   -0.47026  -0.36122  -0.28692  -0.28389  -0.11909
  Beta virt. eigenvalues --    0.17773   0.22504   0.23796   0.25430   0.27696
  Beta virt. eigenvalues --    0.28235   0.29890   0.32700   0.33441   0.36331
  Beta virt. eigenvalues --    0.41146   0.45023   0.46233   0.46602   0.51438

 Mulliken charges and spin densities:
               1          2
     1  C    0.173821   0.961552
     2  C   -0.549107   0.802443
     3  H    0.050526  -0.055319
     4  O   -0.675240   0.291324
 Sum of Mulliken charges =  -1.00000   2.00000

 Dipole moment (field-independent basis, Debye):
    X=              0.9358    Y=              1.8587    Z=              0.0047  Tot=              2.0810
 Quadrupole moment (field-independent basis, Debye-Ang):
   XX=            -30.0172   YY=            -25.6622   ZZ=            -21.1655
   XY=             -3.4446   XZ=             -0.0093   YZ=             -0.0034

 29\CCSD(T)=-151.6634897\S2=2.038713\S2-1=2.016256\S2A=2.000763\RMSD=5.
 Normal termination of Gaussian 09 at Sat Mar  9 00:25:29 2019.
