 Gaussian 09, Revision E.01,
 Gaussian 09:  EM64L-G09RevE.01 30-Nov-2015

 --------------------------------------
 #p ccsd(t,maxcyc=200)/6-311++G(3df,2p)
 --------------------------------------

 -------------
 ccsd(t) iener
 -------------
 Symbolic Z-matrix:
 Charge = -1 Multiplicity = 1

                         Standard orientation:
 ---------------------------------------------------------------------
 Center     Atomic      Atomic             Coordinates (Angstroms)
 Number     Number       Type             X           Y           Z
 ---------------------------------------------------------------------
      1          6           0        1.484893    0.025607    0.000002
      2          6           0        0.246713   -0.015224   -0.000003
      3          1           0       -1.464115    0.789599    0.000000
      4          8           0       -1.115690   -0.106487    0.000001
 ---------------------------------------------------------------------

 SCF Done:  E(RHF) =  -151.099948424     A.U. after   16 cycles
 E2 =    -0.5520551287D+00 EUMP2 =    -0.15165200355262D+03
 CCSD(T)
 CCSD(T)= -0.15168503142D+03

 The electronic state is 1-A.
 Alpha  occ. eigenvalues --  -20.42431 -11.01485 -10.95189  -1.21617  -0.73867
 Alpha  occ. eigenvalues --   -0.57252  -0.45211  -0.39637  -0.16328  -0.12246
 Alpha  occ. eigenvalues --   -0.10718
 Alpha virt. eigenvalues --    0.15445   0.23800   0.26133   0.28341   0.29182
 Alpha virt. eigenvalues --    0.30170   0.30430   0.33837   0.36860   0.39502
 Alpha virt. eigenvalues --    0.45989   0.46511   0.48421   0.51050   0.52072

 Mulliken charges:
               1
     1  C   -0.840900
     2  C    0.225404
     3  H    0.246046
     4  O   -0.630550
 Sum of Mulliken charges =  -1.00000

 Dipole moment (field-independent basis, Debye):
    X=             -7.0782    Y=              1.3274    Z=              0.0000  Tot=              7.2016
 Quadrupole moment (field-independent basis, Debye-Ang):
   XX=            -33.9942   YY=            -20.9158   ZZ=            -22.8474
   XY=             -3.0462   XZ=              0.0000   YZ=              0.0000

 1.6562793\CCSD(T)=-151.6850314\RMSD=4.390e-09\PG=C01 [X(C2H1O1)]\\@
 Normal termination of Gaussian 09 at Fri Mar  8 23:59:38 2019.
