 Gaussian 09, Revision E.01,
 Gaussian 09:  EM64L-G09RevE.01 30-Nov-2015

 --------------------------------------
 #p ccsd(t,maxcyc=200)/6-311++G(3df,2p)
 --------------------------------------

 -------------
 ccsd(t) iener
 -------------
 Symbolic Z-matrix:
 Charge = -1 Multiplicity = 1

                         Standard orientation:
 ---------------------------------------------------------------------
 Center     Atomic      Atomic             Coordinates (Angstroms)
 Number     Number       Type             X           Y           Z
 ---------------------------------------------------------------------
      1          6           0        0.005103    0.023137   -0.000849
      2          6           0        1.253058   -0.114238    0.000280
      3          1           0        2.157470    0.451342    0.000612
      4          8           0       -1.213305    0.011908    0.000350
 ---------------------------------------------------------------------

 SCF Done:  E(RHF) =  -151.175329005     A.U. after   17 cycles
 E2 =    -0.5596703523D+00 EUMP2 =    -0.15173499935682D+03
 CCSD(T)
 CCSD(T)= -0.15176302915D+03

 The electronic state is 1-A.
 Alpha  occ. eigenvalues --  -20.32457 -11.08726 -10.96439  -1.15201  -0.76490
 Alpha  occ. eigenvalues --   -0.47635  -0.41825  -0.34560  -0.33719  -0.10977
 Alpha  occ. eigenvalues --   -0.10080
 Alpha virt. eigenvalues --    0.16891   0.22430   0.26330   0.28120   0.28168
 Alpha virt. eigenvalues --    0.28687   0.30424   0.33177   0.34809   0.42132
 Alpha virt. eigenvalues --    0.47652   0.49517   0.50992   0.51764   0.53308

 Mulliken charges:
               1
     1  C    0.611898
     2  C   -0.796130
     3  H    0.147080
     4  O   -0.962848
 Sum of Mulliken charges =  -1.00000

 Dipole moment (field-independent basis, Debye):
    X=             -0.1866    Y=              1.2847    Z=             -0.0008  Tot=              1.2982
 Quadrupole moment (field-independent basis, Debye-Ang):
   XX=            -28.7606   YY=            -21.9182   ZZ=            -22.2440
   XY=              2.5325   XZ=              0.0039   YZ=              0.0002

 =-151.7324688\CCSD(T)=-151.7630291\RMSD=4.867e-09\PG=C01 [X(C2H1O1)]\\
 Normal termination of Gaussian 09 at Fri Mar  8 23:50:07 2019.
