 Gaussian 09, Revision E.01,
 Gaussian 09:  EM64L-G09RevE.01 30-Nov-2015

 --------------------------------------
 #p ccsd(t,maxcyc=200)/6-311++G(3df,2p)
 --------------------------------------

 -------------
 ccsd(t) iener
 -------------
 Symbolic Z-matrix:
 Charge = -1 Multiplicity = 3

                         Standard orientation:
 ---------------------------------------------------------------------
 Center     Atomic      Atomic             Coordinates (Angstroms)
 Number     Number       Type             X           Y           Z
 ---------------------------------------------------------------------
      1          6           0       -0.920998   -0.385932    0.042203
      2          6           0        0.546392   -0.502261   -0.145982
      3          1           0        1.373930   -0.844527    0.509039
      4          8           0        0.109214    0.771711    0.014205
 ---------------------------------------------------------------------

 SCF Done:  E(UHF) =  -151.020910062     A.U. after   20 cycles
 E2 =    -0.5214121639D+00 EUMP2 =    -0.15154232222551D+03
 CCSD(T)
 CCSD(T)= -0.15158308211D+03

 The electronic state is 3-A.
 Alpha  occ. eigenvalues --  -20.36512 -11.06174 -11.02019  -1.19155  -0.67859
 Alpha  occ. eigenvalues --   -0.56882  -0.43454  -0.37693  -0.24385  -0.18469
 Alpha  occ. eigenvalues --   -0.15117  -0.06321
 Alpha virt. eigenvalues --    0.16921   0.24210   0.25017   0.26826   0.28022
 Alpha virt. eigenvalues --    0.30105   0.30928   0.33597   0.35280   0.43232
 Alpha virt. eigenvalues --    0.46191   0.47544   0.50462   0.52697   0.54828

  Beta  occ. eigenvalues --  -20.35032 -11.04254 -10.99770  -1.15105  -0.60628
  Beta  occ. eigenvalues --   -0.50811  -0.36826  -0.25927  -0.21218  -0.13229
  Beta virt. eigenvalues --    0.17043   0.24182   0.24445   0.26113   0.28022
  Beta virt. eigenvalues --    0.28592   0.30268   0.33879   0.35383   0.37360
  Beta virt. eigenvalues --    0.43713   0.45398   0.48277   0.50281   0.51800

 Mulliken charges and spin densities:
               1          2
     1  C   -0.500761   1.088049
     2  C    0.156979   0.739243
     3  H   -0.002627   0.052999
     4  O   -0.653591   0.119709
 Sum of Mulliken charges =  -1.00000   2.00000

 Dipole moment (field-independent basis, Debye):
    X=              3.1924    Y=              0.1097    Z=              0.3047  Tot=              3.2088
 Quadrupole moment (field-independent basis, Debye-Ang):
   XX=            -27.5360   YY=            -23.4650   ZZ=            -22.4638
   XY=             -1.9389   XZ=              1.2080   YZ=             -0.4520

 57672\CCSD(T)=-151.5830821\S2=2.028828\S2-1=2.009107\S2A=2.000386\RMSD
 Normal termination of Gaussian 09 at Sat Mar  9 00:07:20 2019.
