 Gaussian 09, Revision E.01,
 Gaussian 09:  EM64L-G09RevE.01 30-Nov-2015

 --------------------------------------
 #p ccsd(t,maxcyc=200)/6-311++G(3df,2p)
 --------------------------------------

 -------------
 ccsd(t) iener
 -------------
 Symbolic Z-matrix:
 Charge = -1 Multiplicity = 1

                         Standard orientation:
 ---------------------------------------------------------------------
 Center     Atomic      Atomic             Coordinates (Angstroms)
 Number     Number       Type             X           Y           Z
 ---------------------------------------------------------------------
      1          6           0       -1.220340   -0.180551    0.000023
      2          6           0        1.323074    0.004358    0.000035
      3          1           0       -1.621821    0.852339    0.000039
      4          8           0        0.125677    0.025603   -0.000048
 ---------------------------------------------------------------------

 SCF Done:  E(RHF) =  -150.957336452     A.U. after   19 cycles
 E2 =    -0.5818296477D+00 EUMP2 =    -0.15153916609948D+03
 CCSD(T)
 CCSD(T)= -0.15157649077D+03

 The electronic state is 1-A.
 Alpha  occ. eigenvalues --  -20.51579 -11.10843 -11.03867  -1.32767  -0.84128
 Alpha  occ. eigenvalues --   -0.50098  -0.47092  -0.44253  -0.32217  -0.13610
 Alpha  occ. eigenvalues --   -0.01654
 Alpha virt. eigenvalues --    0.17650   0.22008   0.22557   0.23731   0.26277
 Alpha virt. eigenvalues --    0.28594   0.30799   0.31423   0.33004   0.36568
 Alpha virt. eigenvalues --    0.36617   0.45360   0.49452   0.50749   0.50876

 Mulliken charges:
               1
     1  C   -0.604647
     2  C   -0.237768
     3  H    0.073356
     4  O   -0.230940
 Sum of Mulliken charges =  -1.00000

 Dipole moment (field-independent basis, Debye):
    X=              1.2924    Y=              1.9019    Z=              0.0001  Tot=              2.2994
 Quadrupole moment (field-independent basis, Debye-Ang):
   XX=            -36.6788   YY=            -22.4589   ZZ=            -25.6309
   XY=             -3.6509   XZ=             -0.0002   YZ=              0.0001

 -151.5385889\CCSD(T)=-151.5764908\RMSD=2.559e-09\PG=C01 [X(C2H1O1)]\\@
 Normal termination of Gaussian 09 at Fri Mar  8 23:51:58 2019.
