 Gaussian 09, Revision E.01,
 Gaussian 09:  EM64L-G09RevE.01 30-Nov-2015

 --------------------------------------
 #p ccsd(t,maxcyc=200)/6-311++G(3df,2p)
 --------------------------------------

 -------------
 ccsd(t) iener
 -------------
 Symbolic Z-matrix:
 Charge = -1 Multiplicity = 3

                         Standard orientation:
 ---------------------------------------------------------------------
 Center     Atomic      Atomic             Coordinates (Angstroms)
 Number     Number       Type             X           Y           Z
 ---------------------------------------------------------------------
      1          6           0       -0.062750    0.328384   -0.000016
      2          6           0       -1.349506   -0.266235    0.000005
      3          1           0       -0.055351    1.457506    0.000031
      4          8           0        1.066111   -0.228800    0.000004
 ---------------------------------------------------------------------

 SCF Done:  E(UHF) =  -151.109635875     A.U. after   21 cycles
 E2 =    -0.4954699758D+00 EUMP2 =    -0.15160510585091D+03
 CCSD(T)
 CCSD(T)= -0.15165318650D+03

 The electronic state is 3-A.
 Alpha  occ. eigenvalues --  -20.36343 -11.08426 -11.00347  -1.18359  -0.77026
 Alpha  occ. eigenvalues --   -0.52475  -0.44490  -0.39217  -0.30068  -0.19055
 Alpha  occ. eigenvalues --   -0.14354  -0.12234
 Alpha virt. eigenvalues --    0.17424   0.23987   0.25016   0.26501   0.28929
 Alpha virt. eigenvalues --    0.29319   0.30047   0.32794   0.35568   0.41174
 Alpha virt. eigenvalues --    0.43126   0.47633   0.47770   0.52692   0.54394

  Beta  occ. eigenvalues --  -20.33951 -11.09180 -10.97086  -1.12491  -0.67915
  Beta  occ. eigenvalues --   -0.47814  -0.41169  -0.25257  -0.24054  -0.13647
  Beta virt. eigenvalues --    0.17476   0.23415   0.24734   0.25426   0.27765
  Beta virt. eigenvalues --    0.27889   0.29577   0.32704   0.33006   0.36301
  Beta virt. eigenvalues --    0.41652   0.43479   0.46364   0.48674   0.53960

 Mulliken charges and spin densities:
               1          2
     1  C    0.598783  -0.394658
     2  C   -0.801592   1.862923
     3  H   -0.041714   0.046511
     4  O   -0.755477   0.485225
 Sum of Mulliken charges =  -1.00000   2.00000

 Dipole moment (field-independent basis, Debye):
    X=              2.9995    Y=              2.1176    Z=             -0.0000  Tot=              3.6717
 Quadrupole moment (field-independent basis, Debye-Ang):
   XX=            -35.5150   YY=            -22.5718   ZZ=            -20.9538
   XY=             -1.6291   XZ=              0.0001   YZ=              0.0000

 981\CCSD(T)=-151.6531865\S2=2.101604\S2-1=2.05768\S2A=2.002877\RMSD=9.
 Normal termination of Gaussian 09 at Sat Mar  9 00:02:57 2019.
