 Gaussian 09, Revision E.01,
 Gaussian 09:  EM64L-G09RevE.01 30-Nov-2015

 --------------------------------------
 #p ccsd(t,maxcyc=200)/6-311++G(3df,2p)
 --------------------------------------

 -------------
 ccsd(t) iener
 -------------
 Symbolic Z-matrix:
 Charge = -1 Multiplicity = 1

                         Standard orientation:
 ---------------------------------------------------------------------
 Center     Atomic      Atomic             Coordinates (Angstroms)
 Number     Number       Type             X           Y           Z
 ---------------------------------------------------------------------
      1          6           0        0.576174    0.378503   -0.000065
      2          6           0       -2.014427   -0.168382    0.000021
      3          6           0       -0.780433    0.010309   -0.000014
      4          1           0        0.747491    1.480005    0.000158
      5          8           0        1.570578   -0.350323    0.000023
 ---------------------------------------------------------------------

 SCF Done:  E(RHF) =  -189.022925944     A.U. after   17 cycles
 E2 =    -0.6905691504D+00 EUMP2 =    -0.18971349509481D+03
 CCSD(T)
 CCSD(T)= -0.18975693542D+03

 The electronic state is 1-A.
 Alpha  occ. eigenvalues --  -20.37203 -11.16932 -11.01932 -10.99166  -1.20050
 Alpha  occ. eigenvalues --   -0.82687  -0.68560  -0.52720  -0.46540  -0.36545
 Alpha  occ. eigenvalues --   -0.26942  -0.21460  -0.16981  -0.16763
 Alpha virt. eigenvalues --    0.16079   0.22138   0.23212   0.23706   0.24991
 Alpha virt. eigenvalues --    0.25244   0.27608   0.29839   0.31149   0.31529
 Alpha virt. eigenvalues --    0.33522   0.33821   0.38901   0.40234   0.43442

 Mulliken charges:
               1
     1  C    0.115521
     2  C   -0.852037
     3  C    0.530680
     4  H    0.064652
     5  O   -0.858816
 Sum of Mulliken charges =  -1.00000

 Dipole moment (field-independent basis, Debye):
    X=              4.1227    Y=              2.3202    Z=             -0.0002  Tot=              4.7307
 Quadrupole moment (field-independent basis, Debye-Ang):
   XX=            -49.9339   YY=            -27.1564   ZZ=            -26.4470
   XY=              0.8632   XZ=              0.0002   YZ=              0.0001

 12\MP4SDQ=-189.7204414\CCSD=-189.7176916\CCSD(T)=-189.7569354\RMSD=7.5
 Normal termination of Gaussian 09 at Sat Mar  9 00:25:07 2019.
