 Gaussian 09, Revision E.01,
 Gaussian 09:  EM64L-G09RevE.01 30-Nov-2015

 --------------------------------------
 #p ccsd(t,maxcyc=200)/6-311++G(3df,2p)
 --------------------------------------

 -------------
 ccsd(t) iener
 -------------
 Symbolic Z-matrix:
 Charge = -1 Multiplicity = 3

                         Standard orientation:
 ---------------------------------------------------------------------
 Center     Atomic      Atomic             Coordinates (Angstroms)
 Number     Number       Type             X           Y           Z
 ---------------------------------------------------------------------
      1          6           0       -0.726012    0.344455    0.000052
      2          6           0       -1.933049   -0.271390   -0.000113
      3          6           0        0.530147   -0.350966    0.000207
      4          1           0       -0.614545    1.451551    0.000117
      5          8           0        1.673504    0.026982   -0.000124
 ---------------------------------------------------------------------

 SCF Done:  E(UHF) =  -188.976771939     A.U. after   23 cycles
 E2 =    -0.6426620420D+00 EUMP2 =    -0.18961943398100D+03
 CCSD(T)
 CCSD(T)= -0.18967385314D+03

 The electronic state is 3-A.
 Alpha  occ. eigenvalues --  -20.39346 -11.14494 -11.03172 -11.02270  -1.23211
 Alpha  occ. eigenvalues --   -0.85775  -0.64591  -0.53066  -0.46507  -0.41879
 Alpha  occ. eigenvalues --   -0.37898  -0.23691  -0.17668  -0.17180  -0.12697
 Alpha virt. eigenvalues --    0.16869   0.21291   0.24057   0.25495   0.25779
 Alpha virt. eigenvalues --    0.26182   0.28289   0.28944   0.30344   0.32257
 Alpha virt. eigenvalues --    0.32419   0.33846   0.34448   0.36078   0.44822

  Beta  occ. eigenvalues --  -20.38361 -11.12178 -11.02472 -11.00873  -1.20412
  Beta  occ. eigenvalues --   -0.81599  -0.57058  -0.47018  -0.41357  -0.38119
  Beta  occ. eigenvalues --   -0.31585  -0.18447  -0.17486
  Beta virt. eigenvalues --    0.16768   0.20996   0.24173   0.25152   0.25520
  Beta virt. eigenvalues --    0.26642   0.26677   0.28440   0.29229   0.32545
  Beta virt. eigenvalues --    0.33899   0.34191   0.35228   0.35571   0.37422

 Mulliken charges and spin densities:
               1          2
     1  C    0.154149  -0.592128
     2  C   -0.794487   1.311438
     3  C    0.379808   1.028548
     4  H    0.028858   0.156993
     5  O   -0.768328   0.095149
 Sum of Mulliken charges =  -1.00000   2.00000

 Dipole moment (field-independent basis, Debye):
    X=              3.2858    Y=              1.3189    Z=              0.0008  Tot=              3.5406
 Quadrupole moment (field-independent basis, Debye-Ang):
   XX=            -49.5381   YY=            -28.2080   ZZ=            -26.8841
   XY=             -3.0977   XZ=             -0.0006   YZ=              0.0004

 DQ=-189.6395274\CCSD=-189.6386977\CCSD(T)=-189.6738531\S2=2.044188\S2-
 Normal termination of Gaussian 09 at Sat Mar  9 01:12:30 2019.
