 Gaussian 09, Revision E.01,
 Gaussian 09:  EM64L-G09RevE.01 30-Nov-2015

 --------------------------------------
 #p ccsd(t,maxcyc=200)/6-311++G(3df,2p)
 --------------------------------------

 -------------
 ccsd(t) iener
 -------------
 Symbolic Z-matrix:
 Charge = -1 Multiplicity = 3

                         Standard orientation:
 ---------------------------------------------------------------------
 Center     Atomic      Atomic             Coordinates (Angstroms)
 Number     Number       Type             X           Y           Z
 ---------------------------------------------------------------------
      1          6           0        0.433453   -0.496045    0.000033
      2          6           0       -0.820299   -0.089193   -0.000002
      3          6           0       -2.072204    0.213706   -0.000011
      4          1           0        1.485635    1.093747    0.000137
      5          8           0        1.658583    0.141930   -0.000033
 ---------------------------------------------------------------------

 SCF Done:  E(UHF) =  -188.943440594     A.U. after   23 cycles
 E2 =    -0.6289069690D+00 EUMP2 =    -0.18957234756349D+03
 CCSD(T)
 CCSD(T)= -0.18963860836D+03

 The electronic state is 3-A.
 Alpha  occ. eigenvalues --  -20.43320 -11.11026 -11.00033 -10.98745  -1.23608
 Alpha  occ. eigenvalues --   -0.83209  -0.71917  -0.58818  -0.44488  -0.44147
 Alpha  occ. eigenvalues --   -0.29180  -0.24234  -0.22046  -0.14189  -0.10108
 Alpha virt. eigenvalues --    0.16180   0.20629   0.24207   0.25125   0.26183
 Alpha virt. eigenvalues --    0.27283   0.28634   0.29852   0.31648   0.32509
 Alpha virt. eigenvalues --    0.33628   0.38762   0.39770   0.42812   0.44177

  Beta  occ. eigenvalues --  -20.42859 -11.06710 -11.00487 -10.97619  -1.21653
  Beta  occ. eigenvalues --   -0.81009  -0.62218  -0.55530  -0.43868  -0.38360
  Beta  occ. eigenvalues --   -0.18769  -0.18558  -0.16618
  Beta virt. eigenvalues --    0.15983   0.20454   0.24374   0.25195   0.25364
  Beta virt. eigenvalues --    0.26608   0.27385   0.27525   0.30589   0.32998
  Beta virt. eigenvalues --    0.34281   0.36174   0.38113   0.39133   0.40728

 Mulliken charges and spin densities:
               1          2
     1  C   -0.066486   1.788766
     2  C    0.560367  -1.356865
     3  C   -0.985453   1.564218
     4  H    0.232527   0.057462
     5  O   -0.740955  -0.053581
 Sum of Mulliken charges =  -1.00000   2.00000

 Dipole moment (field-independent basis, Debye):
    X=              6.6313    Y=              0.8416    Z=              0.0003  Tot=              6.6845
 Quadrupole moment (field-independent basis, Debye-Ang):
   XX=            -50.8616   YY=            -25.9371   ZZ=            -28.2185
   XY=              4.7413   XZ=              0.0004   YZ=              0.0005

 -189.5976964\CCSD=-189.6038404\CCSD(T)=-189.6386084\S2=2.294833\S2-1=2
 Normal termination of Gaussian 09 at Sat Mar  9 01:06:53 2019.
