 Gaussian 09, Revision E.01,
 Gaussian 09:  EM64L-G09RevE.01 30-Nov-2015

 --------------------------------------
 #p ccsd(t,maxcyc=200)/6-311++G(3df,2p)
 --------------------------------------

 -------------
 ccsd(t) iener
 -------------
 Symbolic Z-matrix:
 Charge = -1 Multiplicity = 1

                         Standard orientation:
 ---------------------------------------------------------------------
 Center     Atomic      Atomic             Coordinates (Angstroms)
 Number     Number       Type             X           Y           Z
 ---------------------------------------------------------------------
      1          6           0       -0.477629    0.607371   -0.000018
      2          6           0        0.786624    0.073187   -0.000019
      3          6           0        2.010689   -0.213833    0.000027
      4          1           0       -2.283512    0.117894    0.000263
      5          8           0       -1.454325   -0.364781   -0.000026
 ---------------------------------------------------------------------

 SCF Done:  E(RHF) =  -188.947230939     A.U. after   18 cycles
 E2 =    -0.6819770180D+00 EUMP2 =    -0.18962920795663D+03
 CCSD(T)
 CCSD(T)= -0.18967894563D+03

 The electronic state is 1-A.
 Alpha  occ. eigenvalues --  -20.43662 -11.11468 -11.01862 -10.98281  -1.23756
 Alpha  occ. eigenvalues --   -0.82482  -0.69028  -0.51217  -0.48321  -0.40038
 Alpha  occ. eigenvalues --   -0.23606  -0.20970  -0.17696  -0.12418
 Alpha virt. eigenvalues --    0.15108   0.22570   0.24064   0.24099   0.25530
 Alpha virt. eigenvalues --    0.26427   0.27238   0.28552   0.32411   0.32514
 Alpha virt. eigenvalues --    0.33993   0.34407   0.38639   0.39729   0.42471

 Mulliken charges:
               1
     1  C   -0.466745
     2  C    0.761992
     3  C   -0.986321
     4  H    0.247146
     5  O   -0.556071
 Sum of Mulliken charges =  -1.00000

 Dipole moment (field-independent basis, Debye):
    X=             -6.5127    Y=             -0.0371    Z=              0.0003  Tot=              6.5128
 Quadrupole moment (field-independent basis, Debye-Ang):
   XX=            -40.0050   YY=            -32.9360   ZZ=            -27.1679
   XY=              1.5473   XZ=             -0.0015   YZ=              0.0001

 6609\MP4SDQ=-189.6413571\CCSD=-189.6396789\CCSD(T)=-189.6789456\RMSD=4
 Normal termination of Gaussian 09 at Sat Mar  9 00:44:01 2019.
