 Gaussian 09, Revision E.01,
 Gaussian 09:  EM64L-G09RevE.01 30-Nov-2015

 --------------------------------------
 #p ccsd(t,maxcyc=200)/6-311++G(3df,2p)
 --------------------------------------

 -------------
 ccsd(t) iener
 -------------
 Symbolic Z-matrix:
 Charge = -1 Multiplicity = 1

                         Standard orientation:
 ---------------------------------------------------------------------
 Center     Atomic      Atomic             Coordinates (Angstroms)
 Number     Number       Type             X           Y           Z
 ---------------------------------------------------------------------
      1          6           0        0.518089   -0.671523   -0.000027
      2          6           0       -0.753509   -0.140278    0.000096
      3          6           0       -1.944348    0.260246   -0.000057
      4          1           0        1.095873    1.163131    0.000088
      5          8           0        1.497841    0.268275   -0.000020
 ---------------------------------------------------------------------

 SCF Done:  E(RHF) =  -188.950951014     A.U. after   18 cycles
 E2 =    -0.6822822712D+00 EUMP2 =    -0.18963323328521D+03
 CCSD(T)
 CCSD(T)= -0.18968293944D+03

 The electronic state is 1-A.
 Alpha  occ. eigenvalues --  -20.43900 -11.11617 -11.02688 -10.98978  -1.24122
 Alpha  occ. eigenvalues --   -0.82494  -0.68860  -0.57531  -0.43315  -0.40424
 Alpha  occ. eigenvalues --   -0.23992  -0.21413  -0.18442  -0.13334
 Alpha virt. eigenvalues --    0.17142   0.22064   0.23468   0.24189   0.25443
 Alpha virt. eigenvalues --    0.26307   0.27018   0.28722   0.31681   0.32461
 Alpha virt. eigenvalues --    0.33596   0.33645   0.38723   0.40205   0.42427

 Mulliken charges:
               1
     1  C   -0.515102
     2  C    0.678278
     3  C   -0.760793
     4  H    0.203575
     5  O   -0.605957
 Sum of Mulliken charges =  -1.00000

 Dipole moment (field-independent basis, Debye):
    X=              4.3262    Y=              1.9325    Z=              0.0003  Tot=              4.7382
 Quadrupole moment (field-independent basis, Debye-Ang):
   XX=            -46.7171   YY=            -30.2334   ZZ=            -27.0879
   XY=              5.0023   XZ=              0.0000   YZ=              0.0000

 152\MP4SDQ=-189.6451038\CCSD=-189.6435575\CCSD(T)=-189.6829394\RMSD=6.
 Normal termination of Gaussian 09 at Sat Mar  9 00:43:41 2019.
