 Gaussian 09, Revision E.01,
 Gaussian 09:  EM64L-G09RevE.01 30-Nov-2015

 --------------------------------------
 #p ccsd(t,maxcyc=200)/6-311++G(3df,2p)
 --------------------------------------

 -------------
 ccsd(t) iener
 -------------
 Symbolic Z-matrix:
 Charge = -1 Multiplicity = 1

                         Standard orientation:
 ---------------------------------------------------------------------
 Center     Atomic      Atomic             Coordinates (Angstroms)
 Number     Number       Type             X           Y           Z
 ---------------------------------------------------------------------
      1          6           0       -0.405814   -1.033748    0.018738
      2          6           0       -0.446818    1.027660   -0.162119
      3          6           0        2.007820   -0.103261    0.065360
      4          6           0        0.752775    0.084381   -0.094745
      5          1           0       -0.529493    1.562712    0.797652
      6          8           0       -1.364786   -0.176613    0.029868
 ---------------------------------------------------------------------

 SCF Done:  E(RHF) =  -226.695343258     A.U. after   22 cycles
 E2 =    -0.8319845544D+00 EUMP2 =    -0.22752732781252D+03
 CCSD(T)
 CCSD(T)= -0.22760114369D+03

 The electronic state is 1-A.
 Alpha  occ. eigenvalues --  -20.44156 -11.16007 -11.08645 -11.07674 -11.03889
 Alpha  occ. eigenvalues --   -1.28028  -0.87084  -0.71901  -0.65881  -0.47137
 Alpha  occ. eigenvalues --   -0.42529  -0.39984  -0.36491  -0.26791  -0.23437
 Alpha  occ. eigenvalues --   -0.18051  -0.11049
 Alpha virt. eigenvalues --    0.16477   0.20330   0.22220   0.22605   0.22926
 Alpha virt. eigenvalues --    0.23984   0.24490   0.26666   0.26813   0.27227
 Alpha virt. eigenvalues --    0.29990   0.30863   0.31990   0.33776   0.34668

 Mulliken charges:
               1
     1  C   -0.099436
     2  C   -0.297263
     3  C   -0.636800
     4  C    0.589437
     5  H    0.096992
     6  O   -0.652930
 Sum of Mulliken charges =  -1.00000

 Dipole moment (field-independent basis, Debye):
    X=             -1.6562    Y=              0.1676    Z=              1.3769  Tot=              2.1603
 Quadrupole moment (field-independent basis, Debye-Ang):
   XX=            -47.7019   YY=            -40.8027   ZZ=            -34.3146
   XY=              1.8451   XZ=             -1.5132   YZ=              3.5072

 61792\CCSD(T)=-227.6011437\RMSD=9.269e-09\PG=C01 [X(C4H1O1)]\\@
 Normal termination of Gaussian 09 at Sat Mar  9 02:06:41 2019.
