 Gaussian 09, Revision E.01,
 Gaussian 09:  EM64L-G09RevE.01 30-Nov-2015

 --------------------------------------
 #p ccsd(t,maxcyc=200)/6-311++G(3df,2p)
 --------------------------------------

 -------------
 ccsd(t) iener
 -------------
 Symbolic Z-matrix:
 Charge = -1 Multiplicity = 3

                         Standard orientation:
 ---------------------------------------------------------------------
 Center     Atomic      Atomic             Coordinates (Angstroms)
 Number     Number       Type             X           Y           Z
 ---------------------------------------------------------------------
      1          6           0        1.610149    0.632850    0.000079
      2          6           0       -1.086172    0.478694   -0.000047
      3          6           0       -2.052032   -0.485977    0.000062
      4          6           0        0.303527    0.246222   -0.000086
      5          1           0       -1.331436    1.552672    0.000041
      6          8           0        1.084825   -0.847926   -0.000011
 ---------------------------------------------------------------------

 SCF Done:  E(UHF) =  -226.743304254     A.U. after   25 cycles
 E2 =    -0.7915191518D+00 EUMP2 =    -0.22753482340617D+03
 CCSD(T)
 CCSD(T)= -0.22760297793D+03

 The electronic state is 3-A.
 Alpha  occ. eigenvalues --  -20.44938 -11.16623 -11.11485 -11.05419 -11.04494
 Alpha  occ. eigenvalues --   -1.28611  -0.88505  -0.78589  -0.63966  -0.53626
 Alpha  occ. eigenvalues --   -0.48788  -0.43999  -0.34546  -0.28079  -0.24624
 Alpha  occ. eigenvalues --   -0.24145  -0.15627  -0.15501
 Alpha virt. eigenvalues --    0.15787   0.21317   0.22250   0.22761   0.24211
 Alpha virt. eigenvalues --    0.24864   0.25393   0.28141   0.28227   0.28913
 Alpha virt. eigenvalues --    0.28964   0.29868   0.31840   0.33638   0.33838

  Beta  occ. eigenvalues --  -20.43222 -11.16431 -11.10067 -11.05071 -11.02964
  Beta  occ. eigenvalues --   -1.24953  -0.86445  -0.72378  -0.58325  -0.51220
  Beta  occ. eigenvalues --   -0.40959  -0.38006  -0.32105  -0.24466  -0.20038
  Beta  occ. eigenvalues --   -0.19333
  Beta virt. eigenvalues --    0.15839   0.21377   0.21569   0.22479   0.23690
  Beta virt. eigenvalues --    0.23706   0.24509   0.27246   0.27901   0.28770
  Beta virt. eigenvalues --    0.29602   0.30041   0.31493   0.31973   0.33928

 Mulliken charges and spin densities:
               1          2
     1  C   -0.642700   0.766647
     2  C    0.089745  -0.388542
     3  C   -0.755585   1.270823
     4  C    0.995667   0.007705
     5  H    0.045593   0.093835
     6  O   -0.732719   0.249531
 Sum of Mulliken charges =  -1.00000   2.00000

 Dipole moment (field-independent basis, Debye):
    X=              1.5834    Y=              1.8201    Z=             -0.0004  Tot=              2.4124
 Quadrupole moment (field-independent basis, Debye-Ang):
   XX=            -57.7536   YY=            -36.8546   ZZ=            -32.8162
   XY=             -7.0446   XZ=             -0.0000   YZ=              0.0001

 0387\PMP3-0=-227.5507568\MP4SDQ=-227.5579808\CCSD=-227.556768\CCSD(T)=
 Normal termination of Gaussian 09 at Sat Mar  9 02:59:23 2019.
