 Gaussian 09, Revision E.01,
 Gaussian 09:  EM64L-G09RevE.01 30-Nov-2015

 --------------------------------------
 #p ccsd(t,maxcyc=200)/6-311++G(3df,2p)
 --------------------------------------

 -------------
 ccsd(t) iener
 -------------
 Symbolic Z-matrix:
 Charge = -1 Multiplicity = 3

                         Standard orientation:
 ---------------------------------------------------------------------
 Center     Atomic      Atomic             Coordinates (Angstroms)
 Number     Number       Type             X           Y           Z
 ---------------------------------------------------------------------
      1          6           0       -0.000000    0.390872   -0.000000
      2          6           0       -1.054972   -0.543564    0.000000
      3          6           0        0.518577    1.651440   -0.000000
      4          6           0       -0.911460   -1.901076    0.000000
      5          1           0       -2.044267   -0.058984    0.000000
      6          8           0        1.341425    0.309119   -0.000000
 ---------------------------------------------------------------------

 SCF Done:  E(UHF) =  -226.743300778     A.U. after   25 cycles
 E2 =    -0.7914847094D+00 EUMP2 =    -0.22753478548686D+03
 CCSD(T)
 CCSD(T)= -0.22760299682D+03

 The electronic state is 3-A".
 Alpha  occ. eigenvalues --  -20.44910 -11.16633 -11.11501 -11.05425 -11.04488
 Alpha  occ. eigenvalues --   -1.28540  -0.88497  -0.78601  -0.63945  -0.53610
 Alpha  occ. eigenvalues --   -0.48736  -0.43995  -0.34482  -0.28119  -0.24633
 Alpha  occ. eigenvalues --   -0.24132  -0.15629  -0.15551
 Alpha virt. eigenvalues --    0.15785   0.21315   0.22249   0.22770   0.24210
 Alpha virt. eigenvalues --    0.24859   0.25388   0.28148   0.28229   0.28915
 Alpha virt. eigenvalues --    0.28959   0.29865   0.31834   0.33636   0.33838

  Beta  occ. eigenvalues --  -20.43198 -11.16448 -11.10073 -11.05062 -11.02972
  Beta  occ. eigenvalues --   -1.24887  -0.86435  -0.72389  -0.58303  -0.51206
  Beta  occ. eigenvalues --   -0.40955  -0.37982  -0.32041  -0.24500  -0.20045
  Beta  occ. eigenvalues --   -0.19313
  Beta virt. eigenvalues --    0.15838   0.21376   0.21556   0.22478   0.23690
  Beta virt. eigenvalues --    0.23706   0.24506   0.27243   0.27896   0.28772
  Beta virt. eigenvalues --    0.29600   0.30037   0.31487   0.31968   0.33927

 Mulliken charges and spin densities:
               1          2
     1  C    0.995163   0.003989
     2  C    0.090542  -0.386785
     3  C   -0.642543   0.770452
     4  C   -0.754366   1.269008
     5  H    0.045599   0.093741
     6  O   -0.734395   0.249595
 Sum of Mulliken charges =  -1.00000   2.00000

 Dipole moment (field-independent basis, Debye):
    X=             -0.4281    Y=              2.3767    Z=              0.0000  Tot=              2.4150
 Quadrupole moment (field-independent basis, Debye-Ang):
   XX=            -38.2339   YY=            -56.3652   ZZ=            -32.8176
   XY=             -8.7342   XZ=              0.0000   YZ=              0.0000

 DQ=-227.5579769\CCSD=-227.5567569\CCSD(T)=-227.6029968\S2=2.070119\S2-
 Normal termination of Gaussian 09 at Sat Mar  9 02:14:03 2019.
