 Gaussian 09, Revision E.01,
 Gaussian 09:  EM64L-G09RevE.01 30-Nov-2015

 --------------------------------------
 #p ccsd(t,maxcyc=200)/6-311++G(3df,2p)
 --------------------------------------

 -------------
 ccsd(t) iener
 -------------
 Symbolic Z-matrix:
 Charge = -1 Multiplicity = 1

                         Standard orientation:
 ---------------------------------------------------------------------
 Center     Atomic      Atomic             Coordinates (Angstroms)
 Number     Number       Type             X           Y           Z
 ---------------------------------------------------------------------
      1          6           0       -0.999132    0.020297   -0.000074
      2          6           0        1.623194    0.509349    0.000020
      3          6           0        1.711564   -0.795259    0.000046
      4          6           0        0.258647    0.033688   -0.000106
      5          1           0        2.123971    1.465360    0.000133
      6          8           0       -2.211201   -0.009226    0.000069
 ---------------------------------------------------------------------

 SCF Done:  E(RHF) =  -226.826936859     A.U. after   17 cycles
 E2 =    -0.8466638927D+00 EUMP2 =    -0.22767360075199D+03
 CCSD(T)
 CCSD(T)= -0.22772401179D+03

 The electronic state is 1-A.
 Alpha  occ. eigenvalues --  -20.36896 -11.12607 -11.06405 -11.06197 -11.04153
 Alpha  occ. eigenvalues --   -1.19457  -0.95393  -0.77322  -0.56226  -0.49205
 Alpha  occ. eigenvalues --   -0.43237  -0.40017  -0.36718  -0.27626  -0.25991
 Alpha  occ. eigenvalues --   -0.15782  -0.08955
 Alpha virt. eigenvalues --    0.14451   0.20327   0.21568   0.23819   0.23972
 Alpha virt. eigenvalues --    0.24301   0.25823   0.26962   0.28307   0.29054
 Alpha virt. eigenvalues --    0.29587   0.32118   0.33265   0.34005   0.35503

 Mulliken charges:
               1
     1  C    0.214020
     2  C    0.374347
     3  C   -0.773884
     4  C   -0.019234
     5  H    0.174608
     6  O   -0.969857
 Sum of Mulliken charges =  -1.00000

 Dipole moment (field-independent basis, Debye):
    X=              0.4942    Y=              2.9614    Z=              0.0001  Tot=              3.0023
 Quadrupole moment (field-independent basis, Debye-Ang):
   XX=            -51.7068   YY=            -34.0186   ZZ=            -33.2727
   XY=              6.4277   XZ=              0.0005   YZ=              0.0004

 093\CCSD(T)=-227.7240118\RMSD=4.701e-09\PG=C01 [X(C4H1O1)]\\@
 Normal termination of Gaussian 09 at Sat Mar  9 01:09:50 2019.
