 Gaussian 09, Revision E.01,
 Gaussian 09:  EM64L-G09RevE.01 30-Nov-2015

 --------------------------------------
 #p ccsd(t,maxcyc=200)/6-311++G(3df,2p)
 --------------------------------------

 -------------
 ccsd(t) iener
 -------------
 Symbolic Z-matrix:
 Charge = -1 Multiplicity = 1

                         Standard orientation:
 ---------------------------------------------------------------------
 Center     Atomic      Atomic             Coordinates (Angstroms)
 Number     Number       Type             X           Y           Z
 ---------------------------------------------------------------------
      1          6           0        0.077984    0.622774    0.000000
      2          1           0       -1.091779    1.059941    0.000000
      3          8           0        0.077984   -0.599573    0.000000
 ---------------------------------------------------------------------

 SCF Done:  E(RHF) =  -113.260339563     A.U. after   14 cycles
 E2 =    -0.4022404125D+00 EUMP2 =    -0.11366257997554D+03
 CCSD(T)
 CCSD(T)= -0.11368962964D+03

 The electronic state is 1-A'.
 Alpha  occ. eigenvalues --  -20.30414 -11.04378  -1.12634  -0.51114  -0.36572
 Alpha  occ. eigenvalues --   -0.28947  -0.27227  -0.04057
 Alpha virt. eigenvalues --    0.19576   0.25021   0.26218   0.28725   0.33432
 Alpha virt. eigenvalues --    0.41211   0.44778   0.47728   0.49014   0.49735
 Alpha virt. eigenvalues --    0.54561   0.67783   0.72271   0.74916   0.81270

 Mulliken charges:
               1
     1  C   -0.124639
     2  H   -0.232885
     3  O   -0.642476
 Sum of Mulliken charges =  -1.00000

 Dipole moment (field-independent basis, Debye):
    X=             -0.4553    Y=             -1.4959    Z=              0.0000  Tot=              1.5637
 Quadrupole moment (field-independent basis, Debye-Ang):
   XX=            -19.7159   YY=            -21.0987   ZZ=            -14.6998
   XY=             -0.3813   XZ=              0.0000   YZ=              0.0000

 -113.6722803\CCSD=-113.6701615\CCSD(T)=-113.6896296\RMSD=6.008e-09\PG=
 Normal termination of Gaussian 09 at Sat Mar  9 01:14:30 2019.
