 Gaussian 09, Revision E.01,
 Gaussian 09:  EM64L-G09RevE.01 30-Nov-2015

 --------------------------------------
 #p ccsd(t,maxcyc=200)/6-311++G(3df,2p)
 --------------------------------------

 -------------
 ccsd(t) iener
 -------------
 Symbolic Z-matrix:
 Charge = -1 Multiplicity = 1

                         Standard orientation:
 ---------------------------------------------------------------------
 Center     Atomic      Atomic             Coordinates (Angstroms)
 Number     Number       Type             X           Y           Z
 ---------------------------------------------------------------------
      1          6           0        0.163275    0.566140    0.000000
      2          1           0       -2.285845    1.217370    0.000000
      3          8           0        0.163275   -0.576776    0.000000
 ---------------------------------------------------------------------

 SCF Done:  E(RHF) =  -113.265042690     A.U. after   13 cycles
 E2 =    -0.3849913956D+00 EUMP2 =    -0.11365003408539D+03
 CCSD(T)
 CCSD(T)= -0.11368083779D+03

 The electronic state is 1-A'.
 Alpha  occ. eigenvalues --  -20.47441 -11.18189  -1.32636  -0.62138  -0.45454
 Alpha  occ. eigenvalues --   -0.45025  -0.36840  -0.04853
 Alpha virt. eigenvalues --    0.19819   0.23308   0.23847   0.27542   0.30994
 Alpha virt. eigenvalues --    0.33968   0.35321   0.40925   0.43599   0.43951
 Alpha virt. eigenvalues --    0.49394   0.62335   0.66575   0.70544   0.77997

 Mulliken charges:
               1
     1  C    0.377450
     2  H   -0.959334
     3  O   -0.418116
 Sum of Mulliken charges =  -1.00000

 Dipole moment (field-independent basis, Debye):
    X=             10.1599    Y=             -5.0321    Z=              0.0000  Tot=             11.3378
 Quadrupole moment (field-independent basis, Debye-Ang):
   XX=            -43.4112   YY=            -26.2130   ZZ=            -16.9727
   XY=             13.2464   XZ=              0.0000   YZ=              0.0000

 DQ=-113.6640868\CCSD=-113.6623852\CCSD(T)=-113.6808378\RMSD=7.253e-09\
 Normal termination of Gaussian 09 at Sat Mar  9 02:59:57 2019.
