 Gaussian 09, Revision E.01,
 Gaussian 09:  EM64L-G09RevE.01 30-Nov-2015

 --------------------------------------
 #p ccsd(t,maxcyc=200)/6-311++G(3df,2p)
 --------------------------------------

 -------------
 ccsd(t) iener
 -------------
 Symbolic Z-matrix:
 Charge = -1 Multiplicity = 1

                         Standard orientation:
 ---------------------------------------------------------------------
 Center     Atomic      Atomic             Coordinates (Angstroms)
 Number     Number       Type             X           Y           Z
 ---------------------------------------------------------------------
      1          6           0        0.077960    0.622597    0.000000
      2          1           0       -1.091434    1.060491    0.000000
      3          8           0        0.077960   -0.599509    0.000000
 ---------------------------------------------------------------------

 SCF Done:  E(RHF) =  -113.260349746     A.U. after   14 cycles
 E2 =    -0.4022228609D+00 EUMP2 =    -0.11366257260728D+03
 CCSD(T)
 CCSD(T)= -0.11368962058D+03

 The electronic state is 1-A'.
 Alpha  occ. eigenvalues --  -20.30417 -11.04375  -1.12651  -0.51117  -0.36583
 Alpha  occ. eigenvalues --   -0.28957  -0.27239  -0.04049
 Alpha virt. eigenvalues --    0.19576   0.25020   0.26218   0.28725   0.33433
 Alpha virt. eigenvalues --    0.41213   0.44778   0.47730   0.49014   0.49734
 Alpha virt. eigenvalues --    0.54558   0.67783   0.72271   0.74921   0.81269

 Mulliken charges:
               1
     1  C   -0.124771
     2  H   -0.232986
     3  O   -0.642243
 Sum of Mulliken charges =  -1.00000

 Dipole moment (field-independent basis, Debye):
    X=             -0.4553    Y=             -1.4980    Z=              0.0000  Tot=              1.5657
 Quadrupole moment (field-independent basis, Debye-Ang):
   XX=            -19.7203   YY=            -21.0999   ZZ=            -14.7002
   XY=             -0.3809   XZ=              0.0000   YZ=              0.0000

 Q=-113.6722732\CCSD=-113.6701559\CCSD(T)=-113.6896206\RMSD=6.005e-09\P
 Normal termination of Gaussian 09 at Sat Mar  9 01:14:35 2019.
