 Gaussian 09, Revision E.01,
 Gaussian 09:  EM64L-G09RevE.01 30-Nov-2015

 --------------------------------------
 #p ccsd(t,maxcyc=200)/6-311++G(3df,2p)
 --------------------------------------

 -------------
 ccsd(t) iener
 -------------
 Symbolic Z-matrix:
 Charge = -1 Multiplicity = 3

                         Standard orientation:
 ---------------------------------------------------------------------
 Center     Atomic      Atomic             Coordinates (Angstroms)
 Number     Number       Type             X           Y           Z
 ---------------------------------------------------------------------
      1          6           0       -0.133407    0.733876    0.000000
      2          1           0        1.867700   -0.698412    0.000000
      3          8           0       -0.133407   -0.463105    0.000000
 ---------------------------------------------------------------------

 SCF Done:  E(UHF) =  -113.194853486     A.U. after   20 cycles
 E2 =    -0.3753721466D+00 EUMP2 =    -0.11357022563264D+03
 CCSD(T)
 CCSD(T)= -0.11359531906D+03

 The electronic state is 3-A'.
 Alpha  occ. eigenvalues --  -20.34547 -11.04442  -1.18225  -0.52363  -0.41430
 Alpha  occ. eigenvalues --   -0.31554  -0.28158  -0.24045   0.01748
 Alpha virt. eigenvalues --    0.20936   0.25422   0.25741   0.27600   0.32601
 Alpha virt. eigenvalues --    0.40953   0.43697   0.48313   0.48584   0.54926
 Alpha virt. eigenvalues --    0.65854   0.66358   0.70104   0.75248   0.81330

  Beta  occ. eigenvalues --  -20.33174 -11.03229  -1.14938  -0.47781  -0.30526
  Beta  occ. eigenvalues --   -0.28223  -0.22385
  Beta virt. eigenvalues --    0.18722   0.25356   0.26211   0.28236   0.29848
  Beta virt. eigenvalues --    0.33474   0.42026   0.44574   0.46939   0.49022
  Beta virt. eigenvalues --    0.51360   0.55841   0.69238   0.72892   0.75929

 Mulliken charges and spin densities:
               1          2
     1  C   -0.432915   0.968293
     2  H   -0.074946   1.037403
     3  O   -0.492140  -0.005695
 Sum of Mulliken charges =  -1.00000   2.00000

 Dipole moment (field-independent basis, Debye):
    X=              0.0899    Y=             -2.2269    Z=             -0.0000  Tot=              2.2287
 Quadrupole moment (field-independent basis, Debye-Ang):
   XX=            -22.7869   YY=            -22.3493   ZZ=            -15.6271
   XY=              1.4351   XZ=              0.0000   YZ=             -0.0000

 8146\CCSD=-113.5763074\CCSD(T)=-113.5953191\S2=2.010767\S2-1=2.001589\
 Normal termination of Gaussian 09 at Sat Mar  9 03:00:46 2019.
