 Gaussian 09, Revision E.01,
 Gaussian 09:  EM64L-G09RevE.01 30-Nov-2015

 --------------------------------------
 #p ccsd(t,maxcyc=200)/6-311++G(3df,2p)
 --------------------------------------

 -------------
 ccsd(t) iener
 -------------
 Symbolic Z-matrix:
 Charge = -1 Multiplicity = 3

                         Standard orientation:
 ---------------------------------------------------------------------
 Center     Atomic      Atomic             Coordinates (Angstroms)
 Number     Number       Type             X           Y           Z
 ---------------------------------------------------------------------
      1          6           0        0.061466    0.879695    0.000000
      2          1           0       -0.860531   -0.835821    0.000000
      3          8           0        0.061466   -0.555294    0.000000
 ---------------------------------------------------------------------

 SCF Done:  E(UHF) =  -113.198136705     A.U. after   17 cycles
 E2 =    -0.3667650362D+00 EUMP2 =    -0.11356490174088D+03
 CCSD(T)
 CCSD(T)= -0.11359564235D+03

 The electronic state is 3-A".
 Alpha  occ. eigenvalues --  -20.33676 -10.99091  -1.12901  -0.57953  -0.41386
 Alpha  occ. eigenvalues --   -0.33178  -0.23950  -0.06452  -0.03681
 Alpha virt. eigenvalues --    0.18320   0.27858   0.29135   0.29862   0.30660
 Alpha virt. eigenvalues --    0.42645   0.44679   0.46491   0.48271   0.57509
 Alpha virt. eigenvalues --    0.67066   0.68431   0.73198   0.81097   0.82599

  Beta  occ. eigenvalues --  -20.32999 -10.95142  -1.10343  -0.49182  -0.35734
  Beta  occ. eigenvalues --   -0.26881  -0.13487
  Beta virt. eigenvalues --    0.18380   0.27080   0.27821   0.29306   0.30908
  Beta virt. eigenvalues --    0.41883   0.45051   0.46140   0.47534   0.50648
  Beta virt. eigenvalues --    0.50966   0.58212   0.71495   0.73678   0.78476

 Mulliken charges and spin densities:
               1          2
     1  C   -0.684723   2.107876
     2  H    0.173455  -0.005456
     3  O   -0.488732  -0.102420
 Sum of Mulliken charges =  -1.00000   2.00000

 Dipole moment (field-independent basis, Debye):
    X=             -1.6232    Y=             -4.2855    Z=              0.0000  Tot=              4.5826
 Quadrupole moment (field-independent basis, Debye-Ang):
   XX=            -15.4467   YY=            -22.7662   ZZ=            -17.7541
   XY=              1.4403   XZ=              0.0000   YZ=              0.0000

 217\CCSD=-113.5796522\CCSD(T)=-113.5956423\S2=2.030643\S2-1=2.01404\S2
 Normal termination of Gaussian 09 at Sat Mar  9 03:00:30 2019.
