 Gaussian 09, Revision E.01,
 Gaussian 09:  EM64L-G09RevE.01 30-Nov-2015

 --------------------------------------
 #p ccsd(t,maxcyc=200)/6-311++G(3df,2p)
 --------------------------------------

 -------------
 ccsd(t) iener
 -------------
 Symbolic Z-matrix:
 Charge = -1 Multiplicity = 3

                         Standard orientation:
 ---------------------------------------------------------------------
 Center     Atomic      Atomic             Coordinates (Angstroms)
 Number     Number       Type             X           Y           Z
 ---------------------------------------------------------------------
      1          6           0        0.060216    0.621736    0.000000
      2          1           0       -0.843027    1.275705    0.000000
      3          8           0        0.060216   -0.625765    0.000000
 ---------------------------------------------------------------------

 SCF Done:  E(UHF) =  -113.239151569     A.U. after   17 cycles
 E2 =    -0.3829508678D+00 EUMP2 =    -0.11362210243688D+03
 CCSD(T)
 CCSD(T)= -0.11364881190D+03

 The electronic state is 3-A".
 Alpha  occ. eigenvalues --  -20.29129 -11.02841  -1.11747  -0.58514  -0.38593
 Alpha  occ. eigenvalues --   -0.33635  -0.32213  -0.10126  -0.00505
 Alpha virt. eigenvalues --    0.18294   0.25174   0.27599   0.29156   0.32876
 Alpha virt. eigenvalues --    0.45625   0.45719   0.49148   0.50894   0.54582
 Alpha virt. eigenvalues --    0.66307   0.69934   0.71899   0.78758   0.79801

  Beta  occ. eigenvalues --  -20.26360 -10.99886  -1.04720  -0.47270  -0.33151
  Beta  occ. eigenvalues --   -0.20201  -0.18712
  Beta virt. eigenvalues --    0.18616   0.25156   0.26554   0.27343   0.32882
  Beta virt. eigenvalues --    0.40901   0.45681   0.46171   0.49661   0.51976
  Beta virt. eigenvalues --    0.52753   0.55494   0.70182   0.73386   0.75344

 Mulliken charges and spin densities:
               1          2
     1  C   -0.284752   1.610642
     2  H    0.029949   0.099794
     3  O   -0.745197   0.289564
 Sum of Mulliken charges =  -1.00000   2.00000

 Dipole moment (field-independent basis, Debye):
    X=             -0.9368    Y=             -0.1436    Z=              0.0000  Tot=              0.9477
 Quadrupole moment (field-independent basis, Debye-Ang):
   XX=            -15.8163   YY=            -19.3273   ZZ=            -18.2101
   XY=             -0.7305   XZ=              0.0000   YZ=              0.0000

 314279\CCSD=-113.6308431\CCSD(T)=-113.6488119\S2=2.029128\S2-1=2.00922
 Normal termination of Gaussian 09 at Sat Mar  9 03:00:40 2019.
