 Gaussian 09, Revision E.01,
 Gaussian 09:  EM64L-G09RevE.01 30-Nov-2015

 --------------------------------------
 #p ccsd(t,maxcyc=200)/6-311++G(3df,2p)
 --------------------------------------

 -------------
 ccsd(t) iener
 -------------
 Symbolic Z-matrix:
 Charge = -1 Multiplicity = 1

                         Standard orientation:
 ---------------------------------------------------------------------
 Center     Atomic      Atomic             Coordinates (Angstroms)
 Number     Number       Type             X           Y           Z
 ---------------------------------------------------------------------
      1          6           0        0.077938    0.622670    0.000000
      2          1           0       -1.091127    1.060345    0.000000
      3          8           0        0.077938   -0.599545    0.000000
 ---------------------------------------------------------------------

 SCF Done:  E(RHF) =  -113.260351887     A.U. after   14 cycles
 E2 =    -0.4022276134D+00 EUMP2 =    -0.11366257950047D+03
 CCSD(T)
 CCSD(T)= -0.11368962546D+03

 The electronic state is 1-A'.
 Alpha  occ. eigenvalues --  -20.30412 -11.04369  -1.12640  -0.51119  -0.36580
 Alpha  occ. eigenvalues --   -0.28952  -0.27230  -0.04049
 Alpha virt. eigenvalues --    0.19574   0.25021   0.26218   0.28726   0.33433
 Alpha virt. eigenvalues --    0.41214   0.44780   0.47730   0.49015   0.49736
 Alpha virt. eigenvalues --    0.54560   0.67784   0.72274   0.74920   0.81271

 Mulliken charges:
               1
     1  C   -0.125236
     2  H   -0.232373
     3  O   -0.642391
 Sum of Mulliken charges =  -1.00000

 Dipole moment (field-independent basis, Debye):
    X=             -0.4591    Y=             -1.4961    Z=              0.0000  Tot=              1.5649
 Quadrupole moment (field-independent basis, Debye-Ang):
   XX=            -19.7145   YY=            -21.0985   ZZ=            -14.7000
   XY=             -0.3863   XZ=              0.0000   YZ=              0.0000

 Q=-113.6722782\CCSD=-113.6701612\CCSD(T)=-113.6896255\RMSD=6.023e-09\P
 Normal termination of Gaussian 09 at Sat Mar  9 01:14:33 2019.
