 Gaussian 09, Revision E.01,
 Gaussian 09:  EM64L-G09RevE.01 30-Nov-2015

 --------------------------------------
 #p ccsd(t,maxcyc=200)/6-311++G(3df,2p)
 --------------------------------------

 -------------
 ccsd(t) iener
 -------------
 Symbolic Z-matrix:
 Charge = -1 Multiplicity = 1

                         Standard orientation:
 ---------------------------------------------------------------------
 Center     Atomic      Atomic             Coordinates (Angstroms)
 Number     Number       Type             X           Y           Z
 ---------------------------------------------------------------------
      1          1           0        0.000000    0.000000   -0.856961
      2          8           0        0.000000    0.000000    0.107120
 ---------------------------------------------------------------------

 SCF Done:  E(RHF) =  -75.4082218488     A.U. after   11 cycles
 E2 =    -0.2803229028D+00 EUMP2 =    -0.75688544751549D+02
 CCSD(T)
 CCSD(T)= -0.75696067306D+02

 The electronic state is 1-SG.
 Alpha  occ. eigenvalues --  -20.17978  -0.89738  -0.24688  -0.10540  -0.10540
 Alpha virt. eigenvalues --    0.22218   0.46785   0.49220   0.49220   0.49382
 Alpha virt. eigenvalues --    0.55884   1.00073   1.15992   1.15992   1.30080
 Alpha virt. eigenvalues --    1.30080   1.39191   1.57896   1.57896   1.59549

 Mulliken charges:
               1
     1  H    0.111039
     2  O   -1.111039
 Sum of Mulliken charges =  -1.00000

 Dipole moment (field-independent basis, Debye):
    X=              0.0000    Y=              0.0000    Z=             -1.6024  Tot=              1.6024
 Quadrupole moment (field-independent basis, Debye-Ang):
   XX=             -9.7256   YY=             -9.7256   ZZ=             -7.5471
   XY=              0.0000   XZ=              0.0000   YZ=              0.0000

 \MP4DQ=-75.6832322\MP4SDQ=-75.6873587\CCSD=-75.6852651\CCSD(T)=-75.696
 Normal termination of Gaussian 09 at Sat Mar  9 03:00:54 2019.
