 Gaussian 09, Revision E.01,
 Gaussian 09:  EM64L-G09RevE.01 30-Nov-2015

 --------------------------------------
 #p ccsd(t,maxcyc=200)/6-311++G(3df,2p)
 --------------------------------------

 -------------
 ccsd(t) iener
 -------------
 Symbolic Z-matrix:
 Charge = -1 Multiplicity = 4

                         Standard orientation:
 ---------------------------------------------------------------------
 Center     Atomic      Atomic             Coordinates (Angstroms)
 Number     Number       Type             X           Y           Z
 ---------------------------------------------------------------------
      1          8           0        0.000000    0.000000    0.000000
 ---------------------------------------------------------------------

 SCF Done:  E(UHF) =  -74.6308168573     A.U. after   11 cycles
 E2 =    -0.1556523131D+00 EUMP2 =    -0.74786469170414D+02
 CCSD(T)
 CCSD(T)= -0.74808401974D+02

 Unable to determine electronic state:  an orbital has unidentified symmetry.
 Alpha  occ. eigenvalues --  -20.43239  -1.14649  -0.42826  -0.42826  -0.32788
 Alpha  occ. eigenvalues --    0.17591
 Alpha virt. eigenvalues --    0.39587   0.39587   0.41207   1.16039   1.16039
 Alpha virt. eigenvalues --    1.18885   1.18885   1.19833   1.40022   1.40022
 Alpha virt. eigenvalues --    1.45333   1.65147   3.83375   3.83375   3.89794

  Beta  occ. eigenvalues --  -20.34842  -0.79234  -0.23740
  Beta virt. eigenvalues --    0.33893   0.33893   0.44346   0.46938   0.54920
  Beta virt. eigenvalues --    0.54920   1.23995   1.24249   1.24249   1.25306
  Beta virt. eigenvalues --    1.25306   1.50072   1.58038   1.58038   1.76338

 Mulliken charges and spin densities:
               1          2
     1  O   -1.000000   3.000000
 Sum of Mulliken charges =  -1.00000   3.00000

 Dipole moment (field-independent basis, Debye):
    X=              0.0000    Y=              0.0000    Z=              0.0000  Tot=              0.0000
 Quadrupole moment (field-independent basis, Debye-Ang):
   XX=            -11.1532   YY=            -11.1532   ZZ=            -12.4891
   XY=              0.0000   XZ=             -0.0000   YZ=              0.0000

 447\CCSD(T)=-74.808402\S2=3.755728\S2-1=3.750429\S2A=3.750006\RMSD=5.5
 Normal termination of Gaussian 09 at Sat Mar  9 03:00:55 2019.
