 Gaussian 09, Revision E.01,
 Gaussian 09:  EM64L-G09RevE.01 30-Nov-2015

 -------------------------------------------------
 #p b3lyp/6-311++G(3df,2p) opt freq symmetry=Loose
 -------------------------------------------------

 ---------
 b3lyp opt
 ---------
 Symbolic Z-matrix:
 Charge = -1 Multiplicity = 2

 SCF Done:  E(UB3LYP) =  -37.8528411448     A.U. after   11 cycles
 Optimization completed.
    -- Stationary point found.
 Normal termination of Gaussian 09 at Wed Jan 23 21:57:49 2019.

 ----------------------------------------------------------------------
 #P Geom=AllCheck Guess=TCheck SCRF=Check GenChk UB3LYP/6-311++G(3df,2p
 ) Freq
 ----------------------------------------------------------------------

 Structure from the checkpoint file:  "/scratch/sergio/C.q-1.m2-1.com-4919744/Gau-7027.chk"
 ---------
 b3lyp opt
 ---------
 Charge = -1 Multiplicity = 2

                         Standard orientation:
 ---------------------------------------------------------------------
 Center     Atomic      Atomic             Coordinates (Angstroms)
 Number     Number       Type             X           Y           Z
 ---------------------------------------------------------------------
      1          6           0        0.000000    0.000000    0.000000
 ---------------------------------------------------------------------

 SCF Done:  E(UB3LYP) =  -37.8528411448     A.U. after    1 cycles

 Unable to determine electronic state:  an orbital has unidentified symmetry.
 Alpha  occ. eigenvalues --   -9.98627  -0.26935   0.02672   0.06622
 Alpha virt. eigenvalues --    0.11963   0.21031   0.23286   0.24140   0.24774
 Alpha virt. eigenvalues --    0.56029   0.56317   0.57180   0.57330   0.57961
 Alpha virt. eigenvalues --    0.76138   0.78170   0.78881   0.88822   1.82403

  Beta  occ. eigenvalues --   -9.97275  -0.21674   0.08270
  Beta virt. eigenvalues --    0.13063   0.15941   0.21595   0.24603   0.25256
  Beta virt. eigenvalues --    0.27179   0.57336   0.57644   0.58255   0.58847
  Beta virt. eigenvalues --    0.59328   0.79037   0.79935   0.82089   0.91397

 Mulliken charges and spin densities:
               1          2
     1  C   -1.000000   1.000000
 Sum of Mulliken charges =  -1.00000   1.00000

 Dipole moment (field-independent basis, Debye):
    X=              0.0000    Y=              0.0000    Z=              0.0000  Tot=              0.0000
 Quadrupole moment (field-independent basis, Debye-Ang):
   XX=            -12.9054   YY=            -19.2754   ZZ=             -9.6873
   XY=              0.0000   XZ=              0.0000   YZ=             -0.0000

  Exact polarizability:  30.680   0.000  74.702   0.000   0.000  17.264
 Approx polarizability:  30.441  -0.000  70.940  -0.000  -0.000  24.817

 - Thermochemistry -
 -------------------
 Temperature   298.150 Kelvin.  Pressure   1.00000 Atm.
 Atom     1 has atomic number  6 and mass  12.00000
 Molecular mass:    12.00000 amu.
 Zero-point vibrational energy          0.0 (Joules/Mol)
                                    0.00000 (Kcal/Mol)
 Vibrational temperatures:
          (Kelvin)

 Zero-point correction=                           0.000000 (Hartree/Particle)
 Thermal correction to Energy=                    0.001416
 Thermal correction to Enthalpy=                  0.002360
 Thermal correction to Gibbs Free Energy=        -0.014162
 Sum of electronic and zero-point Energies=            -37.852841
 Sum of electronic and thermal Energies=               -37.851425
 Sum of electronic and thermal Enthalpies=             -37.850481
 Sum of electronic and thermal Free Energies=          -37.867004

                     E (Thermal)             CV                S
                      KCal/Mol        Cal/Mol-Kelvin    Cal/Mol-Kelvin
 Total                    0.889              2.981             34.775
 Electronic               0.000              0.000              1.377
 Translational            0.889              2.981             33.398
 Rotational               0.000              0.000              0.000
 Vibrational              0.000              0.000              0.000

 Optimization completed.
    -- Stationary point found.
 Normal termination of Gaussian 09 at Wed Jan 23 21:57:57 2019.
