 Gaussian 09, Revision E.01,
 Gaussian 09:  EM64L-G09RevE.01 30-Nov-2015

 -------------------------------------------------
 #p b3lyp/6-311++G(3df,2p) opt freq symmetry=Loose
 -------------------------------------------------

 ---------
 b3lyp opt
 ---------
 Symbolic Z-matrix:
 Charge = -1 Multiplicity = 4

 SCF Done:  E(UB3LYP) =  -37.9072968600     A.U. after    8 cycles
 Optimization completed.
    -- Stationary point found.
 Normal termination of Gaussian 09 at Wed Jan 23 21:58:21 2019.

 ----------------------------------------------------------------------
 #P Geom=AllCheck Guess=TCheck SCRF=Check GenChk UB3LYP/6-311++G(3df,2p
 ) Freq
 ----------------------------------------------------------------------

 Structure from the checkpoint file:  "/scratch/sergio/C.q-1.m4-1.com-4919745/Gau-7128.chk"
 ---------
 b3lyp opt
 ---------
 Charge = -1 Multiplicity = 4

                         Standard orientation:
 ---------------------------------------------------------------------
 Center     Atomic      Atomic             Coordinates (Angstroms)
 Number     Number       Type             X           Y           Z
 ---------------------------------------------------------------------
      1          6           0        0.000000    0.000000    0.000000
 ---------------------------------------------------------------------

 SCF Done:  E(UB3LYP) =  -37.9072968600     A.U. after    1 cycles

 The electronic state is 4-A1G.
 Alpha  occ. eigenvalues --   -9.94592  -0.27831   0.04678   0.04678   0.04678
 Alpha virt. eigenvalues --    0.21110   0.23960   0.23960   0.23960   0.56917
 Alpha virt. eigenvalues --    0.56917   0.56917   0.56917   0.56917   0.77745
 Alpha virt. eigenvalues --    0.77745   0.77745   0.89029   1.84522   1.84522

  Beta  occ. eigenvalues --   -9.91296  -0.14571
  Beta virt. eigenvalues --    0.17719   0.17719   0.17719   0.23076   0.29282
  Beta virt. eigenvalues --    0.29282   0.29282   0.60709   0.60709   0.60709
  Beta virt. eigenvalues --    0.60709   0.60709   0.84591   0.84591   0.84591

 Mulliken charges and spin densities:
               1          2
     1  C   -1.000000   3.000000
 Sum of Mulliken charges =  -1.00000   3.00000

 Dipole moment (field-independent basis, Debye):
    X=              0.0000    Y=              0.0000    Z=              0.0000  Tot=              0.0000
 Quadrupole moment (field-independent basis, Debye-Ang):
   XX=            -12.6272   YY=            -12.6272   ZZ=            -12.6272
   XY=              0.0000   XZ=              0.0000   YZ=             -0.0000

  Exact polarizability:  37.385   0.000  37.385  -0.000  -0.000  37.385
 Approx polarizability:  35.973  -0.000  35.973  -0.000  -0.000  35.973

 - Thermochemistry -
 -------------------
 Temperature   298.150 Kelvin.  Pressure   1.00000 Atm.
 Atom     1 has atomic number  6 and mass  12.00000
 Molecular mass:    12.00000 amu.
 Zero-point vibrational energy          0.0 (Joules/Mol)
                                    0.00000 (Kcal/Mol)
 Vibrational temperatures:
          (Kelvin)

 Zero-point correction=                           0.000000 (Hartree/Particle)
 Thermal correction to Energy=                    0.001416
 Thermal correction to Enthalpy=                  0.002360
 Thermal correction to Gibbs Free Energy=        -0.014817
 Sum of electronic and zero-point Energies=            -37.907297
 Sum of electronic and thermal Energies=               -37.905881
 Sum of electronic and thermal Enthalpies=             -37.904936
 Sum of electronic and thermal Free Energies=          -37.922114

                     E (Thermal)             CV                S
                      KCal/Mol        Cal/Mol-Kelvin    Cal/Mol-Kelvin
 Total                    0.889              2.981             36.153
 Electronic               0.000              0.000              2.755
 Translational            0.889              2.981             33.398
 Rotational               0.000              0.000              0.000
 Vibrational              0.000              0.000              0.000

 Optimization completed.
    -- Stationary point found.
 Normal termination of Gaussian 09 at Wed Jan 23 21:58:27 2019.
