 Gaussian 09, Revision E.01,
 Gaussian 09:  EM64L-G09RevE.01 30-Nov-2015

 -------------------------------------------------
 #p b3lyp/6-311++G(3df,2p) opt freq symmetry=Loose
 -------------------------------------------------

 ---------
 b3lyp opt
 ---------
 Symbolic Z-matrix:
 Charge = -1 Multiplicity = 2

 SCF Done:  E(UB3LYP) =  -76.0661165998     A.U. after   10 cycles
 SCF Done:  E(UB3LYP) =  -76.0662813013     A.U. after    8 cycles
 SCF Done:  E(UB3LYP) =  -76.0662818299     A.U. after    7 cycles
 Optimization completed.
    -- Stationary point found.
 Normal termination of Gaussian 09 at Fri Jan 25 14:29:05 2019.

 ----------------------------------------------------------------------
 #P Geom=AllCheck Guess=TCheck SCRF=Check GenChk UB3LYP/6-311++G(3df,2p
 ) Freq
 ----------------------------------------------------------------------

 Structure from the checkpoint file:  "/scratch/sergio/C2.q-1.m2-1.com-4921598/Gau-1338.chk"
 ---------
 b3lyp opt
 ---------
 Charge = -1 Multiplicity = 2

                         Standard orientation:
 ---------------------------------------------------------------------
 Center     Atomic      Atomic             Coordinates (Angstroms)
 Number     Number       Type             X           Y           Z
 ---------------------------------------------------------------------
      1          6           0        0.000000    0.000000    0.628966
      2          6           0        0.000000    0.000000   -0.628966
 ---------------------------------------------------------------------

 SCF Done:  E(UB3LYP) =  -76.0662818299     A.U. after    1 cycles

 The electronic state is 2-SGG.
 Alpha  occ. eigenvalues --   -9.93965  -9.93817  -0.49223  -0.14104  -0.05842
 Alpha  occ. eigenvalues --   -0.03471  -0.03471
 Alpha virt. eigenvalues --    0.19296   0.20484   0.21962   0.21962   0.22804
 Alpha virt. eigenvalues --    0.22804   0.25630   0.30968   0.32560   0.32560
 Alpha virt. eigenvalues --    0.53278   0.53278   0.58322   0.59249   0.64677

  Beta  occ. eigenvalues --   -9.93122  -9.92997  -0.46107  -0.08007  -0.02629
  Beta  occ. eigenvalues --   -0.02629
  Beta virt. eigenvalues --    0.06540   0.19625   0.21935   0.22378   0.22378
  Beta virt. eigenvalues --    0.22890   0.22890   0.25810   0.31172   0.33702
  Beta virt. eigenvalues --    0.33702   0.53336   0.53337   0.59573   0.60492

 Mulliken charges and spin densities:
               1          2
     1  C   -0.500000   0.500000
     2  C   -0.500000   0.500000
 Sum of Mulliken charges =  -1.00000   1.00000

 Dipole moment (field-independent basis, Debye):
    X=             -0.0000    Y=              0.0000    Z=              0.0000  Tot=              0.0000
 Quadrupole moment (field-independent basis, Debye-Ang):
   XX=            -17.0159   YY=            -17.0159   ZZ=            -19.0500
   XY=             -0.0000   XZ=              0.0000   YZ=              0.0000

  Exact polarizability:  83.780  -0.000  83.780  -0.000   0.000  68.169
 Approx polarizability:  46.011  -0.000  46.011  -0.000  -0.000 118.826

                      1
                     SGG
 Frequencies --   1841.0019
 Red. masses --     12.0000
 Frc consts  --     23.9629
 IR Inten    --      0.0000

 - Thermochemistry -
 -------------------
 Temperature   298.150 Kelvin.  Pressure   1.00000 Atm.
 Atom     1 has atomic number  6 and mass  12.00000

 Molecular mass:    24.00000 amu.
 Principal axes and moments of inertia in atomic units:
                           1         2         3
     Eigenvalues --     0.00000  33.90496  33.90496
           X           -0.00000   1.00000  -0.00000
           Y            0.00000   0.00000   1.00000
           Z            1.00000   0.00000  -0.00000
 This molecule is a prolate symmetric top.
 Rotational symmetry number  2.
 Rotational temperature (Kelvin)      2.55461
 Rotational constant (GHZ):          53.229412
 Zero-point vibrational energy      11011.6 (Joules/Mol)
                                    2.63184 (Kcal/Mol)
 Vibrational temperatures:   2648.79
          (Kelvin)

 Zero-point correction=                           0.004194 (Hartree/Particle)
 Thermal correction to Energy=                    0.006556
 Thermal correction to Enthalpy=                  0.007500
 Thermal correction to Gibbs Free Energy=        -0.014790
 Sum of electronic and zero-point Energies=            -76.062088
 Sum of electronic and thermal Energies=               -76.059726
 Sum of electronic and thermal Enthalpies=             -76.058782
 Sum of electronic and thermal Free Energies=          -76.081072

                     E (Thermal)             CV                S
                      KCal/Mol        Cal/Mol-Kelvin    Cal/Mol-Kelvin
 Total                    4.114              4.990             46.913
 Electronic               0.000              0.000              1.377
 Translational            0.889              2.981             35.464
 Rotational               0.592              1.987             10.068
 Vibrational              2.633              0.022              0.003

 Optimization completed.
    -- Stationary point found.
 Normal termination of Gaussian 09 at Fri Jan 25 14:29:51 2019.
