 Gaussian 09, Revision E.01,
 Gaussian 09:  EM64L-G09RevE.01 30-Nov-2015

 -------------------------------------------------
 #p b3lyp/6-311++G(3df,2p) opt freq symmetry=Loose
 -------------------------------------------------

 ---------
 b3lyp opt
 ---------
 Symbolic Z-matrix:
 Charge = -1 Multiplicity = 4

 SCF Done:  E(UB3LYP) =  -75.8863655598     A.U. after   12 cycles
 SCF Done:  E(UB3LYP) =  -75.9096187633     A.U. after   12 cycles
 SCF Done:  E(UB3LYP) =  -75.9127054259     A.U. after   10 cycles
 SCF Done:  E(UB3LYP) =  -75.9127201073     A.U. after    8 cycles
 Optimization completed.
    -- Stationary point found.
 Normal termination of Gaussian 09 at Fri Jan 25 14:29:09 2019.

 ----------------------------------------------------------------------
 #P Geom=AllCheck Guess=TCheck SCRF=Check GenChk UB3LYP/6-311++G(3df,2p
 ) Freq
 ----------------------------------------------------------------------

 Structure from the checkpoint file:  "/scratch/sergio/C2.q-1.m4-1.com-4921599/Gau-1337.chk"
 ---------
 b3lyp opt
 ---------
 Charge = -1 Multiplicity = 4

                         Standard orientation:
 ---------------------------------------------------------------------
 Center     Atomic      Atomic             Coordinates (Angstroms)
 Number     Number       Type             X           Y           Z
 ---------------------------------------------------------------------
      1          6           0        0.000000    0.000000    0.713510
      2          6           0        0.000000    0.000000   -0.713510
 ---------------------------------------------------------------------

 SCF Done:  E(UB3LYP) =  -75.9127201073     A.U. after    1 cycles

 Unable to determine electronic state:  an orbital has unidentified symmetry.
 Alpha  occ. eigenvalues --   -9.99323  -9.99288  -0.50469  -0.20266  -0.09182
 Alpha  occ. eigenvalues --   -0.08029  -0.04581   0.10630
 Alpha virt. eigenvalues --    0.18734   0.18903   0.19608   0.21635   0.22325
 Alpha virt. eigenvalues --    0.25027   0.25162   0.27865   0.30091   0.50399
 Alpha virt. eigenvalues --    0.50436   0.51825   0.58929   0.61381   0.62860

  Beta  occ. eigenvalues --   -9.97249  -9.97225  -0.42831  -0.10022  -0.02432
  Beta virt. eigenvalues --    0.06060   0.07867   0.19130   0.20249   0.21404
  Beta virt. eigenvalues --    0.21641   0.22375   0.23615   0.25343   0.29332
  Beta virt. eigenvalues --    0.30715   0.32844   0.52189   0.52385   0.55944

 Mulliken charges and spin densities:
               1          2
     1  C   -0.500000   1.500000
     2  C   -0.500000   1.500000
 Sum of Mulliken charges =  -1.00000   3.00000

 Dipole moment (field-independent basis, Debye):
    X=             -0.0000    Y=              0.0000    Z=             -0.0000  Tot=              0.0000
 Quadrupole moment (field-independent basis, Debye-Ang):
   XX=            -19.0349   YY=            -18.0188   ZZ=            -23.0757
   XY=             -0.0000   XZ=              0.0000   YZ=              0.0000

  Exact polarizability:  70.814   0.000 163.728   0.000  -0.000  95.071
 Approx polarizability:  56.922  -0.000  48.441  -0.000  -0.000 125.249

                      1
                     SGG
 Frequencies --   1181.0638
 Red. masses --     12.0000
 Frc consts  --      9.8623
 IR Inten    --      0.0000

 - Thermochemistry -
 -------------------
 Temperature   298.150 Kelvin.  Pressure   1.00000 Atm.
 Atom     1 has atomic number  6 and mass  12.00000

 Molecular mass:    24.00000 amu.
 Principal axes and moments of inertia in atomic units:
                           1         2         3
     Eigenvalues --     0.00000  43.63246  43.63246
           X           -0.00000   1.00000  -0.00000
           Y            0.00000   0.00000   1.00000
           Z            1.00000   0.00000  -0.00000
 This molecule is a prolate symmetric top.
 Rotational symmetry number  2.
 Rotational temperature (Kelvin)      1.98508
 Rotational constant (GHZ):          41.362355
 Zero-point vibrational energy       7064.3 (Joules/Mol)
                                    1.68842 (Kcal/Mol)
 Vibrational temperatures:   1699.29
          (Kelvin)

 Zero-point correction=                           0.002691 (Hartree/Particle)
 Thermal correction to Energy=                    0.005069
 Thermal correction to Enthalpy=                  0.006013
 Thermal correction to Gibbs Free Energy=        -0.017189
 Sum of electronic and zero-point Energies=            -75.910029
 Sum of electronic and thermal Energies=               -75.907651
 Sum of electronic and thermal Enthalpies=             -75.906707
 Sum of electronic and thermal Free Energies=          -75.929909

                     E (Thermal)             CV                S
                      KCal/Mol        Cal/Mol-Kelvin    Cal/Mol-Kelvin
 Total                    3.181              5.186             48.833
 Electronic               0.000              0.000              2.755
 Translational            0.889              2.981             35.464
 Rotational               0.592              1.987             10.570
 Vibrational              1.700              0.218              0.045

 Optimization completed.
    -- Stationary point found.
 Normal termination of Gaussian 09 at Fri Jan 25 14:29:51 2019.
