 Gaussian 09, Revision E.01,
 Gaussian 09:  EM64L-G09RevE.01 30-Nov-2015

 ------------------------------------------------------
 #p b3lyp/6-311++G(3df,2p) freq IOp(2/17=3) IOp(2/18=3)
 ------------------------------------------------------

 ---------
 b3lyp opt
 ---------
 Symbolic Z-matrix:
 Charge = -1 Multiplicity = 2

                         Standard orientation:
 ---------------------------------------------------------------------
 Center     Atomic      Atomic             Coordinates (Angstroms)
 Number     Number       Type             X           Y           Z
 ---------------------------------------------------------------------
      1          6           0        0.000000    0.000000   -0.098400
      2          6           0        0.000000    0.000000   -1.404492
      3          8           0       -0.000000   -0.000000    1.127169
 ---------------------------------------------------------------------

 SCF Done:  E(UB3LYP) =  -151.400775096     A.U. after   13 cycles

 Unable to determine electronic state:  an orbital has unidentified symmetry.
 Alpha  occ. eigenvalues --  -18.94642 -10.02045  -9.94929  -0.85234  -0.51029
 Alpha  occ. eigenvalues --   -0.28898  -0.22111  -0.20162  -0.07071  -0.03282
 Alpha  occ. eigenvalues --   -0.00533
 Alpha virt. eigenvalues --    0.15991   0.19569   0.21313   0.21654   0.23275
 Alpha virt. eigenvalues --    0.23673   0.24233   0.29893   0.30136   0.31722
 Alpha virt. eigenvalues --    0.36905   0.40510   0.40915   0.43528   0.49438

  Beta  occ. eigenvalues --  -18.93878 -10.01876  -9.94141  -0.83834  -0.48036
  Beta  occ. eigenvalues --   -0.27861  -0.19669  -0.17979  -0.05495   0.00383
  Beta virt. eigenvalues --    0.08234   0.16086   0.19695   0.21669   0.21877
  Beta virt. eigenvalues --    0.23688   0.23816   0.24400   0.30185   0.32210
  Beta virt. eigenvalues --    0.33919   0.37340   0.41017   0.41365   0.43603

 Mulliken charges and spin densities:
               1          2
     1  C    0.395245   0.111366
     2  C   -0.695057   0.627184
     3  O   -0.700188   0.261450
 Sum of Mulliken charges =  -1.00000   1.00000

 Dipole moment (field-independent basis, Debye):
    X=              0.0000    Y=             -0.0000    Z=              3.6335  Tot=              3.6335
 Quadrupole moment (field-independent basis, Debye-Ang):
   XX=            -21.9477   YY=            -19.6053   ZZ=            -34.9913
   XY=             -0.0000   XZ=             -0.0000   YZ=              0.0000

  Exact polarizability:  34.409   0.000  32.060  -0.000   0.000  59.514
 Approx polarizability:  42.307   0.000  39.979  -0.000  -0.000  91.205

                      1                      2                      3
                     PI                     PI                     SG
 Frequencies --    486.9536               540.2255              1148.9872
 Red. masses --     12.4324                12.4324                13.5088
 Frc consts  --      1.7369                 2.1377                10.5074
 IR Inten    --     35.7541                 0.0082                59.6914

                      4
                     SG
 Frequencies --   1862.8097
 Red. masses --     12.4764
 Frc consts  --     25.5081
 IR Inten    --    356.2635

 - Thermochemistry -
 -------------------
 Temperature   298.150 Kelvin.  Pressure   1.00000 Atm.
 Atom     1 has atomic number  6 and mass  12.00000

 Molecular mass:    39.99491 amu.
 Principal axes and moments of inertia in atomic units:
                           1         2         3
     Eigenvalues --     0.00000 157.51635 157.51635
           X           -0.00000   0.01042   0.99995
           Y           -0.00000   0.99995  -0.01042
           Z            1.00000   0.00000   0.00000
 This molecule is a prolate symmetric top.
 Rotational symmetry number  1.
 Rotational temperature (Kelvin)      0.54987
 Rotational constant (GHZ):          11.457485
 Zero-point vibrational energy      24158.4 (Joules/Mol)
                                    5.77401 (Kcal/Mol)
 Warning -- explicit consideration of   2 degrees of freedom as
           vibrations may cause significant error
 Vibrational temperatures:    700.62   777.26  1653.13  2680.16
          (Kelvin)

 Zero-point correction=                           0.009201 (Hartree/Particle)
 Thermal correction to Energy=                    0.012013
 Thermal correction to Enthalpy=                  0.012958
 Thermal correction to Gibbs Free Energy=        -0.012781
 Sum of electronic and zero-point Energies=           -151.391574
 Sum of electronic and thermal Energies=              -151.388762
 Sum of electronic and thermal Enthalpies=            -151.387817
 Sum of electronic and thermal Free Energies=         -151.413556

                     E (Thermal)             CV                S
                      KCal/Mol        Cal/Mol-Kelvin    Cal/Mol-Kelvin
 Total                    7.539              7.669             54.172
 Electronic               0.000              0.000              1.377
 Translational            0.889              2.981             36.986
 Rotational               0.592              1.987             14.498
 Vibrational              6.057              2.701              1.310
 Vibration     1          0.843              1.279              0.692
 Vibration     2          0.895              1.161              0.565

 Normal termination of Gaussian 09 at Thu Mar  7 08:15:16 2019.
