 Gaussian 09, Revision E.01,
 Gaussian 09:  EM64L-G09RevE.01 30-Nov-2015

 ------------------------------------------------------
 #p b3lyp/6-311++G(3df,2p) freq IOp(2/17=3) IOp(2/18=3)
 ------------------------------------------------------

 ---------
 b3lyp opt
 ---------
 Symbolic Z-matrix:
 Charge = -1 Multiplicity = 4

                         Standard orientation:
 ---------------------------------------------------------------------
 Center     Atomic      Atomic             Coordinates (Angstroms)
 Number     Number       Type             X           Y           Z
 ---------------------------------------------------------------------
      1          6           0        0.000000   -1.211271   -0.221726
      2          6           0        0.000000    1.211271   -0.221726
      3          8           0       -0.000000    0.000000    0.332517
 ---------------------------------------------------------------------

 SCF Done:  E(UB3LYP) =  -151.234368658     A.U. after   12 cycles

 The electronic state is 4-B1.
 Alpha  occ. eigenvalues --  -19.02458 -10.02154 -10.02151  -0.92369  -0.54106
 Alpha  occ. eigenvalues --   -0.31227  -0.26012  -0.19164  -0.14555   0.00835
 Alpha  occ. eigenvalues --    0.01050   0.03065
 Alpha virt. eigenvalues --    0.13547   0.17610   0.19301   0.19835   0.22307
 Alpha virt. eigenvalues --    0.22329   0.22543   0.23760   0.27877   0.37390
 Alpha virt. eigenvalues --    0.37943   0.38795   0.44806   0.47471   0.50242

  Beta  occ. eigenvalues --  -19.02411  -9.99962  -9.99961  -0.91158  -0.49891
  Beta  occ. eigenvalues --   -0.26824  -0.25077  -0.13233  -0.09859
  Beta virt. eigenvalues --    0.13385   0.15518   0.15519   0.16238   0.18117
  Beta virt. eigenvalues --    0.20057   0.20583   0.24432   0.25247   0.25739
  Beta virt. eigenvalues --    0.26446   0.28390   0.37601   0.37859   0.39854

 Mulliken charges and spin densities:
               1          2
     1  C   -0.483731   1.606142
     2  C   -0.483731   1.606142
     3  O   -0.032538  -0.212283
 Sum of Mulliken charges =  -1.00000   3.00000

 Dipole moment (field-independent basis, Debye):
    X=             -0.0000    Y=              0.0000    Z=              1.6426  Tot=              1.6426
 Quadrupole moment (field-independent basis, Debye-Ang):
   XX=            -21.1404   YY=            -35.4661   ZZ=            -24.4682
   XY=             -0.0000   XZ=              0.0000   YZ=             -0.0000

  Exact polarizability:  38.516  -0.000  96.865   0.000   0.000  49.409
 Approx polarizability:  47.570   0.000 123.943  -0.000  -0.000  54.271

                      1                      2                      3
                     B2                     A1                     A1
 Frequencies --    444.3344               506.4542              1045.6080
 Red. masses --     13.9259                13.3493                12.6156
 Frc consts  --      1.6199                 2.0174                 8.1264
 IR Inten    --    424.4006                 0.0741                29.3197

 - Thermochemistry -
 -------------------
 Temperature   298.150 Kelvin.  Pressure   1.00000 Atm.
 Atom     1 has atomic number  6 and mass  12.00000

 Molecular mass:    39.99491 amu.
 Principal axes and moments of inertia in atomic units:
                           1         2         3
     Eigenvalues --    10.52898 125.74533 136.27431
           X            0.00000   0.00000   1.00000
           Y            1.00000   0.00000  -0.00000
           Z            0.00000   1.00000   0.00000
 This molecule is an asymmetric top.
 Rotational symmetry number  2.
 Rotational temperatures (Kelvin)      8.22623     0.68880     0.63558
 Rotational constants (GHZ):         171.40703    14.35235    13.24344
 Zero-point vibrational energy      11941.1 (Joules/Mol)
                                    2.85399 (Kcal/Mol)
 Warning -- explicit consideration of   2 degrees of freedom as
           vibrations may cause significant error
 Vibrational temperatures:    639.30   728.67  1504.39
          (Kelvin)

 Zero-point correction=                           0.004548 (Hartree/Particle)
 Thermal correction to Energy=                    0.007900
 Thermal correction to Enthalpy=                  0.008844
 Thermal correction to Gibbs Free Energy=        -0.019534
 Sum of electronic and zero-point Energies=           -151.229821
 Sum of electronic and thermal Energies=              -151.226469
 Sum of electronic and thermal Enthalpies=            -151.225525
 Sum of electronic and thermal Free Energies=         -151.253902

                     E (Thermal)             CV                S
                      KCal/Mol        Cal/Mol-Kelvin    Cal/Mol-Kelvin
 Total                    4.957              8.901             59.725
 Electronic               0.000              0.000              2.755
 Translational            0.889              2.981             36.986
 Rotational               0.889              2.981             18.451
 Vibrational              3.180              2.939              1.533
 Vibration     1          0.804              1.373              0.813
 Vibration     2          0.862              1.236              0.642

 Optimization completed.
    -- Stationary point found.
 Normal termination of Gaussian 09 at Thu Mar  7 08:16:49 2019.
