 Gaussian 09, Revision E.01,
 Gaussian 09:  EM64L-G09RevE.01 30-Nov-2015

 ------------------------------------------------------
 #p b3lyp/6-311++G(3df,2p) freq IOp(2/17=3) IOp(2/18=3)
 ------------------------------------------------------

 ---------
 b3lyp opt
 ---------
 Symbolic Z-matrix:
 Charge = -1 Multiplicity = 2

                         Standard orientation:
 ---------------------------------------------------------------------
 Center     Atomic      Atomic             Coordinates (Angstroms)
 Number     Number       Type             X           Y           Z
 ---------------------------------------------------------------------
      1          6           0       -0.000000   -0.000000   -1.379548
      2          6           0       -0.000000    0.000000   -0.097580
      3          8           0        0.000000   -0.000000    1.107846
 ---------------------------------------------------------------------

 SCF Done:  E(UB3LYP) =  -151.400565847     A.U. after   13 cycles

 Unable to determine electronic state:  an orbital has unidentified symmetry.
 Alpha  occ. eigenvalues --  -18.94478 -10.01292  -9.94085  -0.86203  -0.51474
 Alpha  occ. eigenvalues --   -0.29052  -0.22725  -0.20756  -0.06578  -0.03210
 Alpha  occ. eigenvalues --   -0.00429
 Alpha virt. eigenvalues --    0.16005   0.19635   0.21313   0.21649   0.23453
 Alpha virt. eigenvalues --    0.23803   0.24225   0.30171   0.30865   0.32716
 Alpha virt. eigenvalues --    0.37268   0.40589   0.41022   0.43579   0.49529

  Beta  occ. eigenvalues --  -18.93708 -10.01127  -9.93294  -0.84811  -0.48444
  Beta  occ. eigenvalues --   -0.28008  -0.20258  -0.18576  -0.04994   0.00498
  Beta virt. eigenvalues --    0.08399   0.16096   0.19766   0.21667   0.21852
  Beta virt. eigenvalues --    0.23808   0.23928   0.24386   0.30220   0.33190
  Beta virt. eigenvalues --    0.34822   0.37662   0.41136   0.41538   0.43652

 Mulliken charges and spin densities:
               1          2
     1  C   -0.726087   0.631388
     2  C    0.438226   0.104648
     3  O   -0.712140   0.263964
 Sum of Mulliken charges =  -1.00000   1.00000

 Dipole moment (field-independent basis, Debye):
    X=              0.0000    Y=              0.0000    Z=              3.7688  Tot=              3.7688
 Quadrupole moment (field-independent basis, Debye-Ang):
   XX=            -19.5122   YY=            -21.8382   ZZ=            -34.9060
   XY=              0.0000   XZ=             -0.0000   YZ=             -0.0000

  Exact polarizability:  32.351   0.000  34.211  -0.000  -0.000  58.177
 Approx polarizability:  39.880   0.000  41.812   0.000   0.000  86.768

                      1                      2                      3
                     PI                     PI                     SG
 Frequencies --    421.6135               491.6356              1234.7775
 Red. masses --     12.4314                12.4314                13.5184
 Frc consts  --      1.3020                 1.7703                12.1438
 IR Inten    --     42.1262                 0.1217                60.0384

                      4
                     SG
 Frequencies --   2019.3835
 Red. masses --     12.4682
 Frc consts  --     29.9566
 IR Inten    --    376.2960

 - Thermochemistry -
 -------------------
 Temperature   298.150 Kelvin.  Pressure   1.00000 Atm.
 Atom     1 has atomic number  6 and mass  12.00000

 Molecular mass:    39.99491 amu.
 Principal axes and moments of inertia in atomic units:
                           1         2         3
     Eigenvalues --     0.00000 152.06674 152.06674
           X            0.00000   1.00000   0.00001
           Y           -0.00000  -0.00001   1.00000
           Z            1.00000  -0.00000   0.00000
 This molecule is a prolate symmetric top.
 Rotational symmetry number  1.
 Rotational temperature (Kelvin)      0.56958
 Rotational constant (GHZ):          11.868087
 Zero-point vibrational energy      24926.6 (Joules/Mol)
                                    5.95761 (Kcal/Mol)
 Warning -- explicit consideration of   2 degrees of freedom as
           vibrations may cause significant error
 Vibrational temperatures:    606.61   707.35  1776.57  2905.44
          (Kelvin)

 Zero-point correction=                           0.009494 (Hartree/Particle)
 Thermal correction to Energy=                    0.012389
 Thermal correction to Enthalpy=                  0.013333
 Thermal correction to Gibbs Free Energy=        -0.012512
 Sum of electronic and zero-point Energies=           -151.391072
 Sum of electronic and thermal Energies=              -151.388177
 Sum of electronic and thermal Enthalpies=            -151.387233
 Sum of electronic and thermal Free Energies=         -151.413077

                     E (Thermal)             CV                S
                      KCal/Mol        Cal/Mol-Kelvin    Cal/Mol-Kelvin
 Total                    7.774              7.854             54.395
 Electronic               0.000              0.000              1.377
 Translational            0.889              2.981             36.986
 Rotational               0.592              1.987             14.428
 Vibrational              6.293              2.886              1.603
 Vibration     1          0.784              1.423              0.887
 Vibration     2          0.847              1.269              0.679

 Normal termination of Gaussian 09 at Thu Mar  7 08:15:18 2019.
