 Gaussian 09, Revision E.01,
 Gaussian 09:  EM64L-G09RevE.01 30-Nov-2015

 ------------------------------------------------------
 #p b3lyp/6-311++G(3df,2p) freq IOp(2/17=3) IOp(2/18=3)
 ------------------------------------------------------

 ---------
 b3lyp opt
 ---------
 Symbolic Z-matrix:
 Charge = -1 Multiplicity = 4

                         Standard orientation:
 ---------------------------------------------------------------------
 Center     Atomic      Atomic             Coordinates (Angstroms)
 Number     Number       Type             X           Y           Z
 ---------------------------------------------------------------------
      1          6           0        0.000000    0.336353   -0.000000
      2          6           0        1.445578   -0.048575   -0.000000
      3          8           0       -1.084183   -0.215834    0.000000
 ---------------------------------------------------------------------

 SCF Done:  E(UB3LYP) =  -151.308303560     A.U. after   15 cycles

 The electronic state is 4-A".
 Alpha  occ. eigenvalues --  -18.97045 -10.05154  -9.99887  -0.87921  -0.49694
 Alpha  occ. eigenvalues --   -0.31431  -0.23479  -0.23168  -0.13154  -0.04068
 Alpha  occ. eigenvalues --   -0.03812   0.06044
 Alpha virt. eigenvalues --    0.16993   0.18850   0.19778   0.20331   0.20667
 Alpha virt. eigenvalues --    0.23601   0.24329   0.25361   0.29334   0.35374
 Alpha virt. eigenvalues --    0.37569   0.39053   0.40942   0.46774   0.50504

  Beta  occ. eigenvalues --  -18.95572 -10.04320  -9.97511  -0.85053  -0.42697
  Beta  occ. eigenvalues --   -0.28473  -0.19396  -0.17698  -0.07685
  Beta virt. eigenvalues --    0.08924   0.10102   0.15134   0.18631   0.20560
  Beta virt. eigenvalues --    0.21437   0.21440   0.22038   0.24697   0.27126
  Beta virt. eigenvalues --    0.29502   0.29989   0.35696   0.38298   0.39669

 Mulliken charges and spin densities:
               1          2
     1  C   -0.280102   1.219790
     2  C   -0.459835   1.613652
     3  O   -0.260063   0.166558
 Sum of Mulliken charges =  -1.00000   3.00000

 Dipole moment (field-independent basis, Debye):
    X=             -2.7223    Y=              0.3689    Z=              0.0000  Tot=              2.7472
 Quadrupole moment (field-independent basis, Debye-Ang):
   XX=            -33.8745   YY=            -25.0832   ZZ=            -21.6894
   XY=              1.6342   XZ=              0.0000   YZ=             -0.0000

  Exact polarizability:  89.227 -16.347  77.014   0.000  -0.000  52.949
 Approx polarizability: 110.656  -7.835  75.638   0.000  -0.000  58.073

                      1                      2                      3
                     A'                     A'                     A'
 Frequencies --    498.0313               792.2891              1593.5998
 Red. masses --     12.9108                12.2463                13.3773
 Frc consts  --      1.8868                 4.5292                20.0159
 IR Inten    --      4.0029                46.4338               201.7811

 - Thermochemistry -
 -------------------
 Temperature   298.150 Kelvin.  Pressure   1.00000 Atm.
 Atom     1 has atomic number  6 and mass  12.00000

 Molecular mass:    39.99491 amu.
 Principal axes and moments of inertia in atomic units:
                           1         2         3
     Eigenvalues --     6.89394 157.40587 164.29981
           X            0.99762  -0.06898   0.00000
           Y            0.06898   0.99762   0.00000
           Z            0.00000  -0.00000   1.00000
 This molecule is an asymmetric top.
 Rotational symmetry number  1.
 Rotational temperatures (Kelvin)     12.56376     0.55026     0.52717
 Rotational constants (GHZ):         261.78660    11.46553    10.98444
 Zero-point vibrational energy      17249.7 (Joules/Mol)
                                    4.12277 (Kcal/Mol)
 Warning -- explicit consideration of   1 degrees of freedom as
           vibrations may cause significant error
 Vibrational temperatures:    716.56  1139.93  2292.83
          (Kelvin)

 Zero-point correction=                           0.006570 (Hartree/Particle)
 Thermal correction to Energy=                    0.009712
 Thermal correction to Enthalpy=                  0.010656
 Thermal correction to Gibbs Free Energy=        -0.018062
 Sum of electronic and zero-point Energies=           -151.301734
 Sum of electronic and thermal Energies=              -151.298591
 Sum of electronic and thermal Enthalpies=            -151.297647
 Sum of electronic and thermal Free Energies=         -151.326365

                     E (Thermal)             CV                S
                      KCal/Mol        Cal/Mol-Kelvin    Cal/Mol-Kelvin
 Total                    6.094              7.933             60.443
 Electronic               0.000              0.000              2.755
 Translational            0.889              2.981             36.986
 Rotational               0.889              2.981             19.817
 Vibrational              4.317              1.972              0.885
 Vibration     1          0.854              1.254              0.663

 Normal termination of Gaussian 09 at Thu Mar  7 08:18:12 2019.
