 Gaussian 09, Revision E.01,
 Gaussian 09:  EM64L-G09RevE.01 30-Nov-2015

 ------------------------------------------------------
 #p b3lyp/6-311++G(3df,2p) freq IOp(2/17=3) IOp(2/18=3)
 ------------------------------------------------------

 ---------
 b3lyp opt
 ---------
 Symbolic Z-matrix:
 Charge = -1 Multiplicity = 2

                         Standard orientation:
 ---------------------------------------------------------------------
 Center     Atomic      Atomic             Coordinates (Angstroms)
 Number     Number       Type             X           Y           Z
 ---------------------------------------------------------------------
      1          6           0       -0.348967   -0.674620    0.000000
      2          6           0       -0.926810   -1.794996    0.000000
      3          6           0       -0.000000    0.636951    0.000000
      4          8           0        0.956832    1.374499   -0.000000
 ---------------------------------------------------------------------

 SCF Done:  E(UB3LYP) =  -189.505311209     A.U. after   18 cycles

 The electronic state is 2-A'.
 Alpha  occ. eigenvalues --  -18.97527 -10.08165  -9.97554  -9.96224  -0.89232
 Alpha  occ. eigenvalues --   -0.57223  -0.45207  -0.31359  -0.25392  -0.24261
 Alpha  occ. eigenvalues --   -0.10390  -0.09198  -0.08231   0.00829
 Alpha virt. eigenvalues --    0.11852   0.15023   0.18101   0.18670   0.19046
 Alpha virt. eigenvalues --    0.19648   0.21500   0.23248   0.25952   0.26900
 Alpha virt. eigenvalues --    0.26955   0.29692   0.32839   0.33674   0.35187

  Beta  occ. eigenvalues --  -18.96838 -10.07258  -9.97138  -9.96234  -0.87854
  Beta  occ. eigenvalues --   -0.56351  -0.43509  -0.30047  -0.23557  -0.21242
  Beta  occ. eigenvalues --   -0.09019  -0.08429  -0.07235
  Beta virt. eigenvalues --    0.11497   0.12868   0.15442   0.18148   0.18837
  Beta virt. eigenvalues --    0.19098   0.19657   0.21965   0.23381   0.26792
  Beta virt. eigenvalues --    0.26978   0.27397   0.30942   0.32951   0.34131

 Mulliken charges and spin densities:
               1          2
     1  C    0.935457  -0.411512
     2  C   -1.005642   0.393103
     3  C   -0.347333   0.880706
     4  O   -0.582482   0.137703
 Sum of Mulliken charges =  -1.00000   1.00000

 Dipole moment (field-independent basis, Debye):
    X=              1.6725    Y=              3.4945    Z=             -0.0000  Tot=              3.8741
 Quadrupole moment (field-independent basis, Debye-Ang):
   XX=            -32.2597   YY=            -44.0927   ZZ=            -25.5057
   XY=             -8.6403   XZ=              0.0000   YZ=              0.0000

  Exact polarizability:  52.726  18.047  83.265  -0.000   0.000  38.621
 Approx polarizability:  78.696  42.720 139.868  -0.000  -0.000  51.522

                      1                      2                      3
                     A"                     A'                     A'
 Frequencies --    225.1479               239.4156               526.6904
 Red. masses --     12.0786                12.6435                12.5663
 Frc consts  --      0.3607                 0.4270                 2.0538
 IR Inten    --      8.0564                 6.3954                 1.6687

                      4                      5                      6
                     A'                     A'                     A'
 Frequencies --    915.3071              1772.6487              1936.2984
 Red. masses --     12.7463                12.9926                12.1072
 Frc consts  --      6.2917                24.0542                26.7446
 IR Inten    --      2.5525               304.1090               534.9159

 - Thermochemistry -
 -------------------
 Temperature   298.150 Kelvin.  Pressure   1.00000 Atm.
 Atom     1 has atomic number  6 and mass  12.00000

 Molecular mass:    51.99491 amu.
 Principal axes and moments of inertia in atomic units:
                           1         2         3
     Eigenvalues --     5.89513 371.29922 377.19435
           X            0.49193   0.87063   0.00000
           Y            0.87063  -0.49193  -0.00000
           Z           -0.00000  -0.00000   1.00000
 This molecule is an asymmetric top.
 Rotational symmetry number  1.
 Rotational temperatures (Kelvin)     14.69243     0.23327     0.22963
 Rotational constants (GHZ):         306.14093     4.86061     4.78465
 Zero-point vibrational energy      33588.2 (Joules/Mol)
                                    8.02777 (Kcal/Mol)
 Warning -- explicit consideration of   3 degrees of freedom as
           vibrations may cause significant error
 Vibrational temperatures:    323.94   344.47   757.79  1316.92  2550.44
          (Kelvin)           2785.90

 Zero-point correction=                           0.012793 (Hartree/Particle)
 Thermal correction to Energy=                    0.016908
 Thermal correction to Enthalpy=                  0.017852
 Thermal correction to Gibbs Free Energy=        -0.013004
 Sum of electronic and zero-point Energies=           -189.492518
 Sum of electronic and thermal Energies=              -189.488403
 Sum of electronic and thermal Enthalpies=            -189.487459
 Sum of electronic and thermal Free Energies=         -189.518315

                     E (Thermal)             CV                S
                      KCal/Mol        Cal/Mol-Kelvin    Cal/Mol-Kelvin
 Total                   10.610             11.258             64.942
 Electronic               0.000              0.000              1.377
 Translational            0.889              2.981             37.769
 Rotational               0.889              2.981             21.340
 Vibrational              8.832              5.297              4.456
 Vibration     1          0.650              1.803              1.917
 Vibration     2          0.657              1.780              1.807
 Vibration     3          0.882              1.191              0.595

 Optimization completed.
    -- Stationary point found.
 Normal termination of Gaussian 09 at Thu Mar  7 08:29:53 2019.
