 Gaussian 09, Revision E.01,
 Gaussian 09:  EM64L-G09RevE.01 30-Nov-2015

 ------------------------------------------------------
 #p b3lyp/6-311++G(3df,2p) freq IOp(2/17=3) IOp(2/18=3)
 ------------------------------------------------------

 ---------
 b3lyp opt
 ---------
 Symbolic Z-matrix:
 Charge = -1 Multiplicity = 4

                         Standard orientation:
 ---------------------------------------------------------------------
 Center     Atomic      Atomic             Coordinates (Angstroms)
 Number     Number       Type             X           Y           Z
 ---------------------------------------------------------------------
      1          6           0       -0.000000    0.768379   -1.030887
      2          6           0       -0.000000   -0.768379   -1.030887
      3          6           0        0.000000    0.000000    0.186774
      4          8           0        0.000000    0.000000    1.406250
 ---------------------------------------------------------------------

 SCF Done:  E(UB3LYP) =  -189.350238048     A.U. after   13 cycles

 The electronic state is 4-B1.
 Alpha  occ. eigenvalues --  -18.93759 -10.07391 -10.01607 -10.01590  -0.85946
 Alpha  occ. eigenvalues --   -0.67156  -0.34476  -0.30680  -0.22940  -0.21104
 Alpha  occ. eigenvalues --   -0.17779  -0.11051  -0.09942  -0.02987   0.06844
 Alpha virt. eigenvalues --    0.16424   0.17158   0.17522   0.19833   0.22576
 Alpha virt. eigenvalues --    0.22593   0.22598   0.24088   0.25043   0.25753
 Alpha virt. eigenvalues --    0.25978   0.30147   0.30607   0.36944   0.37967

  Beta  occ. eigenvalues --  -18.93292 -10.07309  -9.99449  -9.99433  -0.84983
  Beta  occ. eigenvalues --   -0.63268  -0.29321  -0.27832  -0.22131  -0.15646
  Beta  occ. eigenvalues --   -0.10881  -0.05801
  Beta virt. eigenvalues --    0.03514   0.08512   0.17065   0.17852   0.17864
  Beta virt. eigenvalues --    0.18333   0.19949   0.22794   0.22851   0.22960
  Beta virt. eigenvalues --    0.25290   0.26191   0.27352   0.27409   0.30682

 Mulliken charges and spin densities:
               1          2
     1  C   -0.377346   1.416064
     2  C   -0.377346   1.416064
     3  C    0.483723   0.019798
     4  O   -0.729031   0.148075
 Sum of Mulliken charges =  -1.00000   3.00000

 Dipole moment (field-independent basis, Debye):
    X=              0.0000    Y=             -0.0000    Z=              1.4617  Tot=              1.4617
 Quadrupole moment (field-independent basis, Debye-Ang):
   XX=            -28.2398   YY=            -30.3362   ZZ=            -36.9060
   XY=             -0.0000   XZ=             -0.0000   YZ=             -0.0000

  Exact polarizability:  54.092   0.000  70.045  -0.000   0.000  63.519
 Approx polarizability:  58.283   0.000 105.410   0.000  -0.000 106.043

                      1                      2                      3
                     B2                     B2                     B1
 Frequencies --    384.7731               506.3211               550.9972
 Red. masses --     12.0170                12.7843                12.4435
 Frc consts  --      1.0482                 1.9310                 2.2258
 IR Inten    --      1.4199                 1.3066                 5.0776

                      4                      5                      6
                     A1                     A1                     A1
 Frequencies --    716.3001              1044.5204              1744.3522
 Red. masses --     12.4716                12.8588                12.8801
 Frc consts  --      3.7702                 8.2658                23.0907
 IR Inten    --      2.7523                 2.4992               601.9024

 - Thermochemistry -
 -------------------
 Temperature   298.150 Kelvin.  Pressure   1.00000 Atm.
 Atom     1 has atomic number  6 and mass  12.00000

 Molecular mass:    51.99491 amu.
 Principal axes and moments of inertia in atomic units:
                           1         2         3
     Eigenvalues --    50.60110 205.53136 256.13246
           X            0.00000   0.00000   1.00000
           Y            0.00000   1.00000  -0.00000
           Z            1.00000  -0.00000  -0.00000
 This molecule is an asymmetric top.
 Rotational symmetry number  2.
 Rotational temperatures (Kelvin)      1.71170     0.42141     0.33816
 Rotational constants (GHZ):          35.66605     8.78086     7.04612
 Zero-point vibrational energy      29591.2 (Joules/Mol)
                                    7.07247 (Kcal/Mol)
 Warning -- explicit consideration of   3 degrees of freedom as
           vibrations may cause significant error
 Vibrational temperatures:    553.60   728.48   792.76  1030.59  1502.83
          (Kelvin)           2509.73

 Zero-point correction=                           0.011271 (Hartree/Particle)
 Thermal correction to Energy=                    0.014975
 Thermal correction to Enthalpy=                  0.015919
 Thermal correction to Gibbs Free Energy=        -0.014595
 Sum of electronic and zero-point Energies=           -189.338967
 Sum of electronic and thermal Energies=              -189.335263
 Sum of electronic and thermal Enthalpies=            -189.334319
 Sum of electronic and thermal Free Energies=         -189.364834

                     E (Thermal)             CV                S
                      KCal/Mol        Cal/Mol-Kelvin    Cal/Mol-Kelvin
 Total                    9.397             10.998             64.224
 Electronic               0.000              0.000              2.755
 Translational            0.889              2.981             37.769
 Rotational               0.889              2.981             21.126
 Vibrational              7.620              5.037              2.575
 Vibration     1          0.754              1.503              1.020
 Vibration     2          0.862              1.236              0.643
 Vibration     3          0.906              1.138              0.542

 Optimization completed.
    -- Stationary point found.
 Normal termination of Gaussian 09 at Thu Mar  7 20:43:32 2019.
