 Gaussian 09, Revision E.01,
 Gaussian 09:  EM64L-G09RevE.01 30-Nov-2015

 ------------------------------------------------------
 #p b3lyp/6-311++G(3df,2p) freq IOp(2/17=3) IOp(2/18=3)
 ------------------------------------------------------

 ---------
 b3lyp opt
 ---------
 Symbolic Z-matrix:
 Charge = -1 Multiplicity = 2

                         Standard orientation:
 ---------------------------------------------------------------------
 Center     Atomic      Atomic             Coordinates (Angstroms)
 Number     Number       Type             X           Y           Z
 ---------------------------------------------------------------------
      1          6           0       -0.099151   -0.752921    0.000000
      2          6           0       -0.266748   -2.002221    0.000000
      3          6           0        0.365900    0.523025   -0.000000
      4          8           0       -0.000000    1.674088   -0.000000
 ---------------------------------------------------------------------

 SCF Done:  E(UB3LYP) =  -189.505309248     A.U. after   18 cycles

 The electronic state is 2-A'.
 Alpha  occ. eigenvalues --  -18.97533 -10.08174  -9.97545  -9.96221  -0.89257
 Alpha  occ. eigenvalues --   -0.57204  -0.45192  -0.31368  -0.25402  -0.24272
 Alpha  occ. eigenvalues --   -0.10382  -0.09190  -0.08220   0.00797
 Alpha virt. eigenvalues --    0.11858   0.15026   0.18102   0.18670   0.19046
 Alpha virt. eigenvalues --    0.19649   0.21498   0.23246   0.25942   0.26902
 Alpha virt. eigenvalues --    0.26949   0.29687   0.32838   0.33665   0.35167

  Beta  occ. eigenvalues --  -18.96844 -10.07266  -9.97132  -9.96228  -0.87876
  Beta  occ. eigenvalues --   -0.56331  -0.43495  -0.30051  -0.23566  -0.21245
  Beta  occ. eigenvalues --   -0.09011  -0.08426  -0.07229
  Beta virt. eigenvalues --    0.11475   0.12875   0.15445   0.18150   0.18836
  Beta virt. eigenvalues --    0.19097   0.19658   0.21963   0.23380   0.26784
  Beta virt. eigenvalues --    0.26974   0.27399   0.30929   0.32949   0.34121

 Mulliken charges and spin densities:
               1          2
     1  C    0.932341  -0.408312
     2  C   -1.005670   0.391391
     3  C   -0.344854   0.878611
     4  O   -0.581816   0.138309
 Sum of Mulliken charges =  -1.00000   1.00000

 Dipole moment (field-independent basis, Debye):
    X=              0.6296    Y=              3.8265    Z=             -0.0000  Tot=              3.8779
 Quadrupole moment (field-independent basis, Debye-Ang):
   XX=            -28.0280   YY=            -48.3162   ZZ=            -25.5082
   XY=             -2.5650   XZ=              0.0000   YZ=              0.0000

  Exact polarizability:  45.787   8.076  90.128   0.002   0.001  38.622
 Approx polarizability:  58.640  13.870 159.756  -0.000  -0.000  51.527

                      1                      2                      3
                     ?A                     ?A                     A'
 Frequencies --    225.8505               238.7804               528.7378
 Red. masses --     12.0779                12.6435                12.5721
 Frc consts  --      0.3630                 0.4247                 2.0708
 IR Inten    --      8.0048                 6.3801                 1.7334

                      4                      5                      6
                     A'                     A'                     A'
 Frequencies --    914.7406              1773.6917              1936.1649
 Red. masses --     12.7372                12.9994                12.1048
 Frc consts  --      6.2794                24.0952                26.7357
 IR Inten    --      2.8339               307.2559               532.3179

 - Thermochemistry -
 -------------------
 Temperature   298.150 Kelvin.  Pressure   1.00000 Atm.
 Atom     1 has atomic number  6 and mass  12.00000

 Molecular mass:    51.99491 amu.
 Principal axes and moments of inertia in atomic units:
                           1         2         3
     Eigenvalues --     5.95950 371.13530 377.09481
           X            0.09431   0.99554   0.00000
           Y            0.99554  -0.09431   0.00000
           Z           -0.00000  -0.00000   1.00000
 This molecule is an asymmetric top.
 Rotational symmetry number  1.
 Rotational temperatures (Kelvin)     14.53373     0.23338     0.22969
 Rotational constants (GHZ):         302.83422     4.86276     4.78591
 Zero-point vibrational energy      33602.9 (Joules/Mol)
                                    8.03129 (Kcal/Mol)
 Warning -- explicit consideration of   3 degrees of freedom as
           vibrations may cause significant error
 Vibrational temperatures:    324.95   343.55   760.73  1316.11  2551.94
          (Kelvin)           2785.71

 Zero-point correction=                           0.012799 (Hartree/Particle)
 Thermal correction to Energy=                    0.016912
 Thermal correction to Enthalpy=                  0.017856
 Thermal correction to Gibbs Free Energy=        -0.013002
 Sum of electronic and zero-point Energies=           -189.492511
 Sum of electronic and thermal Energies=              -189.488397
 Sum of electronic and thermal Enthalpies=            -189.487453
 Sum of electronic and thermal Free Energies=         -189.518311

                     E (Thermal)             CV                S
                      KCal/Mol        Cal/Mol-Kelvin    Cal/Mol-Kelvin
 Total                   10.612             11.254             64.947
 Electronic               0.000              0.000              1.377
 Translational            0.889              2.981             37.769
 Rotational               0.889              2.981             21.350
 Vibrational              8.835              5.293              4.451
 Vibration     1          0.650              1.802              1.912
 Vibration     2          0.657              1.781              1.812
 Vibration     3          0.884              1.186              0.590

 Normal termination of Gaussian 09 at Thu Mar  7 08:41:24 2019.
