 Gaussian 09, Revision E.01,
 Gaussian 09:  EM64L-G09RevE.01 30-Nov-2015

 ------------------------------------------------------
 #p b3lyp/6-311++G(3df,2p) freq IOp(2/17=3) IOp(2/18=3)
 ------------------------------------------------------

 ---------
 b3lyp opt
 ---------
 Symbolic Z-matrix:
 Charge = -1 Multiplicity = 2

                         Standard orientation:
 ---------------------------------------------------------------------
 Center     Atomic      Atomic             Coordinates (Angstroms)
 Number     Number       Type             X           Y           Z
 ---------------------------------------------------------------------
      1          6           0        0.000000    0.676393   -1.054643
      2          6           0       -0.000000   -0.676393   -1.054643
      3          6           0       -0.000000   -0.000000    0.210731
      4          8           0       -0.000000   -0.000000    1.423918
 ---------------------------------------------------------------------

 SCF Done:  E(UB3LYP) =  -189.492303391     A.U. after   13 cycles

 The electronic state is 2-B2.
 Alpha  occ. eigenvalues --  -18.94314 -10.07876  -9.98417  -9.98346  -0.86614
 Alpha  occ. eigenvalues --   -0.69259  -0.31730  -0.30202  -0.23568  -0.22672
 Alpha  occ. eigenvalues --   -0.15393  -0.09793  -0.07093   0.00610
 Alpha virt. eigenvalues --    0.16624   0.17440   0.17661   0.18284   0.19736
 Alpha virt. eigenvalues --    0.22067   0.22643   0.22978   0.24755   0.25337
 Alpha virt. eigenvalues --    0.26457   0.27476   0.30223   0.30970   0.37401

  Beta  occ. eigenvalues --  -18.93755 -10.07445  -9.97913  -9.97838  -0.85564
  Beta  occ. eigenvalues --   -0.68033  -0.30474  -0.27392  -0.23142  -0.19994
  Beta  occ. eigenvalues --   -0.11938  -0.09306  -0.05527
  Beta virt. eigenvalues --    0.10333   0.16697   0.17640   0.18141   0.18719
  Beta virt. eigenvalues --    0.19858   0.22259   0.22635   0.23250   0.24822
  Beta virt. eigenvalues --    0.25682   0.26626   0.27852   0.30317   0.31150

 Mulliken charges and spin densities:
               1          2
     1  C   -0.307214   0.273484
     2  C   -0.307214   0.273484
     3  C    0.331983   0.266326
     4  O   -0.717554   0.186706
 Sum of Mulliken charges =  -1.00000   1.00000

 Dipole moment (field-independent basis, Debye):
    X=              0.0000    Y=             -0.0000    Z=              1.6271  Tot=              1.6271
 Quadrupole moment (field-independent basis, Debye-Ang):
   XX=            -25.3625   YY=            -32.4535   ZZ=            -37.0984
   XY=             -0.0000   XZ=             -0.0000   YZ=              0.0000

  Exact polarizability:  35.858   0.000  62.138  -0.000  -0.000  65.111
 Approx polarizability:  48.629  -0.000  81.486   0.000   0.000 103.286

                      1                      2                      3
                     B2                     B1                     B2
 Frequencies --    490.9316               578.5774               706.9400
 Red. masses --     12.7356                12.4627                12.0058
 Frc consts  --      1.8085                 2.4580                 3.5351
 IR Inten    --     28.7963                26.4864                59.6890

                      4                      5                      6
                     A1                     A1                     A1
 Frequencies --    893.3893              1457.5512              1830.1154
 Red. masses --     13.2890                12.1546                12.8097
 Frc consts  --      6.2492                15.2138                25.2782
 IR Inten    --      7.7933                30.4372               712.7443

 - Thermochemistry -
 -------------------
 Temperature   298.150 Kelvin.  Pressure   1.00000 Atm.
 Atom     1 has atomic number  6 and mass  12.00000

 Molecular mass:    51.99491 amu.
 Principal axes and moments of inertia in atomic units:
                           1         2         3
     Eigenvalues --    39.21094 213.04178 252.25272
           X            0.00000   0.00000   1.00000
           Y           -0.00000   1.00000  -0.00000
           Z            1.00000   0.00000  -0.00000
 This molecule is an asymmetric top.
 Rotational symmetry number  2.
 Rotational temperatures (Kelvin)      2.20892     0.40656     0.34336
 Rotational constants (GHZ):          46.02647     8.47130     7.15450
 Zero-point vibrational energy      35633.8 (Joules/Mol)
                                    8.51668 (Kcal/Mol)
 Warning -- explicit consideration of   2 degrees of freedom as
           vibrations may cause significant error
 Vibrational temperatures:    706.34   832.44  1017.13  1285.39  2097.09
          (Kelvin)           2633.12

 Zero-point correction=                           0.013572 (Hartree/Particle)
 Thermal correction to Energy=                    0.016980
 Thermal correction to Enthalpy=                  0.017924
 Thermal correction to Gibbs Free Energy=        -0.011375
 Sum of electronic and zero-point Energies=           -189.478731
 Sum of electronic and thermal Energies=              -189.475323
 Sum of electronic and thermal Enthalpies=            -189.474379
 Sum of electronic and thermal Free Energies=         -189.503679

                     E (Thermal)             CV                S
                      KCal/Mol        Cal/Mol-Kelvin    Cal/Mol-Kelvin
 Total                   10.655              9.744             61.667
 Electronic               0.000              0.000              1.377
 Translational            0.889              2.981             37.769
 Rotational               0.889              2.981             20.893
 Vibrational              8.878              3.782              1.627
 Vibration     1          0.847              1.270              0.681
 Vibration     2          0.935              1.078              0.488

 Optimization completed.
    -- Stationary point found.
 Normal termination of Gaussian 09 at Thu Mar  7 08:37:41 2019.
