 Gaussian 09, Revision E.01,
 Gaussian 09:  EM64L-G09RevE.01 30-Nov-2015

 ------------------------------------------------------
 #p b3lyp/6-311++G(3df,2p) freq IOp(2/17=3) IOp(2/18=3)
 ------------------------------------------------------

 ---------
 b3lyp opt
 ---------
 Symbolic Z-matrix:
 Charge = -1 Multiplicity = 2

                         Standard orientation:
 ---------------------------------------------------------------------
 Center     Atomic      Atomic             Coordinates (Angstroms)
 Number     Number       Type             X           Y           Z
 ---------------------------------------------------------------------
      1          6           0       -0.364312    0.522796    0.000000
      2          6           0        0.098847   -0.753031   -0.000000
      3          6           0        0.265464   -2.002563   -0.000000
      4          8           0        0.000000    1.674599    0.000000
 ---------------------------------------------------------------------

 SCF Done:  E(UB3LYP) =  -189.505309837     A.U. after   18 cycles

 The electronic state is 2-A'.
 Alpha  occ. eigenvalues --  -18.97528 -10.08165  -9.97552  -9.96224  -0.89237
 Alpha  occ. eigenvalues --   -0.57220  -0.45206  -0.31361  -0.25394  -0.24263
 Alpha  occ. eigenvalues --   -0.10388  -0.09197  -0.08230   0.00825
 Alpha virt. eigenvalues --    0.11853   0.15024   0.18100   0.18670   0.19047
 Alpha virt. eigenvalues --    0.19649   0.21500   0.23247   0.25950   0.26898
 Alpha virt. eigenvalues --    0.26955   0.29693   0.32841   0.33673   0.35183

  Beta  occ. eigenvalues --  -18.96839 -10.07258  -9.97137  -9.96233  -0.87858
  Beta  occ. eigenvalues --   -0.56348  -0.43508  -0.30048  -0.23559  -0.21243
  Beta  occ. eigenvalues --   -0.09018  -0.08427  -0.07235
  Beta virt. eigenvalues --    0.11494   0.12869   0.15443   0.18148   0.18836
  Beta virt. eigenvalues --    0.19097   0.19658   0.21965   0.23380   0.26791
  Beta virt. eigenvalues --    0.26979   0.27395   0.30941   0.32952   0.34130

 Mulliken charges and spin densities:
               1          2
     1  C   -0.347613   0.880735
     2  C    0.935441  -0.411121
     3  C   -1.005407   0.392565
     4  O   -0.582422   0.137821
 Sum of Mulliken charges =  -1.00000   1.00000

 Dipole moment (field-independent basis, Debye):
    X=             -0.6253    Y=              3.8238    Z=              0.0000  Tot=              3.8746
 Quadrupole moment (field-independent basis, Debye-Ang):
   XX=            -28.0217   YY=            -48.3291   ZZ=            -25.5060
   XY=              2.5534   XZ=              0.0000   YZ=             -0.0000

  Exact polarizability:  45.773  -8.064  90.203  -0.001   0.000  38.621
 Approx polarizability:  58.611 -13.870 159.925  -0.000   0.000  51.523

                      1                      2                      3
                     A"                     A'                     A'
 Frequencies --    224.8923               239.0738               526.9138
 Red. masses --     12.0781                12.6440                12.5668
 Frc consts  --      0.3599                 0.4258                 2.0557
 IR Inten    --      8.0449                 6.3909                 1.6699

                      4                      5                      6
                     A'                     A'                     A'
 Frequencies --    915.2199              1772.8127              1936.2511
 Red. masses --     12.7447                12.9937                12.1068
 Frc consts  --      6.2897                24.0607                26.7425
 IR Inten    --      2.5881               304.5998               534.5285

 - Thermochemistry -
 -------------------
 Temperature   298.150 Kelvin.  Pressure   1.00000 Atm.
 Atom     1 has atomic number  6 and mass  12.00000

 Molecular mass:    51.99491 amu.
 Principal axes and moments of inertia in atomic units:
                           1         2         3
     Eigenvalues --     5.90901 371.25751 377.16652
           X           -0.09384   0.99559   0.00000
           Y            0.99559   0.09384   0.00000
           Z            0.00000   0.00000   1.00000
 This molecule is an asymmetric top.
 Rotational symmetry number  1.
 Rotational temperatures (Kelvin)     14.65792     0.23330     0.22964
 Rotational constants (GHZ):         305.42195     4.86116     4.78500
 Zero-point vibrational energy      33586.1 (Joules/Mol)
                                    8.02728 (Kcal/Mol)
 Warning -- explicit consideration of   3 degrees of freedom as
           vibrations may cause significant error
 Vibrational temperatures:    323.57   343.97   758.11  1316.80  2550.68
          (Kelvin)           2785.83

 Zero-point correction=                           0.012792 (Hartree/Particle)
 Thermal correction to Energy=                    0.016908
 Thermal correction to Enthalpy=                  0.017852
 Thermal correction to Gibbs Free Energy=        -0.013007
 Sum of electronic and zero-point Energies=           -189.492518
 Sum of electronic and thermal Energies=              -189.488402
 Sum of electronic and thermal Enthalpies=            -189.487458
 Sum of electronic and thermal Free Energies=         -189.518317

                     E (Thermal)             CV                S
                      KCal/Mol        Cal/Mol-Kelvin    Cal/Mol-Kelvin
 Total                   10.610             11.259             64.948
 Electronic               0.000              0.000              1.377
 Translational            0.889              2.981             37.769
 Rotational               0.889              2.981             21.342
 Vibrational              8.832              5.297              4.460
 Vibration     1          0.650              1.803              1.919
 Vibration     2          0.657              1.781              1.810
 Vibration     3          0.882              1.190              0.594

 Optimization completed.
    -- Stationary point found.
 Normal termination of Gaussian 09 at Thu Mar  7 08:30:04 2019.
