 Gaussian 09, Revision E.01,
 Gaussian 09:  EM64L-G09RevE.01 30-Nov-2015

 ------------------------------------------------------
 #p b3lyp/6-311++G(3df,2p) freq IOp(2/17=3) IOp(2/18=3)
 ------------------------------------------------------

 ---------
 b3lyp opt
 ---------
 Symbolic Z-matrix:
 Charge = -1 Multiplicity = 2

                         Standard orientation:
 ---------------------------------------------------------------------
 Center     Atomic      Atomic             Coordinates (Angstroms)
 Number     Number       Type             X           Y           Z
 ---------------------------------------------------------------------
      1          6           0       -0.000000    0.000000   -0.363064
      2          6           0        0.000000   -0.673645   -1.688231
      3          6           0        0.000000    0.673645   -1.688231
      4          6           0        0.000000   -0.000000    0.917692
      5          8           0        0.000000   -0.000000    2.116958
 ---------------------------------------------------------------------

 SCF Done:  E(UB3LYP) =  -227.562550436     A.U. after   16 cycles

 The electronic state is 2-B1.
 Alpha  occ. eigenvalues --  -18.99953 -10.09244 -10.03635  -9.99570  -9.99492
 Alpha  occ. eigenvalues --   -0.91805  -0.69821  -0.55793  -0.34063  -0.28749
 Alpha  occ. eigenvalues --   -0.28581  -0.22909  -0.22599  -0.17681  -0.06701
 Alpha  occ. eigenvalues --   -0.04480  -0.02324
 Alpha virt. eigenvalues --    0.13897   0.14712   0.17439   0.17714   0.17993
 Alpha virt. eigenvalues --    0.18159   0.19156   0.19732   0.22103   0.22865
 Alpha virt. eigenvalues --    0.25891   0.26753   0.26851   0.26910   0.28182

  Beta  occ. eigenvalues --  -18.99278 -10.08796 -10.03454  -9.99303  -9.99228
  Beta  occ. eigenvalues --   -0.90587  -0.68933  -0.53724  -0.33124  -0.28230
  Beta  occ. eigenvalues --   -0.24860  -0.22339  -0.21988  -0.14667  -0.06364
  Beta  occ. eigenvalues --   -0.03870
  Beta virt. eigenvalues --    0.06661   0.13981   0.15075   0.17454   0.18103
  Beta virt. eigenvalues --    0.18364   0.18729   0.19241   0.19810   0.22477
  Beta virt. eigenvalues --    0.22959   0.25858   0.26886   0.27846   0.28006

 Mulliken charges and spin densities:
               1          2
     1  C    0.494818   0.110764
     2  C   -0.218534   0.239563
     3  C   -0.218534   0.239563
     4  C   -0.339856   0.197643
     5  O   -0.717893   0.212467
 Sum of Mulliken charges =  -1.00000   1.00000

 Dipole moment (field-independent basis, Debye):
    X=             -0.0000    Y=             -0.0000    Z=              3.7297  Tot=              3.7297
 Quadrupole moment (field-independent basis, Debye-Ang):
   XX=            -30.9470   YY=            -38.0876   ZZ=            -52.8202
   XY=             -0.0000   XZ=              0.0000   YZ=             -0.0000

  Exact polarizability:  41.290   0.000  56.053  -0.000   0.000 106.737
 Approx polarizability:  58.428  -0.000  76.165   0.000  -0.000 212.259

                      1                      2                      3
                     B2                     B1                     B1
 Frequencies --    176.8278               249.9070               433.2607
 Red. masses --     12.6603                12.7258                12.1499
 Frc consts  --      0.2332                 0.4683                 1.3438
 IR Inten    --      6.2252                10.5618                 0.0480

                      4                      5                      6
                     B2                     A1                     B2
 Frequencies --    534.7367               659.2308               748.6248
 Red. masses --     12.2495                12.9025                12.0572
 Frc consts  --      2.0637                 3.3037                 3.9813
 IR Inten    --      5.2088                20.2859                 0.4037

                      7                      8                      9
                     A1                     A1                     A1
 Frequencies --   1255.7796              1519.1745              2111.5286
 Red. masses --     12.7191                12.2983                12.4559
 Frc consts  --     11.8177                16.7229                32.7204
 IR Inten    --      0.8721                78.9476              1200.9256

 - Thermochemistry -
 -------------------
 Temperature   298.150 Kelvin.  Pressure   1.00000 Atm.
 Atom     1 has atomic number  6 and mass  12.00000

 Molecular mass:    63.99491 amu.
 Principal axes and moments of inertia in atomic units:
                           1         2         3
     Eigenvalues --    38.89295 541.98790 580.88085
           X            0.00000   0.00000   1.00000
           Y            0.00000   1.00000  -0.00000
           Z            1.00000  -0.00000  -0.00000
 This molecule is an asymmetric top.
 Rotational symmetry number  2.
 Rotational temperatures (Kelvin)      2.22698     0.15981     0.14911
 Rotational constants (GHZ):          46.40279     3.32986     3.10690
 Zero-point vibrational energy      45990.9 (Joules/Mol)
                                   10.99208 (Kcal/Mol)
 Warning -- explicit consideration of   4 degrees of freedom as
           vibrations may cause significant error
 Vibrational temperatures:    254.42   359.56   623.36   769.37   948.48
          (Kelvin)           1077.10  1806.78  2185.75  3038.01

 Zero-point correction=                           0.017517 (Hartree/Particle)
 Thermal correction to Energy=                    0.022155
 Thermal correction to Enthalpy=                  0.023099
 Thermal correction to Gibbs Free Energy=        -0.009485
 Sum of electronic and zero-point Energies=           -227.545033
 Sum of electronic and thermal Energies=              -227.540395
 Sum of electronic and thermal Enthalpies=            -227.539451
 Sum of electronic and thermal Free Energies=         -227.572036

                     E (Thermal)             CV                S
                      KCal/Mol        Cal/Mol-Kelvin    Cal/Mol-Kelvin
 Total                   13.903             14.064             68.580
 Electronic               0.000              0.000              1.377
 Translational            0.889              2.981             38.388
 Rotational               0.889              2.981             22.642
 Vibrational             12.125              8.102              6.174
 Vibration     1          0.628              1.871              2.362
 Vibration     2          0.663              1.763              1.731
 Vibration     3          0.794              1.398              0.848
 Vibration     4          0.890              1.173              0.577

 Optimization completed.
    -- Stationary point found.
 Normal termination of Gaussian 09 at Thu Mar  7 09:24:56 2019.
