 Gaussian 09, Revision E.01,
 Gaussian 09:  EM64L-G09RevE.01 30-Nov-2015

 ------------------------------------------------------
 #p b3lyp/6-311++G(3df,2p) freq IOp(2/17=3) IOp(2/18=3)
 ------------------------------------------------------

 ---------
 b3lyp opt
 ---------
 Symbolic Z-matrix:
 Charge = -1 Multiplicity = 4

                         Standard orientation:
 ---------------------------------------------------------------------
 Center     Atomic      Atomic             Coordinates (Angstroms)
 Number     Number       Type             X           Y           Z
 ---------------------------------------------------------------------
      1          6           0        0.148844   -0.625152    0.854039
      2          6           0       -0.206220   -1.676148   -0.000000
      3          6           0       -0.091620    0.553216    0.000000
      4          6           0        0.148844   -0.625152   -0.854039
      5          8           0       -0.000000    1.779577    0.000000
 ---------------------------------------------------------------------

 SCF Done:  E(UB3LYP) =  -227.448548444     A.U. after   18 cycles

 The electronic state is 4-A".
 Alpha  occ. eigenvalues --  -18.92315 -10.07478 -10.03701 -10.03698 -10.02279
 Alpha  occ. eigenvalues --   -0.84667  -0.74511  -0.45656  -0.38241  -0.27701
 Alpha  occ. eigenvalues --   -0.25685  -0.24405  -0.17467  -0.15949  -0.10344
 Alpha  occ. eigenvalues --   -0.09575  -0.00452   0.02883
 Alpha virt. eigenvalues --    0.14377   0.15730   0.16544   0.18062   0.19256
 Alpha virt. eigenvalues --    0.20138   0.21338   0.22140   0.22878   0.23795
 Alpha virt. eigenvalues --    0.25686   0.26228   0.26691   0.27606   0.27933

  Beta  occ. eigenvalues --  -18.91659 -10.06745 -10.02643 -10.02637 -10.00113
  Beta  occ. eigenvalues --   -0.83311  -0.71986  -0.41792  -0.34552  -0.25944
  Beta  occ. eigenvalues --   -0.22551  -0.21060  -0.11839  -0.09969  -0.07818
  Beta virt. eigenvalues --    0.03425   0.10732   0.14309   0.15411   0.16342
  Beta virt. eigenvalues --    0.16914   0.18544   0.20712   0.21371   0.21955
  Beta virt. eigenvalues --    0.22308   0.23339   0.24723   0.25738   0.26481

 Mulliken charges and spin densities:
               1          2
     1  C   -0.115147   0.464272
     2  C   -0.380197   1.435749
     3  C    0.370839   0.429301
     4  C   -0.115147   0.464272
     5  O   -0.760348   0.206406
 Sum of Mulliken charges =  -1.00000   3.00000

 Dipole moment (field-independent basis, Debye):
    X=             -0.5607    Y=             -0.3108    Z=             -0.0000  Tot=              0.6411
 Quadrupole moment (field-independent basis, Debye-Ang):
   XX=            -32.7248   YY=            -46.0170   ZZ=            -35.8876
   XY=             -0.1335   XZ=              0.0000   YZ=             -0.0000

  Exact polarizability:  44.105   3.859  89.590  -0.000  -0.000  66.165
 Approx polarizability:  59.088   5.408 150.847  -0.000   0.000 112.384

                      1                      2                      3
                     A'                     A"                     A'
 Frequencies --    304.7248               486.6458               559.2803
 Red. masses --     12.6813                12.7815                12.0443
 Frc consts  --      0.6938                 1.7834                 2.2197
 IR Inten    --     14.1964                 1.9859                 3.2644

                      4                      5                      6
                     A'                     A"                     A'
 Frequencies --    634.7937               697.6937               877.3996
 Red. masses --     12.6023                12.1913                12.8346
 Frc consts  --      2.9920                 3.4965                 5.8214
 IR Inten    --     15.6600                62.1395                12.7491

                      7                      8                      9
                     A"                     A'                     A'
 Frequencies --   1007.3678              1303.6608              1680.2330
 Red. masses --     12.0037                12.0256                12.9580
 Frc consts  --      7.1770                12.0417                21.5540
 IR Inten    --      9.0933                 5.7227               781.0225

 - Thermochemistry -
 -------------------
 Temperature   298.150 Kelvin.  Pressure   1.00000 Atm.
 Atom     1 has atomic number  6 and mass  12.00000

 Molecular mass:    63.99491 amu.
 Principal axes and moments of inertia in atomic units:
                           1         2         3
     Eigenvalues --    66.52971 351.97407 410.46859
           X            0.01357   0.00000   0.99991
           Y            0.99991  -0.00000  -0.01357
           Z            0.00000   1.00000  -0.00000
 This molecule is an asymmetric top.
 Rotational symmetry number  1.
 Rotational temperatures (Kelvin)      1.30188     0.24608     0.21101
 Rotational constants (GHZ):          27.12684     5.12748     4.39678
 Zero-point vibrational energy      45169.8 (Joules/Mol)
                                   10.79584 (Kcal/Mol)
 Warning -- explicit consideration of   3 degrees of freedom as
           vibrations may cause significant error
 Vibrational temperatures:    438.43   700.17   804.68   913.33  1003.82
          (Kelvin)           1262.38  1449.38  1875.67  2417.48

 Zero-point correction=                           0.017204 (Hartree/Particle)
 Thermal correction to Energy=                    0.021232
 Thermal correction to Enthalpy=                  0.022177
 Thermal correction to Gibbs Free Energy=        -0.010374
 Sum of electronic and zero-point Energies=           -227.431344
 Sum of electronic and thermal Energies=              -227.427316
 Sum of electronic and thermal Enthalpies=            -227.426372
 Sum of electronic and thermal Free Energies=         -227.458922

                     E (Thermal)             CV                S
                      KCal/Mol        Cal/Mol-Kelvin    Cal/Mol-Kelvin
 Total                   13.324             12.905             68.508
 Electronic               0.000              0.000              2.755
 Translational            0.889              2.981             38.388
 Rotational               0.889              2.981             23.779
 Vibrational             11.546              6.943              3.587
 Vibration     1          0.696              1.665              1.391
 Vibration     2          0.843              1.280              0.692
 Vibration     3          0.915              1.119              0.525

 Optimization completed.
    -- Stationary point found.
 Normal termination of Gaussian 09 at Thu Mar  7 09:46:16 2019.
