 Gaussian 09, Revision E.01,
 Gaussian 09:  EM64L-G09RevE.01 30-Nov-2015

 ------------------------------------------------------
 #p b3lyp/6-311++G(3df,2p) freq IOp(2/17=3) IOp(2/18=3)
 ------------------------------------------------------

 ---------
 b3lyp opt
 ---------
 Symbolic Z-matrix:
 Charge = -1 Multiplicity = 2

                         Standard orientation:
 ---------------------------------------------------------------------
 Center     Atomic      Atomic             Coordinates (Angstroms)
 Number     Number       Type             X           Y           Z
 ---------------------------------------------------------------------
      1          6           0        0.000000   -0.779886   -0.045729
      2          6           0        0.000000    0.779886   -0.045729
      3          6           0       -0.000000    1.885878   -0.693817
      4          6           0       -0.000000   -1.885878   -0.693817
      5          8           0       -0.000000   -0.000000    1.109301
 ---------------------------------------------------------------------

 SCF Done:  E(UB3LYP) =  -227.439435682     A.U. after   16 cycles

 The electronic state is 2-B2.
 Alpha  occ. eigenvalues --  -19.05246 -10.07087 -10.07070 -10.01347 -10.01345
 Alpha  occ. eigenvalues --   -0.97737  -0.58161  -0.57541  -0.42808  -0.37223
 Alpha  occ. eigenvalues --   -0.30161  -0.20561  -0.12430  -0.11936  -0.09150
 Alpha  occ. eigenvalues --   -0.09055  -0.05206
 Alpha virt. eigenvalues --    0.06881   0.15653   0.17010   0.17264   0.17871
 Alpha virt. eigenvalues --    0.18870   0.20275   0.20696   0.21172   0.23028
 Alpha virt. eigenvalues --    0.23386   0.25231   0.26402   0.27697   0.28066

  Beta  occ. eigenvalues --  -19.05103 -10.07057 -10.07038 -10.00700 -10.00699
  Beta  occ. eigenvalues --   -0.97597  -0.56573  -0.55701  -0.42552  -0.35941
  Beta  occ. eigenvalues --   -0.30177  -0.18974  -0.10850  -0.10802  -0.08672
  Beta  occ. eigenvalues --   -0.08583
  Beta virt. eigenvalues --    0.04498   0.09763   0.16097   0.17078   0.17373
  Beta virt. eigenvalues --    0.17984   0.19110   0.20244   0.21427   0.21553
  Beta virt. eigenvalues --    0.23198   0.23423   0.25321   0.26607   0.27805

 Mulliken charges and spin densities:
               1          2
     1  C    0.757932   0.036831
     2  C    0.757932   0.036831
     3  C   -0.981473   0.448484
     4  C   -0.981473   0.448484
     5  O   -0.552918   0.029370
 Sum of Mulliken charges =  -1.00000   1.00000

 Dipole moment (field-independent basis, Debye):
    X=              0.0000    Y=              0.0000    Z=              3.6495  Tot=              3.6495
 Quadrupole moment (field-independent basis, Debye-Ang):
   XX=            -33.1327   YY=            -55.7702   ZZ=            -36.8981
   XY=              0.0000   XZ=             -0.0000   YZ=             -0.0000

  Exact polarizability:  44.873   0.000 128.733   0.000   0.000  53.850
 Approx polarizability:  62.221   0.000 225.312  -0.000  -0.000  84.193

                      1                      2                      3
                     A1                     B1                     B2
 Frequencies --    238.3343               324.4550               390.2188
 Red. masses --     12.2849                12.3734                12.2536
 Frc consts  --      0.4111                 0.7674                 1.0993
 IR Inten    --     29.9388                 1.0522                31.0490

                      4                      5                      6
                     A1                     A2                     B2
 Frequencies --    390.5488               411.1663               758.5191
 Red. masses --     12.4342                12.0000                13.7637
 Frc consts  --      1.1174                 1.1953                 4.6657
 IR Inten    --     57.7023                 0.0000                 0.1559

                      7                      8                      9
                     A1                     B2                     A1
 Frequencies --    935.6039              1713.1048              1849.1146
 Red. masses --     13.5934                12.0124                12.1458
 Frc consts  --      7.0107                20.7705                24.4683
 IR Inten    --     35.7268                 1.2755                10.7297

 - Thermochemistry -
 -------------------
 Temperature   298.150 Kelvin.  Pressure   1.00000 Atm.
 Atom     1 has atomic number  6 and mass  12.00000

 Molecular mass:    63.99491 amu.
 Principal axes and moments of inertia in atomic units:
                           1         2         3
     Eigenvalues --   111.72386 356.94296 468.66682
           X            0.00000   0.00000   1.00000
           Y            1.00000  -0.00000  -0.00000
           Z            0.00000   1.00000  -0.00000
 This molecule is an asymmetric top.
 Rotational symmetry number  2.
 Rotational temperatures (Kelvin)      0.77525     0.24265     0.18481
 Rotational constants (GHZ):          16.15359     5.05611     3.85080
 Zero-point vibrational energy      41935.5 (Joules/Mol)
                                   10.02282 (Kcal/Mol)
 Warning -- explicit consideration of   5 degrees of freedom as
           vibrations may cause significant error
 Vibrational temperatures:    342.91   466.82   561.44   561.91   591.58
          (Kelvin)           1091.34  1346.12  2464.77  2660.46

 Zero-point correction=                           0.015972 (Hartree/Particle)
 Thermal correction to Energy=                    0.020776
 Thermal correction to Enthalpy=                  0.021721
 Thermal correction to Gibbs Free Energy=        -0.011169
 Sum of electronic and zero-point Energies=           -227.423463
 Sum of electronic and thermal Energies=              -227.418659
 Sum of electronic and thermal Enthalpies=            -227.417715
 Sum of electronic and thermal Free Energies=         -227.450605

                     E (Thermal)             CV                S
                      KCal/Mol        Cal/Mol-Kelvin    Cal/Mol-Kelvin
 Total                   13.037             15.028             69.222
 Electronic               0.000              0.000              1.377
 Translational            0.889              2.981             38.388
 Rotational               0.889              2.981             23.062
 Vibrational             11.260              9.067              6.395
 Vibration     1          0.656              1.782              1.815
 Vibration     2          0.709              1.627              1.288
 Vibration     3          0.758              1.491              0.999
 Vibration     4          0.758              1.490              0.998
 Vibration     5          0.775              1.446              0.923

 Optimization completed.
    -- Stationary point found.
 Normal termination of Gaussian 09 at Thu Mar  7 09:04:36 2019.
