 Gaussian 09, Revision E.01,
 Gaussian 09:  EM64L-G09RevE.01 30-Nov-2015

 ------------------------------------------------------
 #p b3lyp/6-311++G(3df,2p) freq IOp(2/17=3) IOp(2/18=3)
 ------------------------------------------------------

 ---------
 b3lyp opt
 ---------
 Symbolic Z-matrix:
 Charge = -1 Multiplicity = 4

                         Standard orientation:
 ---------------------------------------------------------------------
 Center     Atomic      Atomic             Coordinates (Angstroms)
 Number     Number       Type             X           Y           Z
 ---------------------------------------------------------------------
      1          6           0       -0.292109    0.263266   -0.000000
      2          6           0       -0.000000    1.655012    0.000000
      3          6           0       -1.288766    1.319990   -0.000000
      4          6           0        0.038954   -1.092739   -0.000000
      5          8           0        1.156440   -1.609146    0.000000
 ---------------------------------------------------------------------

 SCF Done:  E(UB3LYP) =  -227.493863116     A.U. after   17 cycles

 The electronic state is 4-A".
 Alpha  occ. eigenvalues --  -18.97469 -10.06478 -10.06180 -10.01607 -10.01446
 Alpha  occ. eigenvalues --   -0.88445  -0.73123  -0.52562  -0.32081  -0.30577
 Alpha  occ. eigenvalues --   -0.25953  -0.25763  -0.22916  -0.19170  -0.10212
 Alpha  occ. eigenvalues --   -0.07643  -0.01431  -0.00900
 Alpha virt. eigenvalues --    0.15827   0.16171   0.16383   0.16955   0.17710
 Alpha virt. eigenvalues --    0.19359   0.20076   0.21933   0.22623   0.23309
 Alpha virt. eigenvalues --    0.25084   0.26007   0.27335   0.27935   0.28762

  Beta  occ. eigenvalues --  -18.95725 -10.05213 -10.04914 -10.00755 -10.00609
  Beta  occ. eigenvalues --   -0.85053  -0.71213  -0.47881  -0.29002  -0.26463
  Beta  occ. eigenvalues --   -0.21916  -0.21289  -0.16818  -0.15576  -0.07326
  Beta virt. eigenvalues --    0.04436   0.09240   0.11352   0.16289   0.16641
  Beta virt. eigenvalues --    0.17654   0.17803   0.18364   0.19673   0.20670
  Beta virt. eigenvalues --    0.22360   0.22751   0.25377   0.26715   0.27224

 Mulliken charges and spin densities:
               1          2
     1  C    0.377433   0.235853
     2  C   -0.179706   0.613936
     3  C   -0.341018   0.502633
     4  C   -0.301944   1.156289
     5  O   -0.554765   0.491289
 Sum of Mulliken charges =  -1.00000   3.00000

 Dipole moment (field-independent basis, Debye):
    X=              0.7114    Y=             -0.9259    Z=              0.0000  Tot=              1.1676
 Quadrupole moment (field-independent basis, Debye-Ang):
   XX=            -41.5655   YY=            -46.8633   ZZ=            -31.3360
   XY=              5.6280   XZ=             -0.0000   YZ=             -0.0000

  Exact polarizability:  80.522  -7.919  91.449   0.000   0.000  43.561
 Approx polarizability: 118.070 -14.421 129.361  -0.000   0.000  59.774

                      1                      2                      3
                     A'                     A"                     A'
 Frequencies --    228.7032               254.6941               461.0875
 Red. masses --     13.0535                12.5482                12.1228
 Frc consts  --      0.4023                 0.4796                 1.5185
 IR Inten    --     25.3075                 5.5841               172.9401

                      4                      5                      6
                     A"                     A'                     A'
 Frequencies --    466.0301               566.9076               817.2008
 Red. masses --     12.1722                12.8234                12.1184
 Frc consts  --      1.5576                 2.4282                 4.7682
 IR Inten    --      0.6647                76.9275                54.2575

                      7                      8                      9
                     A'                     A'                     A'
 Frequencies --   1355.2558              1581.3209              1698.1690
 Red. masses --     12.4066                12.3830                12.5447
 Frc consts  --     13.4259                18.2438                21.3144
 IR Inten    --    262.5483               129.5620                47.1391

 - Thermochemistry -
 -------------------
 Temperature   298.150 Kelvin.  Pressure   1.00000 Atm.
 Atom     1 has atomic number  6 and mass  12.00000

 Molecular mass:    63.99491 amu.
 Principal axes and moments of inertia in atomic units:
                           1         2         3
     Eigenvalues --    51.98464 493.38263 545.36727
           X           -0.47431   0.88036   0.00000
           Y            0.88036   0.47431   0.00000
           Z           -0.00000   0.00000   1.00000
 This molecule is an asymmetric top.
 Rotational symmetry number  1.
 Rotational temperatures (Kelvin)      1.66614     0.17555     0.15882
 Rotational constants (GHZ):          34.71681     3.65789     3.30922
 Zero-point vibrational energy      44437.5 (Joules/Mol)
                                   10.62082 (Kcal/Mol)
 Warning -- explicit consideration of   5 degrees of freedom as
           vibrations may cause significant error
 Vibrational temperatures:    329.05   366.45   663.40   670.51   815.65
          (Kelvin)           1175.77  1949.91  2275.17  2443.28

 Zero-point correction=                           0.016925 (Hartree/Particle)
 Thermal correction to Energy=                    0.021527
 Thermal correction to Enthalpy=                  0.022471
 Thermal correction to Gibbs Free Energy=        -0.011325
 Sum of electronic and zero-point Energies=           -227.476938
 Sum of electronic and thermal Energies=              -227.472336
 Sum of electronic and thermal Enthalpies=            -227.471392
 Sum of electronic and thermal Free Energies=         -227.505189

                     E (Thermal)             CV                S
                      KCal/Mol        Cal/Mol-Kelvin    Cal/Mol-Kelvin
 Total                   13.509             14.117             71.131
 Electronic               0.000              0.000              2.755
 Translational            0.889              2.981             38.388
 Rotational               0.889              2.981             24.151
 Vibrational             11.731              8.156              5.838
 Vibration     1          0.651              1.797              1.889
 Vibration     2          0.665              1.755              1.698
 Vibration     3          0.819              1.336              0.763
 Vibration     4          0.823              1.325              0.749
 Vibration     5          0.923              1.103              0.510

 Optimization completed.
    -- Stationary point found.
 Normal termination of Gaussian 09 at Thu Mar  7 09:48:06 2019.
