 Gaussian 09, Revision E.01,
 Gaussian 09:  EM64L-G09RevE.01 30-Nov-2015

 ------------------------------------------------------
 #p b3lyp/6-311++G(3df,2p) freq IOp(2/17=3) IOp(2/18=3)
 ------------------------------------------------------

 ---------
 b3lyp opt
 ---------
 Symbolic Z-matrix:
 Charge = -1 Multiplicity = 4

                         Standard orientation:
 ---------------------------------------------------------------------
 Center     Atomic      Atomic             Coordinates (Angstroms)
 Number     Number       Type             X           Y           Z
 ---------------------------------------------------------------------
      1          6           0        0.000000    0.000000   -0.742851
      2          8           0        0.000000    0.000000    0.557138
 ---------------------------------------------------------------------

 SCF Done:  E(UB3LYP) =  -113.137277673     A.U. after   15 cycles

 The electronic state is 4-SG.
 Alpha  occ. eigenvalues --  -18.89470 -10.01124  -0.77286  -0.31507  -0.16168
 Alpha  occ. eigenvalues --   -0.14696  -0.14696   0.08676   0.08676
 Alpha virt. eigenvalues --    0.18306   0.20472   0.21991   0.21991   0.35664
 Alpha virt. eigenvalues --    0.39176   0.39176   0.42615   0.53595   0.54494
 Alpha virt. eigenvalues --    0.54495   0.64978   0.64978   0.71949   0.76629

  Beta  occ. eigenvalues --  -18.87438  -9.97737  -0.72449  -0.22125  -0.08499
  Beta  occ. eigenvalues --   -0.08499
  Beta virt. eigenvalues --    0.03020   0.19566   0.19792   0.19792   0.21812
  Beta virt. eigenvalues --    0.28236   0.28236   0.36236   0.39787   0.39787
  Beta virt. eigenvalues --    0.44372   0.57418   0.57419   0.58040   0.68803

 Mulliken charges and spin densities:
               1          2
     1  C   -0.501718   2.565609
     2  O   -0.498282   0.434391
 Sum of Mulliken charges =  -1.00000   3.00000

 Dipole moment (field-independent basis, Debye):
    X=              0.0000    Y=              0.0000    Z=              1.2782  Tot=              1.2782
 Quadrupole moment (field-independent basis, Debye-Ang):
   XX=            -17.9975   YY=            -17.9975   ZZ=            -18.9238
   XY=              0.0000   XZ=              0.0000   YZ=              0.0000

  Exact polarizability:  64.635  -0.000  64.635   0.000  -0.000  40.220
 Approx polarizability:  49.914  -0.000  49.914  -0.000  -0.000  51.536

                      1
                     SG
 Frequencies --   1239.4158
 Red. masses --     13.4388
 Frc consts  --     12.1631
 IR Inten    --    171.7496

 - Thermochemistry -
 -------------------
 Temperature   298.150 Kelvin.  Pressure   1.00000 Atm.
 Atom     1 has atomic number  6 and mass  12.00000

 Molecular mass:    27.99491 amu.
 Principal axes and moments of inertia in atomic units:
                           1         2         3
     Eigenvalues --     0.00000  41.37720  41.37720
           X            0.00000  -0.00000   1.00000
           Y            0.00000   1.00000   0.00000
           Z            1.00000   0.00000   0.00000
 This molecule is a prolate symmetric top.
 Rotational symmetry number  1.
 Rotational temperature (Kelvin)      2.09327
 Rotational constant (GHZ):          43.616802
 Zero-point vibrational energy       7413.4 (Joules/Mol)
                                    1.77183 (Kcal/Mol)
 Vibrational temperatures:   1783.24
          (Kelvin)

 Zero-point correction=                           0.002824 (Hartree/Particle)
 Thermal correction to Energy=                    0.005198
 Thermal correction to Enthalpy=                  0.006143
 Thermal correction to Gibbs Free Energy=        -0.017878
 Sum of electronic and zero-point Energies=           -113.134454
 Sum of electronic and thermal Energies=              -113.132079
 Sum of electronic and thermal Enthalpies=            -113.131135
 Sum of electronic and thermal Free Energies=         -113.155155

                     E (Thermal)             CV                S
                      KCal/Mol        Cal/Mol-Kelvin    Cal/Mol-Kelvin
 Total                    3.262              5.149             50.555
 Electronic               0.000              0.000              2.755
 Translational            0.889              2.981             35.923
 Rotational               0.592              1.987             11.842
 Vibrational              1.781              0.180              0.035

 Optimization completed.
    -- Stationary point found.
 Normal termination of Gaussian 09 at Thu Mar  7 09:48:41 2019.
