 Gaussian 09, Revision E.01,
 Gaussian 09:  EM64L-G09RevE.01 30-Nov-2015

 ------------------------------------------------------
 #p b3lyp/6-311++G(3df,2p) freq IOp(2/17=3) IOp(2/18=3)
 ------------------------------------------------------

 ---------
 b3lyp opt
 ---------
 Symbolic Z-matrix:
 Charge = -1 Multiplicity = 4

                         Standard orientation:
 ---------------------------------------------------------------------
 Center     Atomic      Atomic             Coordinates (Angstroms)
 Number     Number       Type             X           Y           Z
 ---------------------------------------------------------------------
      1          6           0        0.000000    0.000000   -0.742785
      2          8           0        0.000000    0.000000    0.557089
 ---------------------------------------------------------------------

 SCF Done:  E(UB3LYP) =  -113.137277663     A.U. after   15 cycles

 The electronic state is 4-SG.
 Alpha  occ. eigenvalues --  -18.89471 -10.01125  -0.77292  -0.31507  -0.16170
 Alpha  occ. eigenvalues --   -0.14700  -0.14700   0.08678   0.08678
 Alpha virt. eigenvalues --    0.18305   0.20472   0.21991   0.21991   0.35663
 Alpha virt. eigenvalues --    0.39175   0.39175   0.42615   0.53599   0.54494
 Alpha virt. eigenvalues --    0.54494   0.64978   0.64978   0.71948   0.76628

  Beta  occ. eigenvalues --  -18.87438  -9.97738  -0.72455  -0.22126  -0.08503
  Beta  occ. eigenvalues --   -0.08503
  Beta virt. eigenvalues --    0.03020   0.19565   0.19792   0.19792   0.21813
  Beta virt. eigenvalues --    0.28236   0.28236   0.36236   0.39786   0.39786
  Beta virt. eigenvalues --    0.44371   0.57417   0.57418   0.58044   0.68804

 Mulliken charges and spin densities:
               1          2
     1  C   -0.501815   2.565712
     2  O   -0.498185   0.434288
 Sum of Mulliken charges =  -1.00000   3.00000

 Dipole moment (field-independent basis, Debye):
    X=              0.0000    Y=              0.0000    Z=              1.2788  Tot=              1.2788
 Quadrupole moment (field-independent basis, Debye-Ang):
   XX=            -17.9988   YY=            -17.9988   ZZ=            -18.9246
   XY=              0.0000   XZ=              0.0000   YZ=              0.0000

  Exact polarizability:  64.661  -0.000  64.661   0.000  -0.000  40.218
 Approx polarizability:  49.929  -0.000  49.929  -0.000  -0.000  51.532

                      1
                     SG
 Frequencies --   1239.9291
 Red. masses --     13.4388
 Frc consts  --     12.1731
 IR Inten    --    171.9454

 - Thermochemistry -
 -------------------
 Temperature   298.150 Kelvin.  Pressure   1.00000 Atm.
 Atom     1 has atomic number  6 and mass  12.00000

 Molecular mass:    27.99491 amu.
 Principal axes and moments of inertia in atomic units:
                           1         2         3
     Eigenvalues --     0.00000  41.36988  41.36988
           X            0.00000  -0.00000   1.00000
           Y            0.00000   1.00000   0.00000
           Z            1.00000   0.00000   0.00000
 This molecule is a prolate symmetric top.
 Rotational symmetry number  1.
 Rotational temperature (Kelvin)      2.09364
 Rotational constant (GHZ):          43.624520
 Zero-point vibrational energy       7416.4 (Joules/Mol)
                                    1.77257 (Kcal/Mol)
 Vibrational temperatures:   1783.98
          (Kelvin)

 Zero-point correction=                           0.002825 (Hartree/Particle)
 Thermal correction to Energy=                    0.005200
 Thermal correction to Enthalpy=                  0.006144
 Thermal correction to Gibbs Free Energy=        -0.017876
 Sum of electronic and zero-point Energies=           -113.134453
 Sum of electronic and thermal Energies=              -113.132078
 Sum of electronic and thermal Enthalpies=            -113.131134
 Sum of electronic and thermal Free Energies=         -113.155154

                     E (Thermal)             CV                S
                      KCal/Mol        Cal/Mol-Kelvin    Cal/Mol-Kelvin
 Total                    3.263              5.148             50.554
 Electronic               0.000              0.000              2.755
 Translational            0.889              2.981             35.923
 Rotational               0.592              1.987             11.841
 Vibrational              1.782              0.180              0.035

 Optimization completed.
    -- Stationary point found.
 Normal termination of Gaussian 09 at Thu Mar  7 09:48:39 2019.
