 Gaussian 09, Revision E.01,
 Gaussian 09:  EM64L-G09RevE.01 30-Nov-2015

 -------------------------------------------------
 #p b3lyp/6-311++G(3df,2p) opt freq symmetry=Loose
 -------------------------------------------------

 ---------
 b3lyp opt
 ---------
 Symbolic Z-matrix:
 Charge = -1 Multiplicity = 3

 SCF Done:  E(UB3LYP) = -0.430999126139     A.U. after    7 cycles
 Optimization completed.
    -- Stationary point found.
 Normal termination of Gaussian 09 at Sun Feb  3 23:18:16 2019.

 ----------------------------------------------------------------------
 #P Geom=AllCheck Guess=TCheck SCRF=Check GenChk UB3LYP/6-311++G(3df,2p
 ) Freq
 ----------------------------------------------------------------------

 Structure from the checkpoint file:  "/scratch/sergio/H.q-1.m3-1.com-4935947/Gau-2865.chk"
 ---------
 b3lyp opt
 ---------
 Charge = -1 Multiplicity = 3

                         Standard orientation:
 ---------------------------------------------------------------------
 Center     Atomic      Atomic             Coordinates (Angstroms)
 Number     Number       Type             X           Y           Z
 ---------------------------------------------------------------------
      1          1           0        0.000000    0.000000    0.000000
 ---------------------------------------------------------------------

 SCF Done:  E(UB3LYP) = -0.430999126139     A.U. after    1 cycles

 The electronic state is 3-A1G.
 Alpha  occ. eigenvalues --   -0.12575   0.11698
 Alpha virt. eigenvalues --    0.56214   0.75056   0.75056   0.75056   2.48995
 Alpha virt. eigenvalues --    3.84192   3.84192   3.84192
  Beta virt. eigenvalues --    0.17732   0.30265   0.77993   0.98277   0.98277

 Mulliken charges and spin densities:
               1          2
     1  H   -1.000000   2.000000
 Sum of Mulliken charges =  -1.00000   2.00000

 Dipole moment (field-independent basis, Debye):
    X=              0.0000    Y=              0.0000    Z=              0.0000  Tot=              0.0000
 Quadrupole moment (field-independent basis, Debye-Ang):
   XX=            -16.7961   YY=            -16.7961   ZZ=            -16.7961
   XY=              0.0000   XZ=              0.0000   YZ=              0.0000

  Exact polarizability:   1.973   0.000   1.973   0.000   0.000   1.973
 Approx polarizability:   1.756  -0.000   1.756  -0.000  -0.000   1.756

 - Thermochemistry -
 -------------------
 Temperature   298.150 Kelvin.  Pressure   1.00000 Atm.
 Atom     1 has atomic number  1 and mass   1.00783
 Molecular mass:     1.00783 amu.
 Zero-point vibrational energy          0.0 (Joules/Mol)
                                    0.00000 (Kcal/Mol)
 Vibrational temperatures:
          (Kelvin)

 Zero-point correction=                           0.000000 (Hartree/Particle)
 Thermal correction to Energy=                    0.001416
 Thermal correction to Enthalpy=                  0.002360
 Thermal correction to Gibbs Free Energy=        -0.011037
 Sum of electronic and zero-point Energies=             -0.430999
 Sum of electronic and thermal Energies=                -0.429583
 Sum of electronic and thermal Enthalpies=              -0.428639
 Sum of electronic and thermal Free Energies=           -0.442036

                     E (Thermal)             CV                S
                      KCal/Mol        Cal/Mol-Kelvin    Cal/Mol-Kelvin
 Total                    0.889              2.981             28.197
 Electronic               0.000              0.000              2.183
 Translational            0.889              2.981             26.014
 Rotational               0.000              0.000              0.000
 Vibrational              0.000              0.000              0.000

 Optimization completed.
    -- Stationary point found.
 Normal termination of Gaussian 09 at Sun Feb  3 23:18:18 2019.
