 Gaussian 09, Revision E.01,
 Gaussian 09:  EM64L-G09RevE.01 30-Nov-2015

 -------------------------------------------------
 #p b3lyp/6-311++G(3df,2p) opt freq symmetry=Loose
 -------------------------------------------------

 ---------
 b3lyp opt
 ---------
 Symbolic Z-matrix:
 Charge = -1 Multiplicity = 2

 SCF Done:  E(UB3LYP) =  -1.12594395341     A.U. after   10 cycles
 SCF Done:  E(UB3LYP) =  -1.12627243919     A.U. after    9 cycles
 SCF Done:  E(UB3LYP) =  -1.12628927203     A.U. after    8 cycles
 Optimization completed.
    -- Stationary point found.
 Normal termination of Gaussian 09 at Sun Feb  3 23:19:19 2019.

 ----------------------------------------------------------------------
 #P Geom=AllCheck Guess=TCheck SCRF=Check GenChk UB3LYP/6-311++G(3df,2p
 ) Freq
 ----------------------------------------------------------------------

 Structure from the checkpoint file:  "/scratch/sergio/H2.q-1.m2-1.com-4935948/Gau-3009.chk"
 ---------
 b3lyp opt
 ---------
 Charge = -1 Multiplicity = 2

                         Standard orientation:
 ---------------------------------------------------------------------
 Center     Atomic      Atomic             Coordinates (Angstroms)
 Number     Number       Type             X           Y           Z
 ---------------------------------------------------------------------
      1          1           0        0.000000    0.000000    0.386373
      2          1           0        0.000000    0.000000   -0.386373
 ---------------------------------------------------------------------

 SCF Done:  E(UB3LYP) =  -1.12628927203     A.U. after    1 cycles

 The electronic state is 2-SGU.
 Alpha  occ. eigenvalues --   -0.23895   0.10156
 Alpha virt. eigenvalues --    0.14512   0.28308   0.50869   0.68115   0.68115
 Alpha virt. eigenvalues --    0.72246   1.08567   1.10310   1.10310   1.59591
 Alpha virt. eigenvalues --    2.46366   2.61158   3.59220   3.59220   3.80586

  Beta  occ. eigenvalues --   -0.23470
  Beta virt. eigenvalues --    0.15989   0.16292   0.29860   0.50862   0.68252
  Beta virt. eigenvalues --    0.68252   0.73177   1.09551   1.10883   1.10883
  Beta virt. eigenvalues --    1.60364   2.46443   2.61834   3.59440   3.59440

 Mulliken charges and spin densities:
               1          2
     1  H   -0.500000   0.500000
     2  H   -0.500000   0.500000
 Sum of Mulliken charges =  -1.00000   1.00000

 Dipole moment (field-independent basis, Debye):
    X=             -0.0000    Y=              0.0000    Z=              0.0000  Tot=              0.0000
 Quadrupole moment (field-independent basis, Debye-Ang):
   XX=            -12.2171   YY=            -12.2171   ZZ=            -31.9259
   XY=              0.0000   XZ=              0.0000   YZ=             -0.0000

  Exact polarizability:   3.055   0.000   3.055   0.000  -0.000 669.430
 Approx polarizability:   3.287  -0.000   3.287  -0.000  -0.000 486.464

                      1
                     SGG
 Frequencies --   3820.6149
 Red. masses --      1.0078
 Frc consts  --      8.6677
 IR Inten    --      0.0000

 - Thermochemistry -
 -------------------
 Temperature   298.150 Kelvin.  Pressure   1.00000 Atm.
 Atom     1 has atomic number  1 and mass   1.00783

 Molecular mass:     2.01565 amu.
 Principal axes and moments of inertia in atomic units:
                           1         2         3
     Eigenvalues --     0.00000   1.07455   1.07455
           X           -0.00000   1.00000  -0.00000
           Y            0.00000   0.00000   1.00000
           Z            1.00000   0.00000  -0.00000
 This molecule is a prolate symmetric top.
 Rotational symmetry number  2.
 Rotational temperature (Kelvin)     80.60495
 Rotational constant (GHZ):        1679.536573
 Zero-point vibrational energy      22852.4 (Joules/Mol)
                                    5.46184 (Kcal/Mol)
 Vibrational temperatures:   5497.01
          (Kelvin)

 Zero-point correction=                           0.008704 (Hartree/Particle)
 Thermal correction to Energy=                    0.011064
 Thermal correction to Enthalpy=                  0.012009
 Thermal correction to Gibbs Free Energy=        -0.003512
 Sum of electronic and zero-point Energies=             -1.117585
 Sum of electronic and thermal Energies=                -1.115225
 Sum of electronic and thermal Enthalpies=              -1.114281
 Sum of electronic and thermal Free Energies=           -1.129802

                     E (Thermal)             CV                S
                      KCal/Mol        Cal/Mol-Kelvin    Cal/Mol-Kelvin
 Total                    6.943              4.968             32.667
 Electronic               0.000              0.000              1.377
 Translational            0.889              2.981             28.080
 Rotational               0.592              1.987              3.209
 Vibrational              5.462              0.000              0.000

 Optimization completed.
    -- Stationary point found.
 Normal termination of Gaussian 09 at Sun Feb  3 23:19:21 2019.
