 Gaussian 09, Revision E.01,
 Gaussian 09:  EM64L-G09RevE.01 30-Nov-2015

 -------------------------------------------------
 #p b3lyp/6-311++G(3df,2p) opt freq symmetry=Loose
 -------------------------------------------------

 ---------
 b3lyp opt
 ---------
 Symbolic Z-matrix:
 Charge = -1 Multiplicity = 4

 SCF Done:  E(UB3LYP) =  -39.1186016237     A.U. after   12 cycles
 SCF Done:  E(UB3LYP) =  -39.1322684843     A.U. after   12 cycles
 SCF Done:  E(UB3LYP) =  -39.1358233645     A.U. after   12 cycles
 SCF Done:  E(UB3LYP) =  -39.1358463348     A.U. after   10 cycles
 SCF Done:  E(UB3LYP) =  -39.1358465801     A.U. after   10 cycles
 Optimization completed.
    -- Stationary point found.
 Normal termination of Gaussian 09 at Wed Jan 23 22:03:04 2019.

 ----------------------------------------------------------------------
 #P Geom=AllCheck Guess=TCheck SCRF=Check GenChk UB3LYP/6-311++G(3df,2p
 ) Freq
 ----------------------------------------------------------------------

 Structure from the checkpoint file:  "/scratch/sergio/H2C.q-1.m4-1.com-4919751/Gau-8004.chk"
 ---------
 b3lyp opt
 ---------
 Charge = -1 Multiplicity = 4

                         Standard orientation:
 ---------------------------------------------------------------------
 Center     Atomic      Atomic             Coordinates (Angstroms)
 Number     Number       Type             X           Y           Z
 ---------------------------------------------------------------------
      1          6           0       -0.000000    0.000000    0.103571
      2          1           0       -0.000000    1.002651   -0.310712
      3          1           0       -0.000000   -1.002651   -0.310712
 ---------------------------------------------------------------------

 SCF Done:  E(UB3LYP) =  -39.1358465801     A.U. after    1 cycles

 The electronic state is 4-B1.
 Alpha  occ. eigenvalues --  -10.05459  -0.52010  -0.29680  -0.12405  -0.08944
 Alpha  occ. eigenvalues --    0.07439
 Alpha virt. eigenvalues --    0.11424   0.17802   0.18427   0.21716   0.22811
 Alpha virt. eigenvalues --    0.26649   0.32108   0.44909   0.46617   0.47530
 Alpha virt. eigenvalues --    0.48520   0.50504   0.66940   0.67003   0.74552

  Beta  occ. eigenvalues --  -10.02509  -0.44278  -0.27544
  Beta virt. eigenvalues --    0.05719   0.08065   0.12198   0.14480   0.21070
  Beta virt. eigenvalues --    0.22125   0.23030   0.24534   0.29161   0.33856
  Beta virt. eigenvalues --    0.46521   0.49092   0.51016   0.51833   0.52599

 Mulliken charges and spin densities:
               1          2
     1  C    1.621602   0.005576
     2  H   -1.310801   1.497212
     3  H   -1.310801   1.497212
 Sum of Mulliken charges =  -1.00000   3.00000

 Dipole moment (field-independent basis, Debye):
    X=              0.0000    Y=              0.0000    Z=              1.7520  Tot=              1.7520
 Quadrupole moment (field-independent basis, Debye-Ang):
   XX=            -22.9833   YY=            -38.2857   ZZ=            -24.9809
   XY=             -0.0000   XZ=             -0.0000   YZ=             -0.0000

  Exact polarizability: 170.516   0.0001022.861   0.000  -0.000 199.616
 Approx polarizability: 139.824   0.0001121.944   0.000   0.000 162.197

                      1                      2                      3
                     A1                     A1                     B2
 Frequencies --   1016.9504              2965.8454              3255.0412
 Red. masses --      1.1347                 1.0283                 1.1387
 Frc consts  --      0.6914                 5.3294                 7.1084
 IR Inten    --    817.8445                25.7610                47.5734

 - Thermochemistry -
 -------------------
 Temperature   298.150 Kelvin.  Pressure   1.00000 Atm.
 Atom     1 has atomic number  6 and mass  12.00000

 Molecular mass:    14.01565 amu.
 Principal axes and moments of inertia in atomic units:
                           1         2         3
     Eigenvalues --     1.05773   7.23623   8.29396
           X            0.00000   0.00000   1.00000
           Y            1.00000   0.00000  -0.00000
           Z            0.00000   1.00000   0.00000
 This molecule is an asymmetric top.
 Rotational symmetry number  2.
 Rotational temperatures (Kelvin)     81.88668    11.96947    10.44300
 Rotational constants (GHZ):        1706.24350   249.40352   217.59711
 Zero-point vibrational energy      43291.9 (Joules/Mol)
                                   10.34701 (Kcal/Mol)
 Vibrational temperatures:   1463.16  4267.18  4683.27
          (Kelvin)

 Zero-point correction=                           0.016489 (Hartree/Particle)
 Thermal correction to Energy=                    0.019356
 Thermal correction to Enthalpy=                  0.020300
 Thermal correction to Gibbs Free Energy=        -0.002151
 Sum of electronic and zero-point Energies=            -39.119358
 Sum of electronic and thermal Energies=               -39.116491
 Sum of electronic and thermal Enthalpies=             -39.115546
 Sum of electronic and thermal Free Energies=          -39.137998

                     E (Thermal)             CV                S
                      KCal/Mol        Cal/Mol-Kelvin    Cal/Mol-Kelvin
 Total                   12.146              6.321             47.253
 Electronic               0.000              0.000              2.755
 Translational            0.889              2.981             33.861
 Rotational               0.889              2.981             10.550
 Vibrational             10.369              0.359              0.087

 Optimization completed.
    -- Stationary point found.
 Normal termination of Gaussian 09 at Wed Jan 23 22:03:18 2019.
