 Gaussian 09, Revision E.01,
 Gaussian 09:  EM64L-G09RevE.01 30-Nov-2015

 -------------------------------------------------
 #p b3lyp/6-311++G(3df,2p) opt freq symmetry=Loose
 -------------------------------------------------

 ---------
 b3lyp opt
 ---------
 Symbolic Z-matrix:
 Charge = -1 Multiplicity = 2

 SCF Done:  E(UB3LYP) =  -39.1786711051     A.U. after   15 cycles
 SCF Done:  E(UB3LYP) =  -39.1894824063     A.U. after   11 cycles
 SCF Done:  E(UB3LYP) =  -39.1948189077     A.U. after   11 cycles
 SCF Done:  E(UB3LYP) =  -39.1949540781     A.U. after   10 cycles
 SCF Done:  E(UB3LYP) =  -39.1949560034     A.U. after    8 cycles
 Optimization completed.
    -- Stationary point found.
 Normal termination of Gaussian 09 at Wed Jan 23 22:02:04 2019.

 ----------------------------------------------------------------------
 #P Geom=AllCheck Guess=TCheck SCRF=Check GenChk UB3LYP/6-311++G(3df,2p
 ) Freq
 ----------------------------------------------------------------------

 Structure from the checkpoint file:  "/scratch/sergio/H2C.q-1.m2-2.com-4919749/Gau-7661.chk"
 ---------
 b3lyp opt
 ---------
 Charge = -1 Multiplicity = 2

                         Standard orientation:
 ---------------------------------------------------------------------
 Center     Atomic      Atomic             Coordinates (Angstroms)
 Number     Number       Type             X           Y           Z
 ---------------------------------------------------------------------
      1          6           0        0.000000    0.000000    0.174736
      2          1           0        0.000000    0.875784   -0.524208
      3          1           0       -0.000000   -0.875784   -0.524208
 ---------------------------------------------------------------------

 SCF Done:  E(UB3LYP) =  -39.1949560034     A.U. after    1 cycles

 The electronic state is 2-B1.
 Alpha  occ. eigenvalues --   -9.90941  -0.37834  -0.12137   0.02175   0.04762
 Alpha virt. eigenvalues --    0.14177   0.16961   0.23665   0.23967   0.25888
 Alpha virt. eigenvalues --    0.28653   0.36262   0.38235   0.54195   0.54579
 Alpha virt. eigenvalues --    0.55788   0.57496   0.61645   0.77846   0.78671

  Beta  occ. eigenvalues --   -9.89786  -0.34506  -0.11349   0.03987
  Beta virt. eigenvalues --    0.14203   0.16376   0.16902   0.23915   0.25819
  Beta virt. eigenvalues --    0.28144   0.29692   0.36974   0.38551   0.54439
  Beta virt. eigenvalues --    0.56491   0.57518   0.57697   0.64269   0.79540

 Mulliken charges and spin densities:
               1          2
     1  C   -1.087084   1.063510
     2  H    0.043542  -0.031755
     3  H    0.043542  -0.031755
 Sum of Mulliken charges =  -1.00000   1.00000

 Dipole moment (field-independent basis, Debye):
    X=             -0.0000    Y=             -0.0000    Z=             -2.0606  Tot=              2.0606
 Quadrupole moment (field-independent basis, Debye-Ang):
   XX=            -14.3512   YY=            -12.4887   ZZ=            -16.5351
   XY=             -0.0000   XZ=             -0.0000   YZ=              0.0000

  Exact polarizability:  52.275  -0.000  38.782  -0.000   0.000  61.661
 Approx polarizability:  48.068   0.000  45.541   0.000   0.000  60.896

                      1                      2                      3
                     A1                     A1                     B2
 Frequencies --   1292.9387              2732.7222              2791.3932
 Red. masses --      1.1075                 1.0517                 1.1017
 Frc consts  --      1.0908                 4.6275                 5.0579
 IR Inten    --      1.8636               701.4482               407.9091

 - Thermochemistry -
 -------------------
 Temperature   298.150 Kelvin.  Pressure   1.00000 Atm.
 Atom     1 has atomic number  6 and mass  12.00000

 Molecular mass:    14.01565 amu.
 Principal axes and moments of inertia in atomic units:
                           1         2         3
     Eigenvalues --     3.01069   5.52086   8.53156
           X            0.00000   0.00000   1.00000
           Y            1.00000   0.00000  -0.00000
           Z            0.00000   1.00000   0.00000
 This molecule is an asymmetric top.
 Rotational symmetry number  2.
 Rotational temperatures (Kelvin)     28.76874    15.68845    10.15217
 Rotational constants (GHZ):         599.44407   326.89469   211.53717
 Zero-point vibrational energy      40775.0 (Joules/Mol)
                                    9.74547 (Kcal/Mol)
 Vibrational temperatures:   1860.25  3931.77  4016.19
          (Kelvin)

 Zero-point correction=                           0.015530 (Hartree/Particle)
 Thermal correction to Energy=                    0.018375
 Thermal correction to Enthalpy=                  0.019319
 Thermal correction to Gibbs Free Energy=        -0.002829
 Sum of electronic and zero-point Energies=            -39.179426
 Sum of electronic and thermal Energies=               -39.176581
 Sum of electronic and thermal Enthalpies=             -39.175637
 Sum of electronic and thermal Free Energies=          -39.197785

                     E (Thermal)             CV                S
                      KCal/Mol        Cal/Mol-Kelvin    Cal/Mol-Kelvin
 Total                   11.530              6.114             46.615
 Electronic               0.000              0.000              1.377
 Translational            0.889              2.981             33.861
 Rotational               0.889              2.981             11.348
 Vibrational              9.753              0.153              0.028

 Optimization completed.
    -- Stationary point found.
 Normal termination of Gaussian 09 at Wed Jan 23 22:02:18 2019.
