 Gaussian 09, Revision E.01,
 Gaussian 09:  EM64L-G09RevE.01 30-Nov-2015

 ------------------------------------------------------
 #p b3lyp/6-311++G(3df,2p) freq IOp(2/17=3) IOp(2/18=3)
 ------------------------------------------------------

 ---------
 b3lyp opt
 ---------
 Symbolic Z-matrix:
 Charge = -1 Multiplicity = 2

                         Standard orientation:
 ---------------------------------------------------------------------
 Center     Atomic      Atomic             Coordinates (Angstroms)
 Number     Number       Type             X           Y           Z
 ---------------------------------------------------------------------
      1          6           0        0.000000    0.000000    0.174757
      2          1           0       -0.000000    0.875732   -0.524272
      3          1           0       -0.000000   -0.875732   -0.524272
 ---------------------------------------------------------------------

 SCF Done:  E(UB3LYP) =  -39.1949559975     A.U. after   13 cycles

 The electronic state is 2-B1.
 Alpha  occ. eigenvalues --   -9.90941  -0.37834  -0.12135   0.02174   0.04763
 Alpha virt. eigenvalues --    0.14177   0.16961   0.23665   0.23967   0.25888
 Alpha virt. eigenvalues --    0.28654   0.36263   0.38235   0.54194   0.54579
 Alpha virt. eigenvalues --    0.55788   0.57495   0.61646   0.77846   0.78671

  Beta  occ. eigenvalues --   -9.89786  -0.34506  -0.11347   0.03986
  Beta virt. eigenvalues --    0.14203   0.16376   0.16903   0.23915   0.25819
  Beta virt. eigenvalues --    0.28144   0.29692   0.36975   0.38551   0.54438
  Beta virt. eigenvalues --    0.56492   0.57517   0.57696   0.64270   0.79540

 Mulliken charges and spin densities:
               1          2
     1  C   -1.087054   1.063514
     2  H    0.043527  -0.031757
     3  H    0.043527  -0.031757
 Sum of Mulliken charges =  -1.00000   1.00000

 Dipole moment (field-independent basis, Debye):
    X=             -0.0000    Y=             -0.0000    Z=             -2.0606  Tot=              2.0606
 Quadrupole moment (field-independent basis, Debye-Ang):
   XX=            -14.3512   YY=            -12.4890   ZZ=            -16.5344
   XY=             -0.0000   XZ=             -0.0000   YZ=             -0.0000

  Exact polarizability:  52.276   0.000  38.780  -0.000  -0.000  61.654
 Approx polarizability:  48.069   0.000  45.540   0.000  -0.000  60.891

                      1                      2                      3
                     A1                     A1                     B2
 Frequencies --   1293.0192              2732.6585              2791.2435
 Red. masses --      1.1075                 1.0517                 1.1017
 Frc consts  --      1.0909                 4.6273                 5.0573
 IR Inten    --      1.8724               701.4633               407.9856

 - Thermochemistry -
 -------------------
 Temperature   298.150 Kelvin.  Pressure   1.00000 Atm.
 Atom     1 has atomic number  6 and mass  12.00000

 Molecular mass:    14.01565 amu.
 Principal axes and moments of inertia in atomic units:
                           1         2         3
     Eigenvalues --     3.01142   5.52021   8.53163
           X            0.00000   0.00000   1.00000
           Y            1.00000   0.00000   0.00000
           Z           -0.00000   1.00000  -0.00000
 This molecule is an asymmetric top.
 Rotational symmetry number  2.
 Rotational temperatures (Kelvin)     28.76180    15.69031    10.15208
 Rotational constants (GHZ):         599.29940   326.93334   211.53534
 Zero-point vibrational energy      40774.2 (Joules/Mol)
                                    9.74528 (Kcal/Mol)
 Vibrational temperatures:   1860.36  3931.68  4015.97
          (Kelvin)

 Zero-point correction=                           0.015530 (Hartree/Particle)
 Thermal correction to Energy=                    0.018374
 Thermal correction to Enthalpy=                  0.019318
 Thermal correction to Gibbs Free Energy=        -0.002830
 Sum of electronic and zero-point Energies=            -39.179426
 Sum of electronic and thermal Energies=               -39.176582
 Sum of electronic and thermal Enthalpies=             -39.175638
 Sum of electronic and thermal Free Energies=          -39.197786

                     E (Thermal)             CV                S
                      KCal/Mol        Cal/Mol-Kelvin    Cal/Mol-Kelvin
 Total                   11.530              6.114             46.615
 Electronic               0.000              0.000              1.377
 Translational            0.889              2.981             33.861
 Rotational               0.889              2.981             11.348
 Vibrational              9.753              0.153              0.028

 Optimization completed.
    -- Stationary point found.
 Normal termination of Gaussian 09 at Wed Mar  6 06:04:03 2019.
