 Gaussian 09, Revision E.01,
 Gaussian 09:  EM64L-G09RevE.01 30-Nov-2015

 -------------------------------------------------
 #p b3lyp/6-311++G(3df,2p) opt freq symmetry=Loose
 -------------------------------------------------

 ---------
 b3lyp opt
 ---------
 Symbolic Z-matrix:
 Charge = -1 Multiplicity = 2

 SCF Done:  E(UB3LYP) =  -39.1947939163     A.U. after   13 cycles
 SCF Done:  E(UB3LYP) =  -39.1949536252     A.U. after    9 cycles
 SCF Done:  E(UB3LYP) =  -39.1949557908     A.U. after    8 cycles
 Optimization completed.
    -- Stationary point found.
 Normal termination of Gaussian 09 at Wed Jan 23 22:00:56 2019.

 ----------------------------------------------------------------------
 #P Geom=AllCheck Guess=TCheck SCRF=Check GenChk UB3LYP/6-311++G(3df,2p
 ) Freq
 ----------------------------------------------------------------------

 Structure from the checkpoint file:  "/scratch/sergio/H2C.q-1.m2-1.com-4919748/Gau-7485.chk"
 ---------
 b3lyp opt
 ---------
 Charge = -1 Multiplicity = 2

                         Standard orientation:
 ---------------------------------------------------------------------
 Center     Atomic      Atomic             Coordinates (Angstroms)
 Number     Number       Type             X           Y           Z
 ---------------------------------------------------------------------
      1          6           0        0.000000    0.000000    0.174499
      2          1           0       -0.000000    0.876332   -0.523496
      3          1           0       -0.000000   -0.876332   -0.523496
 ---------------------------------------------------------------------

 SCF Done:  E(UB3LYP) =  -39.1949557908     A.U. after    1 cycles

 The electronic state is 2-B1.
 Alpha  occ. eigenvalues --   -9.90940  -0.37835  -0.12161   0.02187   0.04761
 Alpha virt. eigenvalues --    0.14178   0.16958   0.23665   0.23966   0.25890
 Alpha virt. eigenvalues --    0.28653   0.36254   0.38236   0.54202   0.54572
 Alpha virt. eigenvalues --    0.55791   0.57505   0.61631   0.77845   0.78671

  Beta  occ. eigenvalues --   -9.89785  -0.34506  -0.11372   0.03999
  Beta virt. eigenvalues --    0.14204   0.16375   0.16900   0.23916   0.25821
  Beta virt. eigenvalues --    0.28143   0.29690   0.36965   0.38551   0.54447
  Beta virt. eigenvalues --    0.56485   0.57527   0.57700   0.64254   0.79540

 Mulliken charges and spin densities:
               1          2
     1  C   -1.087460   1.063458
     2  H    0.043730  -0.031729
     3  H    0.043730  -0.031729
 Sum of Mulliken charges =  -1.00000   1.00000

 Dipole moment (field-independent basis, Debye):
    X=             -0.0000    Y=             -0.0000    Z=             -2.0607  Tot=              2.0607
 Quadrupole moment (field-independent basis, Debye-Ang):
   XX=            -14.3516   YY=            -12.4849   ZZ=            -16.5425
   XY=             -0.0000   XZ=             -0.0000   YZ=              0.0000

  Exact polarizability:  52.268  -0.000  38.803  -0.000   0.000  61.741
 Approx polarizability:  48.063   0.000  45.560   0.000   0.000  60.942

                      1                      2                      3
                     A1                     A1                     B2
 Frequencies --   1292.0087              2733.6840              2793.3054
 Red. masses --      1.1076                 1.0517                 1.1019
 Frc consts  --      1.0893                 4.6304                 5.0655
 IR Inten    --      1.7665               701.2563               406.9976

 - Thermochemistry -
 -------------------
 Temperature   298.150 Kelvin.  Pressure   1.00000 Atm.
 Atom     1 has atomic number  6 and mass  12.00000

 Molecular mass:    14.01565 amu.
 Principal axes and moments of inertia in atomic units:
                           1         2         3
     Eigenvalues --     3.00251   5.52777   8.53028
           X            0.00000   0.00000   1.00000
           Y            1.00000   0.00000  -0.00000
           Z            0.00000   1.00000   0.00000
 This molecule is an asymmetric top.
 Rotational symmetry number  2.
 Rotational temperatures (Kelvin)     28.84714    15.66884    10.15369
 Rotational constants (GHZ):         601.07757   326.48608   211.56873
 Zero-point vibrational energy      40786.7 (Joules/Mol)
                                    9.74825 (Kcal/Mol)
 Vibrational temperatures:   1858.91  3933.16  4018.94
          (Kelvin)

 Zero-point correction=                           0.015535 (Hartree/Particle)
 Thermal correction to Energy=                    0.018379
 Thermal correction to Enthalpy=                  0.019323
 Thermal correction to Gibbs Free Energy=        -0.002824
 Sum of electronic and zero-point Energies=            -39.179421
 Sum of electronic and thermal Energies=               -39.176577
 Sum of electronic and thermal Enthalpies=             -39.175633
 Sum of electronic and thermal Free Energies=          -39.197780

                     E (Thermal)             CV                S
                      KCal/Mol        Cal/Mol-Kelvin    Cal/Mol-Kelvin
 Total                   11.533              6.115             46.613
 Electronic               0.000              0.000              1.377
 Translational            0.889              2.981             33.861
 Rotational               0.889              2.981             11.347
 Vibrational              9.756              0.153              0.028

 Optimization completed.
    -- Stationary point found.
 Normal termination of Gaussian 09 at Wed Jan 23 22:01:11 2019.
