 Gaussian 09, Revision E.01,
 Gaussian 09:  EM64L-G09RevE.01 30-Nov-2015

 -------------------------------------------------
 #p b3lyp/6-311++G(3df,2p) opt freq symmetry=Loose
 -------------------------------------------------

 ---------
 b3lyp opt
 ---------
 Symbolic Z-matrix:
 Charge = -1 Multiplicity = 4

 SCF Done:  E(UB3LYP) =  -39.1357809431     A.U. after   11 cycles
 SCF Done:  E(UB3LYP) =  -39.1358460263     A.U. after   10 cycles
 Optimization completed.
    -- Stationary point found.
 Normal termination of Gaussian 09 at Wed Jan 23 22:02:52 2019.

 ----------------------------------------------------------------------
 #P Geom=AllCheck Guess=TCheck SCRF=Check GenChk UB3LYP/6-311++G(3df,2p
 ) Freq
 ----------------------------------------------------------------------

 Structure from the checkpoint file:  "/scratch/sergio/H2C.q-1.m4-2.com-4919752/Gau-8003.chk"
 ---------
 b3lyp opt
 ---------
 Charge = -1 Multiplicity = 4

                         Standard orientation:
 ---------------------------------------------------------------------
 Center     Atomic      Atomic             Coordinates (Angstroms)
 Number     Number       Type             X           Y           Z
 ---------------------------------------------------------------------
      1          6           0       -0.000000    0.000000    0.103190
      2          1           0        0.000000    1.002630   -0.309571
      3          1           0       -0.000000   -1.002630   -0.309571
 ---------------------------------------------------------------------

 SCF Done:  E(UB3LYP) =  -39.1358460263     A.U. after    1 cycles

 The electronic state is 4-B1.
 Alpha  occ. eigenvalues --  -10.05448  -0.52022  -0.29711  -0.12387  -0.08944
 Alpha  occ. eigenvalues --    0.07440
 Alpha virt. eigenvalues --    0.11420   0.17804   0.18426   0.21726   0.22802
 Alpha virt. eigenvalues --    0.26652   0.32124   0.44903   0.46618   0.47534
 Alpha virt. eigenvalues --    0.48503   0.50518   0.66942   0.67003   0.74594

  Beta  occ. eigenvalues --  -10.02498  -0.44290  -0.27576
  Beta virt. eigenvalues --    0.05733   0.08064   0.12199   0.14477   0.21073
  Beta virt. eigenvalues --    0.22124   0.23040   0.24527   0.29163   0.33868
  Beta virt. eigenvalues --    0.46515   0.49088   0.51020   0.51822   0.52611

 Mulliken charges and spin densities:
               1          2
     1  C    1.621444   0.005435
     2  H   -1.310722   1.497282
     3  H   -1.310722   1.497282
 Sum of Mulliken charges =  -1.00000   3.00000

 Dipole moment (field-independent basis, Debye):
    X=              0.0000    Y=             -0.0000    Z=              1.7453  Tot=              1.7453
 Quadrupole moment (field-independent basis, Debye-Ang):
   XX=            -22.9873   YY=            -38.2927   ZZ=            -24.9702
   XY=             -0.0000   XZ=             -0.0000   YZ=              0.0000

  Exact polarizability: 170.631  -0.0001023.974  -0.000   0.000 199.538
 Approx polarizability: 139.917   0.0001123.623   0.000   0.000 162.119

                      1                      2                      3
                     A1                     A1                     B2
 Frequencies --   1012.1551              2971.0479              3261.1581
 Red. masses --      1.1348                 1.0282                 1.1388
 Frc consts  --      0.6850                 5.3474                 7.1360
 IR Inten    --    816.9216                25.8315                47.5982

 - Thermochemistry -
 -------------------
 Temperature   298.150 Kelvin.  Pressure   1.00000 Atm.
 Atom     1 has atomic number  6 and mass  12.00000

 Molecular mass:    14.01565 amu.
 Principal axes and moments of inertia in atomic units:
                           1         2         3
     Eigenvalues --     1.04997   7.23593   8.28590
           X            0.00000   0.00000   1.00000
           Y            1.00000   0.00000  -0.00000
           Z            0.00000   1.00000   0.00000
 This molecule is an asymmetric top.
 Rotational symmetry number  2.
 Rotational temperatures (Kelvin)     82.49140    11.96997    10.45315
 Rotational constants (GHZ):        1718.84385   249.41391   217.80865
 Zero-point vibrational energy      43330.9 (Joules/Mol)
                                   10.35633 (Kcal/Mol)
 Vibrational temperatures:   1456.26  4274.67  4692.07
          (Kelvin)

 Zero-point correction=                           0.016504 (Hartree/Particle)
 Thermal correction to Energy=                    0.019372
 Thermal correction to Enthalpy=                  0.020316
 Thermal correction to Gibbs Free Energy=        -0.002132
 Sum of electronic and zero-point Energies=            -39.119342
 Sum of electronic and thermal Energies=               -39.116474
 Sum of electronic and thermal Enthalpies=             -39.115530
 Sum of electronic and thermal Free Energies=          -39.137978

                     E (Thermal)             CV                S
                      KCal/Mol        Cal/Mol-Kelvin    Cal/Mol-Kelvin
 Total                   12.156              6.326             47.246
 Electronic               0.000              0.000              2.755
 Translational            0.889              2.981             33.861
 Rotational               0.889              2.981             10.541
 Vibrational             10.378              0.364              0.089

 Normal termination of Gaussian 09 at Wed Jan 23 22:03:07 2019.
