 Gaussian 09, Revision E.01,
 Gaussian 09:  EM64L-G09RevE.01 30-Nov-2015

 -------------------------------------------------
 #p b3lyp/6-311++G(3df,2p) opt freq symmetry=Loose
 -------------------------------------------------

 ---------
 b3lyp opt
 ---------
 Symbolic Z-matrix:
 Charge = -1 Multiplicity = 2

 SCF Done:  E(UB3LYP) =  -77.3130044372     A.U. after   16 cycles
 SCF Done:  E(UB3LYP) =  -77.3165269741     A.U. after   12 cycles
 SCF Done:  E(UB3LYP) =  -77.3166678443     A.U. after   12 cycles
 SCF Done:  E(UB3LYP) =  -77.3166745502     A.U. after    9 cycles
 SCF Done:  E(UB3LYP) =  -77.3166756864     A.U. after    9 cycles
 Optimization completed.
    -- Stationary point found.
 Normal termination of Gaussian 09 at Sun Feb  3 22:18:01 2019.

 ----------------------------------------------------------------------
 #P Geom=AllCheck Guess=TCheck SCRF=Check GenChk UB3LYP/6-311++G(3df,2p
 ) Freq
 ----------------------------------------------------------------------

 Structure from the checkpoint file:  "/scratch/sergio/H2C2.q-1.m2-2.com-4935915/Gau-31160.chk"
 ---------
 b3lyp opt
 ---------
 Charge = -1 Multiplicity = 2

                         Standard orientation:
 ---------------------------------------------------------------------
 Center     Atomic      Atomic             Coordinates (Angstroms)
 Number     Number       Type             X           Y           Z
 ---------------------------------------------------------------------
      1          6           0       -0.000000    0.000000    0.849730
      2          6           0        0.000000   -0.000000   -0.482715
      3          1           0       -0.000000    0.919002   -1.101046
      4          1           0       -0.000000   -0.919002   -1.101046
 ---------------------------------------------------------------------

 SCF Done:  E(UB3LYP) =  -77.3166756864     A.U. after    1 cycles

 The electronic state is 2-B2.
 Alpha  occ. eigenvalues --   -9.93153  -9.92445  -0.50566  -0.29537  -0.20732
 Alpha  occ. eigenvalues --   -0.04045  -0.03527   0.06063
 Alpha virt. eigenvalues --    0.13196   0.14772   0.19872   0.20358   0.22550
 Alpha virt. eigenvalues --    0.23694   0.24842   0.27235   0.29792   0.29846
 Alpha virt. eigenvalues --    0.30546   0.32695   0.38900   0.49399   0.51722

  Beta  occ. eigenvalues --   -9.93331  -9.91210  -0.49143  -0.27428  -0.19278
  Beta  occ. eigenvalues --   -0.03163  -0.01856
  Beta virt. eigenvalues --    0.13246   0.14863   0.17852   0.19978   0.20700
  Beta virt. eigenvalues --    0.22425   0.23593   0.27221   0.27334   0.29885
  Beta virt. eigenvalues --    0.30099   0.31178   0.33103   0.40219   0.49921

 Mulliken charges and spin densities:
               1          2
     1  C   -0.809768   1.027406
     2  C   -0.174376  -0.198048
     3  H   -0.007928   0.085321
     4  H   -0.007928   0.085321
 Sum of Mulliken charges =  -1.00000   1.00000

 Dipole moment (field-independent basis, Debye):
    X=              0.0000    Y=             -0.0000    Z=             -3.5086  Tot=              3.5086
 Quadrupole moment (field-independent basis, Debye-Ang):
   XX=            -19.3955   YY=            -18.7075   ZZ=            -25.0966
   XY=              0.0000   XZ=              0.0000   YZ=             -0.0000

  Exact polarizability:  39.571   0.000  55.196  -0.000  -0.000  86.059
 Approx polarizability:  49.214  -0.000  59.500   0.000   0.000  97.599

                      1                      2                      3
                     B1                     B2                     A1
 Frequencies --    783.0273               878.2378              1347.8908
 Red. masses --      1.3618                 1.3464                 1.2742
 Frc consts  --      0.4920                 0.6118                 1.3639
 IR Inten    --     66.8759                11.6052                 2.6898

                      4                      5                      6
                     A1                     B2                     A1
 Frequencies --   1509.9660              2741.3072              2826.4238
 Red. masses --      3.9304                 1.1060                 1.0437
 Frc consts  --      5.2799                 4.8968                 4.9124
 IR Inten    --     14.1566               619.3327               490.4033

 - Thermochemistry -
 -------------------
 Temperature   298.150 Kelvin.  Pressure   1.00000 Atm.
 Atom     1 has atomic number  6 and mass  12.00000

 Molecular mass:    26.01565 amu.
 Principal axes and moments of inertia in atomic units:
                           1         2         3
     Eigenvalues --     6.07919  48.99770  55.07688
           X           -0.00000   0.00000   1.00000
           Y            0.00000   1.00000  -0.00000
           Z            1.00000  -0.00000   0.00000
 This molecule is an asymmetric top.
 Rotational symmetry number  2.
 Rotational temperatures (Kelvin)     14.24760     1.76771     1.57260
 Rotational constants (GHZ):         296.87221    36.83318    32.76767
 Zero-point vibrational energy      60332.8 (Joules/Mol)
                                   14.41988 (Kcal/Mol)
 Vibrational temperatures:   1126.60  1263.59  1939.31  2172.50  3944.12
          (Kelvin)           4066.59

 Zero-point correction=                           0.022980 (Hartree/Particle)
 Thermal correction to Energy=                    0.025968
 Thermal correction to Enthalpy=                  0.026912
 Thermal correction to Gibbs Free Energy=         0.001465
 Sum of electronic and zero-point Energies=            -77.293696
 Sum of electronic and thermal Energies=               -77.290708
 Sum of electronic and thermal Enthalpies=             -77.289763
 Sum of electronic and thermal Free Energies=          -77.315211

                     E (Thermal)             CV                S
                      KCal/Mol        Cal/Mol-Kelvin    Cal/Mol-Kelvin
 Total                   16.295              7.371             53.558
 Electronic               0.000              0.000              1.377
 Translational            0.889              2.981             35.704
 Rotational               0.889              2.981             16.069
 Vibrational             14.518              1.409              0.408

 Optimization completed.
    -- Stationary point found.
 Normal termination of Gaussian 09 at Sun Feb  3 22:18:48 2019.
