 Gaussian 09, Revision E.01,
 Gaussian 09:  EM64L-G09RevE.01 30-Nov-2015

 -------------------------------------------------
 #p b3lyp/6-311++G(3df,2p) opt freq symmetry=Loose
 -------------------------------------------------

 ---------
 b3lyp opt
 ---------
 Symbolic Z-matrix:
 Charge = -1 Multiplicity = 2

 SCF Done:  E(UB3LYP) =  -77.3286165813     A.U. after   17 cycles
 SCF Done:  E(UB3LYP) =  -77.3319694457     A.U. after   17 cycles
 SCF Done:  E(UB3LYP) =  -77.3320126117     A.U. after   17 cycles
 Optimization completed.
    -- Stationary point found.
 Normal termination of Gaussian 09 at Sun Feb  3 22:19:38 2019.

 ----------------------------------------------------------------------
 #P Geom=AllCheck Guess=TCheck SCRF=Check GenChk UB3LYP/6-311++G(3df,2p
 ) Freq
 ----------------------------------------------------------------------

 Structure from the checkpoint file:  "/scratch/sergio/H2C2.q-1.m2-6.com-4935919/Gau-31797.chk"
 ---------
 b3lyp opt
 ---------
 Charge = -1 Multiplicity = 2

                         Standard orientation:
 ---------------------------------------------------------------------
 Center     Atomic      Atomic             Coordinates (Angstroms)
 Number     Number       Type             X           Y           Z
 ---------------------------------------------------------------------
      1          6           0       -0.000000    0.000000    0.599832
      2          6           0        0.000000    0.000000   -0.599832
      3          1           0       -0.000000    0.000000    1.669405
      4          1           0        0.000000    0.000000   -1.669405
 ---------------------------------------------------------------------

 SCF Done:  E(UB3LYP) =  -77.3320126116     A.U. after    9 cycles

 The electronic state is 2-SGU.
 Alpha  occ. eigenvalues --  -10.05419 -10.05182  -0.63287  -0.44202  -0.37289
 Alpha  occ. eigenvalues --   -0.17489  -0.17489   0.06391
 Alpha virt. eigenvalues --    0.07873   0.13300   0.13300   0.17732   0.17843
 Alpha virt. eigenvalues --    0.17843   0.19275   0.22368   0.23485   0.23485
 Alpha virt. eigenvalues --    0.25240   0.32884   0.36536   0.43085   0.43086

  Beta  occ. eigenvalues --  -10.05372 -10.05135  -0.63226  -0.44058  -0.37198
  Beta  occ. eigenvalues --   -0.17438  -0.17438
  Beta virt. eigenvalues --    0.10146   0.10802   0.13252   0.13252   0.17043
  Beta virt. eigenvalues --    0.17043   0.17895   0.20349   0.22771   0.23789
  Beta virt. eigenvalues --    0.23789   0.25198   0.34098   0.36950   0.42992

 Mulliken charges and spin densities:
               1          2
     1  C    2.061434  -2.363693
     2  C    2.061434  -2.363693
     3  H   -2.561434   2.863693
     4  H   -2.561434   2.863693
 Sum of Mulliken charges =  -1.00000   1.00000

 Dipole moment (field-independent basis, Debye):
    X=             -0.0000    Y=             -0.0000    Z=              0.0000  Tot=              0.0000
 Quadrupole moment (field-independent basis, Debye-Ang):
   XX=            -30.6374   YY=            -30.6374   ZZ=            -78.8690
   XY=             -0.0000   XZ=              0.0000   YZ=              0.0000

  Exact polarizability: 180.920   0.000 180.920  -0.000  -0.0002370.550
 Approx polarizability: 128.323   0.000 128.323  -0.000  -0.0005607.029

                      1                      2                      3
                     PIU                    PIU                    PIG
 Frequencies --    815.2462               815.2462              1208.9698
 Red. masses --      1.0848                 1.0848                 1.5773
 Frc consts  --      0.4248                 0.4248                 1.3583
 IR Inten    --   2803.4986              2803.4986                 0.0000

                      4                      5                      6
                     PIG                    SGG                    SGU
 Frequencies --   1208.9698              2030.8410              3300.1537
 Red. masses --      1.5773                 3.5685                 1.0848
 Frc consts  --      1.3583                 8.6714                 6.9610
 IR Inten    --      0.0000                 0.0000                18.8225

                      7
                     SGG
 Frequencies --   3397.2444
 Red. masses --      1.2573
 Frc consts  --      8.5497
 IR Inten    --      0.0000

 - Thermochemistry -
 -------------------
 Temperature   298.150 Kelvin.  Pressure   1.00000 Atm.
 Atom     1 has atomic number  6 and mass  12.00000

 Molecular mass:    26.01565 amu.
 Principal axes and moments of inertia in atomic units:
                           1         2         3
     Eigenvalues --     0.00000  50.89691  50.89691
           X           -0.00000   0.99904  -0.04391
           Y           -0.00000   0.04391   0.99904
           Z            1.00000   0.00000   0.00000
 This molecule is a prolate symmetric top.
 Rotational symmetry number  2.
 Rotational temperature (Kelvin)      1.70175
 Rotational constant (GHZ):          35.458755
 Zero-point vibrational energy      76421.5 (Joules/Mol)
                                   18.26517 (Kcal/Mol)
 Vibrational temperatures:   1172.96  1172.96  1739.44  1739.44  2921.92
          (Kelvin)           4748.18  4887.87

 Zero-point correction=                           0.029107 (Hartree/Particle)
 Thermal correction to Energy=                    0.031649
 Thermal correction to Enthalpy=                  0.032593
 Thermal correction to Gibbs Free Energy=         0.009583
 Sum of electronic and zero-point Energies=            -77.302905
 Sum of electronic and thermal Energies=               -77.300364
 Sum of electronic and thermal Enthalpies=             -77.299419
 Sum of electronic and thermal Free Energies=          -77.322430

                     E (Thermal)             CV                S
                      KCal/Mol        Cal/Mol-Kelvin    Cal/Mol-Kelvin
 Total                   19.860              6.629             48.429
 Electronic               0.000              0.000              1.377
 Translational            0.889              2.981             35.704
 Rotational               0.592              1.987             10.876
 Vibrational             18.379              1.661              0.471

 Optimization completed.
    -- Stationary point found.
 Normal termination of Gaussian 09 at Sun Feb  3 22:20:19 2019.
