 Gaussian 09, Revision E.01,
 Gaussian 09:  EM64L-G09RevE.01 30-Nov-2015

 ------------------------------------------------------
 #p b3lyp/6-311++G(3df,2p) freq IOp(2/17=3) IOp(2/18=3)
 ------------------------------------------------------

 ---------
 b3lyp opt
 ---------
 Symbolic Z-matrix:
 Charge = -1 Multiplicity = 2

                         Standard orientation:
 ---------------------------------------------------------------------
 Center     Atomic      Atomic             Coordinates (Angstroms)
 Number     Number       Type             X           Y           Z
 ---------------------------------------------------------------------
      1          6           0        0.205772   -1.170427    0.000000
      2          6           0       -0.354964    0.069288   -0.000000
      3          1           0       -0.402633   -2.062117    0.000000
      4          1           0        1.297785   -1.289633    0.000000
      5          8           0        0.000000    1.244823   -0.000000
 ---------------------------------------------------------------------

 SCF Done:  E(UB3LYP) =  -152.655507199     A.U. after   18 cycles

 The electronic state is 2-A'.
 Alpha  occ. eigenvalues --  -18.90615 -10.01019  -9.94016  -0.81838  -0.51290
 Alpha  occ. eigenvalues --   -0.30578  -0.23722  -0.23100  -0.17560  -0.15096
 Alpha  occ. eigenvalues --   -0.00366   0.04884
 Alpha virt. eigenvalues --    0.13253   0.14307   0.17999   0.20743   0.21560
 Alpha virt. eigenvalues --    0.22170   0.22647   0.26347   0.28560   0.28719
 Alpha virt. eigenvalues --    0.28865   0.32011   0.36083   0.39563   0.40453

  Beta  occ. eigenvalues --  -18.89836 -10.00155  -9.93867  -0.80256  -0.50103
  Beta  occ. eigenvalues --   -0.29228  -0.22431  -0.21531  -0.16693  -0.11624
  Beta  occ. eigenvalues --   -0.00054
  Beta virt. eigenvalues --    0.12368   0.14399   0.16334   0.19036   0.20881
  Beta virt. eigenvalues --    0.22107   0.22448   0.22725   0.26667   0.28660
  Beta virt. eigenvalues --    0.29100   0.29719   0.32349   0.36559   0.39676

 Mulliken charges and spin densities:
               1          2
     1  C   -0.134592  -0.576104
     2  C   -0.095362   1.056604
     3  H    0.048333   0.033614
     4  H   -0.184945   0.316587
     5  O   -0.633434   0.169299
 Sum of Mulliken charges =  -1.00000   1.00000

 Dipole moment (field-independent basis, Debye):
    X=              0.1863    Y=             -0.3410    Z=              0.0000  Tot=              0.3886
 Quadrupole moment (field-independent basis, Debye-Ang):
   XX=            -25.2934   YY=            -29.8435   ZZ=            -24.8279
   XY=              1.1548   XZ=             -0.0000   YZ=              0.0000

  Exact polarizability: 110.474 -17.858  76.834  -0.000   0.000  53.011
 Approx polarizability: 107.552 -21.950 107.267  -0.000   0.000  60.707

                      1                      2                      3
                     A'                     A"                     A"
 Frequencies --    457.8873               505.9576               630.0013
 Red. masses --      3.1099                 1.3219                 1.6711
 Frc consts  --      0.3842                 0.1994                 0.3908
 IR Inten    --     24.6373               104.9304                 0.3426

                      4                      5                      6
                     A'                     A'                     A'
 Frequencies --   1003.2886              1111.5908              1421.6728
 Red. masses --      1.5148                 4.0346                 1.2561
 Frc consts  --      0.8984                 2.9372                 1.4959
 IR Inten    --     41.2803                62.6579                 4.5972

                      7                      8                      9
                     A'                     A'                     A'
 Frequencies --   1714.7762              2939.8608              3179.4200
 Red. masses --     11.6642                 1.0660                 1.0928
 Frc consts  --     20.2079                 5.4282                 6.5087
 IR Inten    --    857.7879               337.2087                14.7463

 - Thermochemistry -
 -------------------
 Temperature   298.150 Kelvin.  Pressure   1.00000 Atm.
 Atom     1 has atomic number  6 and mass  12.00000

 Molecular mass:    42.01056 amu.
 Principal axes and moments of inertia in atomic units:
                           1         2         3
     Eigenvalues --    12.50071 169.06472 181.56543
           X           -0.09081   0.99587  -0.00000
           Y            0.99587   0.09081   0.00000
           Z           -0.00000   0.00000   1.00000
 This molecule is an asymmetric top.
 Rotational symmetry number  1.
 Rotational temperatures (Kelvin)      6.92871     0.51231     0.47704
 Rotational constants (GHZ):         144.37114    10.67485     9.93989
 Zero-point vibrational energy      77544.7 (Joules/Mol)
                                   18.53362 (Kcal/Mol)
 Warning -- explicit consideration of   2 degrees of freedom as
           vibrations may cause significant error
 Vibrational temperatures:    658.80   727.96   906.43  1443.51  1599.33
          (Kelvin)           2045.47  2467.18  4229.80  4574.47

 Zero-point correction=                           0.029535 (Hartree/Particle)
 Thermal correction to Energy=                    0.033058
 Thermal correction to Enthalpy=                  0.034002
 Thermal correction to Gibbs Free Energy=         0.004982
 Sum of electronic and zero-point Energies=           -152.625972
 Sum of electronic and thermal Energies=              -152.622449
 Sum of electronic and thermal Enthalpies=            -152.621505
 Sum of electronic and thermal Free Energies=         -152.650525

                     E (Thermal)             CV                S
                      KCal/Mol        Cal/Mol-Kelvin    Cal/Mol-Kelvin
 Total                   20.744             10.288             61.078
 Electronic               0.000              0.000              1.377
 Translational            0.889              2.981             37.133
 Rotational               0.889              2.981             20.578
 Vibrational             18.967              4.326              1.989
 Vibration     1          0.816              1.343              0.772
 Vibration     2          0.861              1.237              0.643

 Optimization completed.
    -- Stationary point found.
 Normal termination of Gaussian 09 at Thu Mar  7 10:07:11 2019.
