 Gaussian 09, Revision E.01,
 Gaussian 09:  EM64L-G09RevE.01 30-Nov-2015

 ------------------------------------------------------
 #p b3lyp/6-311++G(3df,2p) freq IOp(2/17=3) IOp(2/18=3)
 ------------------------------------------------------

 ---------
 b3lyp opt
 ---------
 Symbolic Z-matrix:
 Charge = -1 Multiplicity = 2

                         Standard orientation:
 ---------------------------------------------------------------------
 Center     Atomic      Atomic             Coordinates (Angstroms)
 Number     Number       Type             X           Y           Z
 ---------------------------------------------------------------------
      1          6           0        0.608087   -1.173313    0.000000
      2          6           0        0.030100   -0.118414    0.000000
      3          1           0        1.102251   -2.110485    0.000000
      4          1           0       -0.000000    1.793455   -0.000000
      5          8           0       -0.616422    1.008424   -0.000000
 ---------------------------------------------------------------------

 SCF Done:  E(UB3LYP) =  -152.589663621     A.U. after   23 cycles

 The electronic state is 2-A'.
 Alpha  occ. eigenvalues --  -19.03865 -10.08577 -10.01302  -0.94549  -0.60318
 Alpha  occ. eigenvalues --   -0.46839  -0.37777  -0.31447  -0.27701  -0.13123
 Alpha  occ. eigenvalues --   -0.10980   0.05925
 Alpha virt. eigenvalues --    0.08687   0.15183   0.16724   0.16977   0.18636
 Alpha virt. eigenvalues --    0.19134   0.20027   0.21881   0.22632   0.25112
 Alpha virt. eigenvalues --    0.26002   0.29149   0.32602   0.35309   0.36397

  Beta  occ. eigenvalues --  -19.03690 -10.08556 -10.01254  -0.94182  -0.60185
  Beta  occ. eigenvalues --   -0.46475  -0.37703  -0.31267  -0.27533  -0.12996
  Beta  occ. eigenvalues --   -0.10889
  Beta virt. eigenvalues --    0.09384   0.11621   0.15499   0.16812   0.17324
  Beta virt. eigenvalues --    0.19371   0.19411   0.20553   0.22720   0.22885
  Beta virt. eigenvalues --    0.25171   0.26347   0.29968   0.33090   0.35617

 Mulliken charges and spin densities:
               1          2
     1  C   -1.576132   1.513062
     2  C    3.902267  -3.928783
     3  H   -1.475767   1.774621
     4  H   -1.217374   1.569252
     5  O   -0.632995   0.071847
 Sum of Mulliken charges =  -1.00000   1.00000

 Dipole moment (field-independent basis, Debye):
    X=             -2.4491    Y=             -3.3934    Z=              0.0000  Tot=              4.1848
 Quadrupole moment (field-independent basis, Debye-Ang):
   XX=            -36.6747   YY=            -57.5405   ZZ=            -32.3523
   XY=              3.8278   XZ=              0.0000   YZ=             -0.0000

  Exact polarizability: 259.785-368.6611647.219  -0.000  -0.000 108.710
 Approx polarizability: 264.354-447.6341898.863   0.000  -0.000 103.457

                      1                      2                      3
                     A'                     A"                     A"
 Frequencies --    355.0540               419.6351               534.6574
 Red. masses --      4.9056                 9.0741                 1.1896
 Frc consts  --      0.3644                 0.9414                 0.2004
 IR Inten    --     51.3849                26.1803               439.8776

                      4                      5                      6
                     A'                     A'                     A'
 Frequencies --    631.2113              1064.5653              1168.6038
 Red. masses --      1.1949                 8.9086                 1.1866
 Frc consts  --      0.2805                 5.9484                 0.9548
 IR Inten    --    309.0490              1014.0431              1301.1283

                      7                      8                      9
                     A'                     A'                     A'
 Frequencies --   2206.4417              2971.6104              3465.1486
 Red. masses --      6.0167                 1.0728                 1.1573
 Frc consts  --     17.2580                 5.5818                 8.1872
 IR Inten    --   2076.0961             15874.6679               735.2803

 - Thermochemistry -
 -------------------
 Temperature   298.150 Kelvin.  Pressure   1.00000 Atm.
 Atom     1 has atomic number  6 and mass  12.00000

 Molecular mass:    42.01056 amu.
 Principal axes and moments of inertia in atomic units:
                           1         2         3
     Eigenvalues --     2.81927 184.31918 187.13844
           X           -0.46379   0.88595  -0.00000
           Y            0.88595   0.46379   0.00000
           Z           -0.00000   0.00000   1.00000
 This molecule is an asymmetric top.
 Rotational symmetry number  1.
 Rotational temperatures (Kelvin)     30.72211     0.46991     0.46283
 Rotational constants (GHZ):         640.14575     9.79139     9.64388
 Zero-point vibrational energy      76662.3 (Joules/Mol)
                                   18.32272 (Kcal/Mol)
 Warning -- explicit consideration of   3 degrees of freedom as
           vibrations may cause significant error
 Vibrational temperatures:    510.84   603.76   769.25   908.17  1531.67
          (Kelvin)           1681.36  3174.57  4275.48  4985.57

 Zero-point correction=                           0.029199 (Hartree/Particle)
 Thermal correction to Energy=                    0.033069
 Thermal correction to Enthalpy=                  0.034014
 Thermal correction to Gibbs Free Energy=         0.005098
 Sum of electronic and zero-point Energies=           -152.560465
 Sum of electronic and thermal Energies=              -152.556594
 Sum of electronic and thermal Enthalpies=            -152.555650
 Sum of electronic and thermal Free Energies=         -152.584565

                     E (Thermal)             CV                S
                      KCal/Mol        Cal/Mol-Kelvin    Cal/Mol-Kelvin
 Total                   20.751             11.637             60.857
 Electronic               0.000              0.000              1.377
 Translational            0.889              2.981             37.133
 Rotational               0.889              2.981             19.214
 Vibrational             18.974              5.676              3.132
 Vibration     1          0.731              1.565              1.144
 Vibration     2          0.782              1.428              0.893
 Vibration     3          0.890              1.173              0.577

 Optimization completed.
    -- Stationary point found.
 Normal termination of Gaussian 09 at Thu Mar  7 09:54:33 2019.
