 Gaussian 09, Revision E.01,
 Gaussian 09:  EM64L-G09RevE.01 30-Nov-2015

 ------------------------------------------------------
 #p b3lyp/6-311++G(3df,2p) freq IOp(2/17=3) IOp(2/18=3)
 ------------------------------------------------------

 ---------
 b3lyp opt
 ---------
 Symbolic Z-matrix:
 Charge = -1 Multiplicity = 4

                         Standard orientation:
 ---------------------------------------------------------------------
 Center     Atomic      Atomic             Coordinates (Angstroms)
 Number     Number       Type             X           Y           Z
 ---------------------------------------------------------------------
      1          6           0        0.006685   -1.447284    0.000000
      2          6           0        0.385401   -0.090866    0.000000
      3          1           0        1.431529    0.227778    0.000000
      4          1           0        0.000000    1.797754   -0.000000
      5          8           0       -0.473005    0.900421   -0.000000
 ---------------------------------------------------------------------

 SCF Done:  E(UB3LYP) =  -152.478241005     A.U. after   20 cycles

 The electronic state is 4-A".
 Alpha  occ. eigenvalues --  -19.06683 -10.12722 -10.05391  -0.97430  -0.62328
 Alpha  occ. eigenvalues --   -0.45490  -0.42921  -0.31687  -0.27053  -0.15411
 Alpha  occ. eigenvalues --   -0.12817  -0.07274   0.05523
 Alpha virt. eigenvalues --    0.11335   0.12089   0.15589   0.17315   0.18374
 Alpha virt. eigenvalues --    0.19070   0.20322   0.21991   0.24162   0.25427
 Alpha virt. eigenvalues --    0.27046   0.29159   0.32116   0.35866   0.39101

  Beta  occ. eigenvalues --  -19.05680 -10.12300 -10.03447  -0.95411  -0.58052
  Beta  occ. eigenvalues --   -0.42978  -0.40616  -0.27333  -0.25326  -0.12056
  Beta virt. eigenvalues --   -0.00759   0.07393   0.11100   0.14089   0.16054
  Beta virt. eigenvalues --    0.16315   0.17954   0.19439   0.20552   0.21825
  Beta virt. eigenvalues --    0.24182   0.24848   0.26229   0.28323   0.30625

 Mulliken charges and spin densities:
               1          2
     1  C   -0.237535   1.101987
     2  C    1.671981  -0.884608
     3  H   -0.921515   1.095900
     4  H   -1.042477   1.417609
     5  O   -0.470453   0.269112
 Sum of Mulliken charges =  -1.00000   3.00000

 Dipole moment (field-independent basis, Debye):
    X=             -1.8687    Y=             -4.0975    Z=             -0.0000  Tot=              4.5035
 Quadrupole moment (field-independent basis, Debye-Ang):
   XX=            -37.4821   YY=            -59.5523   ZZ=            -29.8992
   XY=             -3.4480   XZ=             -0.0000   YZ=              0.0000

  Exact polarizability: 388.467-203.262 294.862   0.000  -0.000 111.307
 Approx polarizability: 334.198-174.753 267.296   0.000  -0.000 105.662

                      1                      2                      3
                     A"                     A'                     A"
 Frequencies --    503.6388               507.8012               919.4439
 Red. masses --      1.3364                 6.5556                 1.3227
 Frc consts  --      0.1997                 0.9960                 0.6588
 IR Inten    --   1050.9065                15.0268                 5.2759

                      4                      5                      6
                     A'                     A'                     A'
 Frequencies --   1095.8343              1209.3459              1296.3110
 Red. masses --      3.0817                 1.2369                 2.2934
 Frc consts  --      2.1804                 1.0658                 2.2706
 IR Inten    --    122.4593              1050.4014                43.7304

                      7                      8                      9
                     A'                     A'                     A'
 Frequencies --   1500.4021              2725.1139              3022.5456
 Red. masses --      2.3496                 1.0656                 1.0845
 Frc consts  --      3.1165                 4.6624                 5.8373
 IR Inten    --     82.5227              1916.4061                74.1672

 - Thermochemistry -
 -------------------
 Temperature   298.150 Kelvin.  Pressure   1.00000 Atm.
 Atom     1 has atomic number  6 and mass  12.00000

 Molecular mass:    42.01056 amu.
 Principal axes and moments of inertia in atomic units:
                           1         2         3
     Eigenvalues --    21.29049 152.95803 174.24852
           X           -0.19604   0.98060   0.00000
           Y            0.98060   0.19604   0.00000
           Z            0.00000   0.00000   1.00000
 This molecule is an asymmetric top.
 Rotational symmetry number  1.
 Rotational temperatures (Kelvin)      4.06819     0.56626     0.49707
 Rotational constants (GHZ):          84.76747    11.79893    10.35728
 Zero-point vibrational energy      76444.0 (Joules/Mol)
                                   18.27055 (Kcal/Mol)
 Warning -- explicit consideration of   2 degrees of freedom as
           vibrations may cause significant error
 Vibrational temperatures:    724.62   730.61  1322.87  1576.66  1739.98
          (Kelvin)           1865.10  2158.74  3920.83  4348.76

 Zero-point correction=                           0.029116 (Hartree/Particle)
 Thermal correction to Energy=                    0.032496
 Thermal correction to Enthalpy=                  0.033440
 Thermal correction to Gibbs Free Energy=         0.003785
 Sum of electronic and zero-point Energies=           -152.449125
 Sum of electronic and thermal Energies=              -152.445745
 Sum of electronic and thermal Enthalpies=            -152.444801
 Sum of electronic and thermal Free Energies=         -152.474456

                     E (Thermal)             CV                S
                      KCal/Mol        Cal/Mol-Kelvin    Cal/Mol-Kelvin
 Total                   20.392              9.618             62.415
 Electronic               0.000              0.000              2.755
 Translational            0.889              2.981             37.133
 Rotational               0.889              2.981             20.967
 Vibrational             18.614              3.657              1.560
 Vibration     1          0.859              1.242              0.649
 Vibration     2          0.863              1.233              0.639

 Optimization completed.
    -- Stationary point found.
 Normal termination of Gaussian 09 at Thu Mar  7 10:14:52 2019.
