 Gaussian 09, Revision E.01,
 Gaussian 09:  EM64L-G09RevE.01 30-Nov-2015

 ------------------------------------------------------
 #p b3lyp/6-311++G(3df,2p) freq IOp(2/17=3) IOp(2/18=3)
 ------------------------------------------------------

 ---------
 b3lyp opt
 ---------
 Symbolic Z-matrix:
 Charge = -1 Multiplicity = 4

                         Standard orientation:
 ---------------------------------------------------------------------
 Center     Atomic      Atomic             Coordinates (Angstroms)
 Number     Number       Type             X           Y           Z
 ---------------------------------------------------------------------
      1          6           0       -0.252760   -1.161070   -0.000000
      2          6           0        0.425287    0.093134    0.000000
      3          1           0        0.303920   -2.095385    0.000000
      4          1           0       -1.339082   -1.224807   -0.000000
      5          8           0        0.000000    1.215976    0.000000
 ---------------------------------------------------------------------

 SCF Done:  E(UB3LYP) =  -152.551945295     A.U. after   19 cycles

 The electronic state is 4-A".
 Alpha  occ. eigenvalues --  -19.04292 -10.12884 -10.09311  -0.96204  -0.63896
 Alpha  occ. eigenvalues --   -0.42726  -0.35346  -0.34970  -0.31432  -0.27007
 Alpha  occ. eigenvalues --   -0.15087  -0.07707   0.06960
 Alpha virt. eigenvalues --    0.10687   0.12692   0.13767   0.16619   0.17833
 Alpha virt. eigenvalues --    0.18762   0.20624   0.21874   0.24614   0.24707
 Alpha virt. eigenvalues --    0.26875   0.29923   0.32843   0.34245   0.35780

  Beta  occ. eigenvalues --  -19.02798 -10.11888 -10.07799  -0.93413  -0.59266
  Beta  occ. eigenvalues --   -0.39892  -0.33103  -0.31915  -0.27362  -0.22778
  Beta virt. eigenvalues --   -0.01503   0.05908   0.12247   0.13437   0.14306
  Beta virt. eigenvalues --    0.16364   0.17437   0.18759   0.20001   0.23039
  Beta virt. eigenvalues --    0.23055   0.25474   0.25779   0.28476   0.30658

 Mulliken charges and spin densities:
               1          2
     1  C    1.914473  -1.305125
     2  C    0.239057   0.829033
     3  H   -1.452113   1.613804
     4  H   -1.218854   1.419985
     5  O   -0.482563   0.442303
 Sum of Mulliken charges =  -1.00000   3.00000

 Dipole moment (field-independent basis, Debye):
    X=              2.3210    Y=              8.2856    Z=             -0.0000  Tot=              8.6045
 Quadrupole moment (field-independent basis, Debye-Ang):
   XX=            -45.9431   YY=            -63.4836   ZZ=            -32.5744
   XY=             -0.9008   XZ=             -0.0000   YZ=              0.0000

  Exact polarizability: 884.273-315.359 411.281  -0.000   0.000 204.721
 Approx polarizability: 926.111-374.240 419.540   0.000  -0.000 163.830

                      1                      2                      3
                     A"                     A'                     A"
 Frequencies --    403.2653               453.3614               813.6398
 Red. masses --      1.4071                 2.8847                 1.3835
 Frc consts  --      0.1348                 0.3493                 0.5396
 IR Inten    --    165.8754                16.4559               978.4400

                      4                      5                      6
                     A'                     A'                     A'
 Frequencies --    973.2072              1067.7751              1423.7677
 Red. masses --      1.7750                 3.8986                 1.1478
 Frc consts  --      0.9905                 2.6189                 1.3709
 IR Inten    --    408.9078               334.8830               620.2252

                      7                      8                      9
                     A'                     A'                     A'
 Frequencies --   1761.3475              3006.4041              3139.7186
 Red. masses --     12.4028                 1.0520                 1.1190
 Frc consts  --     22.6705                 5.6024                 6.4991
 IR Inten    --    111.9839                57.2617                98.8837

 - Thermochemistry -
 -------------------
 Temperature   298.150 Kelvin.  Pressure   1.00000 Atm.
 Atom     1 has atomic number  6 and mass  12.00000

 Molecular mass:    42.01056 amu.
 Principal axes and moments of inertia in atomic units:
                           1         2         3
     Eigenvalues --    15.08949 164.97389 180.06339
           X            0.11823   0.99299   0.00000
           Y            0.99299  -0.11823   0.00000
           Z           -0.00000  -0.00000   1.00000
 This molecule is an asymmetric top.
 Rotational symmetry number  1.
 Rotational temperatures (Kelvin)      5.74001     0.52502     0.48102
 Rotational constants (GHZ):         119.60250    10.93956    10.02281
 Zero-point vibrational energy      78011.4 (Joules/Mol)
                                   18.64517 (Kcal/Mol)
 Warning -- explicit consideration of   2 degrees of freedom as
           vibrations may cause significant error
 Vibrational temperatures:    580.21   652.29  1170.64  1400.23  1536.29
          (Kelvin)           2048.48  2534.18  4325.54  4517.35

 Zero-point correction=                           0.029713 (Hartree/Particle)
 Thermal correction to Energy=                    0.033265
 Thermal correction to Enthalpy=                  0.034209
 Thermal correction to Gibbs Free Energy=         0.004395
 Sum of electronic and zero-point Energies=           -152.522232
 Sum of electronic and thermal Energies=              -152.518681
 Sum of electronic and thermal Enthalpies=            -152.517736
 Sum of electronic and thermal Free Energies=         -152.547550

                     E (Thermal)             CV                S
                      KCal/Mol        Cal/Mol-Kelvin    Cal/Mol-Kelvin
 Total                   20.874             10.250             62.749
 Electronic               0.000              0.000              2.755
 Translational            0.889              2.981             37.133
 Rotational               0.889              2.981             20.733
 Vibrational             19.097              4.288              2.128
 Vibration     1          0.769              1.463              0.951
 Vibration     2          0.812              1.353              0.786

 Normal termination of Gaussian 09 at Thu Mar  7 10:20:40 2019.
