 Gaussian 09, Revision E.01,
 Gaussian 09:  EM64L-G09RevE.01 30-Nov-2015

 -------------------------------------------------
 #p b3lyp/6-311++G(3df,2p) opt freq symmetry=Loose
 -------------------------------------------------

 ---------
 b3lyp opt
 ---------
 Symbolic Z-matrix:
 Charge = -1 Multiplicity = 2

 SCF Done:  E(UB3LYP) =  -77.3319114177     A.U. after   19 cycles
 SCF Done:  E(UB3LYP) =  -77.3320127136     A.U. after   15 cycles
 Optimization completed.
    -- Stationary point found.
 Normal termination of Gaussian 09 at Sun Feb  3 22:17:30 2019.

 ----------------------------------------------------------------------
 #P Geom=AllCheck Guess=TCheck SCRF=Check GenChk UB3LYP/6-311++G(3df,2p
 ) Freq
 ----------------------------------------------------------------------

 Structure from the checkpoint file:  "/scratch/sergio/H2C2.q-1.m2-1.com-4935914/Gau-31161.chk"
 ---------
 b3lyp opt
 ---------
 Charge = -1 Multiplicity = 2

                         Standard orientation:
 ---------------------------------------------------------------------
 Center     Atomic      Atomic             Coordinates (Angstroms)
 Number     Number       Type             X           Y           Z
 ---------------------------------------------------------------------
      1          6           0        0.000000    0.000000    0.599770
      2          6           0       -0.000000    0.000000   -0.599770
      3          1           0        0.000000    0.000000    1.669641
      4          1           0       -0.000000    0.000000   -1.669641
 ---------------------------------------------------------------------

 SCF Done:  E(UB3LYP) =  -77.3320127136     A.U. after    3 cycles

 The electronic state is 2-SGU.
 Alpha  occ. eigenvalues --  -10.05417 -10.05179  -0.63287  -0.44191  -0.37281
 Alpha  occ. eigenvalues --   -0.17489  -0.17489   0.06391
 Alpha virt. eigenvalues --    0.07873   0.13303   0.13303   0.17732   0.17843
 Alpha virt. eigenvalues --    0.17843   0.19273   0.22368   0.23488   0.23488
 Alpha virt. eigenvalues --    0.25241   0.32879   0.36529   0.43086   0.43087

  Beta  occ. eigenvalues --  -10.05370 -10.05132  -0.63226  -0.44046  -0.37190
  Beta  occ. eigenvalues --   -0.17438  -0.17438
  Beta virt. eigenvalues --    0.10147   0.10802   0.13256   0.13256   0.17043
  Beta virt. eigenvalues --    0.17043   0.17894   0.20347   0.22771   0.23792
  Beta virt. eigenvalues --    0.23792   0.25198   0.34094   0.36943   0.42993

 Mulliken charges and spin densities:
               1          2
     1  C    2.061042  -2.363165
     2  C    2.061042  -2.363165
     3  H   -2.561042   2.863165
     4  H   -2.561042   2.863165
 Sum of Mulliken charges =  -1.00000   1.00000

 Dipole moment (field-independent basis, Debye):
    X=             -0.0000    Y=             -0.0000    Z=             -0.0000  Tot=              0.0000
 Quadrupole moment (field-independent basis, Debye-Ang):
   XX=            -30.6348   YY=            -30.6348   ZZ=            -78.8689
   XY=             -0.0000   XZ=             -0.0000   YZ=             -0.0000

  Exact polarizability: 180.835  -0.000 180.835  -0.000  -0.0002369.914
 Approx polarizability: 128.289   0.000 128.289   0.000   0.0005606.043

                      1                      2                      3
                     PIU                    PIU                    PIG
 Frequencies --    816.8470               816.8470              1210.0563
 Red. masses --      1.0848                 1.0848                 1.5775
 Frc consts  --      0.4265                 0.4265                 1.3609
 IR Inten    --   2803.7333              2803.7334                 0.0000

                      4                      5                      6
                     PIG                    SGG                    SGU
 Frequencies --   1210.0563              2031.2684              3297.2598
 Red. masses --      1.5775                 3.5619                 1.0848
 Frc consts  --      1.3609                 8.6590                 6.9488
 IR Inten    --      0.0000                 0.0000                19.5759

                      7
                     SGG
 Frequencies --   3394.6490
 Red. masses --      1.2581
 Frc consts  --      8.5422
 IR Inten    --      0.0000

 - Thermochemistry -
 -------------------
 Temperature   298.150 Kelvin.  Pressure   1.00000 Atm.
 Atom     1 has atomic number  6 and mass  12.00000

 Molecular mass:    26.01565 amu.
 Principal axes and moments of inertia in atomic units:
                           1         2         3
     Eigenvalues --     0.00000  50.89631  50.89631
           X            0.00000   0.54279   0.83987
           Y            0.00000   0.83987  -0.54279
           Z            1.00000  -0.00000  -0.00000
 This molecule is a prolate symmetric top.
 Rotational symmetry number  2.
 Rotational temperature (Kelvin)      1.70177
 Rotational constant (GHZ):          35.459179
 Zero-point vibrational energy      76423.3 (Joules/Mol)
                                   18.26562 (Kcal/Mol)
 Vibrational temperatures:   1175.26  1175.26  1741.00  1741.00  2922.54
          (Kelvin)           4744.02  4884.14

 Zero-point correction=                           0.029108 (Hartree/Particle)
 Thermal correction to Energy=                    0.031649
 Thermal correction to Enthalpy=                  0.032593
 Thermal correction to Gibbs Free Energy=         0.009584
 Sum of electronic and zero-point Energies=            -77.302905
 Sum of electronic and thermal Energies=               -77.300364
 Sum of electronic and thermal Enthalpies=             -77.299420
 Sum of electronic and thermal Free Energies=          -77.322429

                     E (Thermal)             CV                S
                      KCal/Mol        Cal/Mol-Kelvin    Cal/Mol-Kelvin
 Total                   19.860              6.622             48.426
 Electronic               0.000              0.000              1.377
 Translational            0.889              2.981             35.704
 Rotational               0.592              1.987             10.876
 Vibrational             18.379              1.654              0.469

 Optimization completed.
    -- Stationary point found.
 Normal termination of Gaussian 09 at Sun Feb  3 22:18:10 2019.
