 Gaussian 09, Revision E.01,
 Gaussian 09:  EM64L-G09RevE.01 30-Nov-2015

 ------------------------------------------------------
 #p b3lyp/6-311++G(3df,2p) freq IOp(2/17=3) IOp(2/18=3)
 ------------------------------------------------------

 ---------
 b3lyp opt
 ---------
 Symbolic Z-matrix:
 Charge = -1 Multiplicity = 4

                         Standard orientation:
 ---------------------------------------------------------------------
 Center     Atomic      Atomic             Coordinates (Angstroms)
 Number     Number       Type             X           Y           Z
 ---------------------------------------------------------------------
      1          6           0        1.080286   -0.495694   -0.000000
      2          6           0        0.000000    0.435627    0.000000
      3          1           0        2.111785   -0.150340   -0.000000
      4          1           0        0.909680   -1.570318   -0.000000
      5          8           0       -1.187898    0.260133    0.000000
 ---------------------------------------------------------------------

 SCF Done:  E(UB3LYP) =  -152.551946263     A.U. after   19 cycles

 The electronic state is 4-A".
 Alpha  occ. eigenvalues --  -19.04290 -10.12888 -10.09313  -0.96196  -0.63883
 Alpha  occ. eigenvalues --   -0.42717  -0.35333  -0.34971  -0.31423  -0.27008
 Alpha  occ. eigenvalues --   -0.15081  -0.07714   0.06959
 Alpha virt. eigenvalues --    0.10684   0.12685   0.13768   0.16616   0.17831
 Alpha virt. eigenvalues --    0.18758   0.20624   0.21874   0.24606   0.24705
 Alpha virt. eigenvalues --    0.26866   0.29926   0.32845   0.34243   0.35781

  Beta  occ. eigenvalues --  -19.02796 -10.11891 -10.07801  -0.93405  -0.59251
  Beta  occ. eigenvalues --   -0.39881  -0.33097  -0.31913  -0.27356  -0.22775
  Beta virt. eigenvalues --   -0.01496   0.05903   0.12245   0.13434   0.14307
  Beta virt. eigenvalues --    0.16359   0.17436   0.18757   0.19997   0.23037
  Beta virt. eigenvalues --    0.23052   0.25470   0.25780   0.28468   0.30661

 Mulliken charges and spin densities:
               1          2
     1  C    1.911786  -1.301527
     2  C    0.239618   0.827621
     3  H   -1.449245   1.610769
     4  H   -1.219775   1.420972
     5  O   -0.482384   0.442165
 Sum of Mulliken charges =  -1.00000   3.00000

 Dipole moment (field-independent basis, Debye):
    X=             -7.5860    Y=              4.0406    Z=              0.0000  Tot=              8.5950
 Quadrupole moment (field-independent basis, Debye-Ang):
   XX=            -62.2604   YY=            -47.1331   ZZ=            -32.5794
   XY=              4.4671   XZ=              0.0000   YZ=             -0.0000

  Exact polarizability: 565.015 385.923 730.872  -0.000   0.000 203.587
 Approx polarizability: 599.594 446.457 747.695   0.000   0.000 163.984

                      1                      2                      3
                     A"                     A'                     A"
 Frequencies --    404.8800               453.7924               814.4638
 Red. masses --      1.4094                 2.8867                 1.3809
 Frc consts  --      0.1361                 0.3502                 0.5397
 IR Inten    --    164.3358                16.3565              1005.3826

                      4                      5                      6
                     A'                     A'                     A'
 Frequencies --    973.2189              1066.7430              1423.8800
 Red. masses --      1.7854                 3.8536                 1.1472
 Frc consts  --      0.9963                 2.5837                 1.3703
 IR Inten    --    400.8472               339.7543               629.4306

                      7                      8                      9
                     A'                     A'                     A'
 Frequencies --   1760.6565              3005.4308              3139.4478
 Red. masses --     12.3888                 1.0520                 1.1189
 Frc consts  --     22.6272                 5.5988                 6.4978
 IR Inten    --    113.5169                56.6984                99.5084

 - Thermochemistry -
 -------------------
 Temperature   298.150 Kelvin.  Pressure   1.00000 Atm.
 Atom     1 has atomic number  6 and mass  12.00000

 Molecular mass:    42.01056 amu.
 Principal axes and moments of inertia in atomic units:
                           1         2         3
     Eigenvalues --    15.10808 165.00565 180.11374
           X            0.94467   0.32801   0.00000
           Y           -0.32801   0.94467  -0.00000
           Z           -0.00000   0.00000   1.00000
 This molecule is an asymmetric top.
 Rotational symmetry number  1.
 Rotational temperatures (Kelvin)      5.73294     0.52491     0.48088
 Rotational constants (GHZ):         119.45533    10.93745    10.02001
 Zero-point vibrational energy      78011.6 (Joules/Mol)
                                   18.64521 (Kcal/Mol)
 Warning -- explicit consideration of   2 degrees of freedom as
           vibrations may cause significant error
 Vibrational temperatures:    582.53   652.91  1171.83  1400.24  1534.80
          (Kelvin)           2048.64  2533.19  4324.14  4516.96

 Zero-point correction=                           0.029713 (Hartree/Particle)
 Thermal correction to Energy=                    0.033263
 Thermal correction to Enthalpy=                  0.034207
 Thermal correction to Gibbs Free Energy=         0.004396
 Sum of electronic and zero-point Energies=           -152.522233
 Sum of electronic and thermal Energies=              -152.518683
 Sum of electronic and thermal Enthalpies=            -152.517739
 Sum of electronic and thermal Free Energies=         -152.547551

                     E (Thermal)             CV                S
                      KCal/Mol        Cal/Mol-Kelvin    Cal/Mol-Kelvin
 Total                   20.873             10.245             62.743
 Electronic               0.000              0.000              2.755
 Translational            0.889              2.981             37.133
 Rotational               0.889              2.981             20.734
 Vibrational             19.095              4.284              2.121
 Vibration     1          0.770              1.460              0.945
 Vibration     2          0.812              1.353              0.784

 Optimization completed.
    -- Stationary point found.
 Normal termination of Gaussian 09 at Thu Mar  7 10:14:47 2019.
