 Gaussian 09, Revision E.01,
 Gaussian 09:  EM64L-G09RevE.01 30-Nov-2015

 ------------------------------------------------------
 #p b3lyp/6-311++G(3df,2p) freq IOp(2/17=3) IOp(2/18=3)
 ------------------------------------------------------

 ---------
 b3lyp opt
 ---------
 Symbolic Z-matrix:
 Charge = -1 Multiplicity = 2

                         Standard orientation:
 ---------------------------------------------------------------------
 Center     Atomic      Atomic             Coordinates (Angstroms)
 Number     Number       Type             X           Y           Z
 ---------------------------------------------------------------------
      1          6           0       -0.104970   -0.345577    0.000310
      2          8           0       -1.238719    0.125857   -0.000085
      3          6           0        1.185313    0.086030   -0.000486
      4          1           0        2.011025   -0.609105    0.000585
      5          1           0        1.416664    1.159524    0.001152
 ---------------------------------------------------------------------

 SCF Done:  E(UB3LYP) =  -152.655504703     A.U. after   17 cycles

 The electronic state is 2-A.
 Alpha  occ. eigenvalues --  -18.90620 -10.01023  -9.94014  -0.81846  -0.51295
 Alpha  occ. eigenvalues --   -0.30596  -0.23713  -0.23115  -0.17566  -0.15100
 Alpha  occ. eigenvalues --   -0.00370   0.04894
 Alpha virt. eigenvalues --    0.13249   0.14307   0.17997   0.20741   0.21560
 Alpha virt. eigenvalues --    0.22170   0.22647   0.26341   0.28565   0.28720
 Alpha virt. eigenvalues --    0.28865   0.32020   0.36075   0.39564   0.40453

  Beta  occ. eigenvalues --  -18.89841 -10.00160  -9.93866  -0.80266  -0.50108
  Beta  occ. eigenvalues --   -0.29246  -0.22431  -0.21535  -0.16700  -0.11632
  Beta  occ. eigenvalues --   -0.00058
  Beta virt. eigenvalues --    0.12367   0.14400   0.16335   0.19036   0.20879
  Beta virt. eigenvalues --    0.22109   0.22449   0.22725   0.26661   0.28664
  Beta virt. eigenvalues --    0.29102   0.29719   0.32355   0.36555   0.39678

 Mulliken charges and spin densities:
               1          2
     1  C   -0.093829   1.055599
     2  O   -0.633447   0.169082
     3  C   -0.135339  -0.575703
     4  H    0.048500   0.033432
     5  H   -0.185885   0.317589
 Sum of Mulliken charges =  -1.00000   1.00000

 Dipole moment (field-independent basis, Debye):
    X=              0.3570    Y=              0.1496    Z=              0.0033  Tot=              0.3871
 Quadrupole moment (field-independent basis, Debye-Ang):
   XX=            -30.0325   YY=            -25.1129   ZZ=            -24.8288
   XY=             -0.6754   XZ=              0.0063   YZ=              0.0019

  Exact polarizability:  80.950  21.060 106.737  -0.008   0.023  53.061
 Approx polarizability: 111.884  21.682 103.265  -0.023   0.012  60.723

                      1                      2                      3
                      A                      A                      A
 Frequencies --    456.2713               506.0245               628.5656
 Red. masses --      3.1020                 1.3302                 1.6593
 Frc consts  --      0.3805                 0.2007                 0.3863
 IR Inten    --     25.1301               104.5607                 0.5343

                      4                      5                      6
                      A                      A                      A
 Frequencies --   1002.2267              1111.3222              1421.9181
 Red. masses --      1.5170                 4.0421                 1.2553
 Frc consts  --      0.8977                 2.9413                 1.4954
 IR Inten    --     41.6957                63.6795                 4.7683

                      7                      8                      9
                      A                      A                      A
 Frequencies --   1715.3189              2942.7987              3181.2469
 Red. masses --     11.6620                 1.0661                 1.0927
 Frc consts  --     20.2167                 5.4397                 6.5157
 IR Inten    --    858.8029               338.8669                14.7724

 - Thermochemistry -
 -------------------
 Temperature   298.150 Kelvin.  Pressure   1.00000 Atm.
 Atom     1 has atomic number  6 and mass  12.00000

 Molecular mass:    42.01056 amu.
 Principal axes and moments of inertia in atomic units:
                           1         2         3
     Eigenvalues --    12.47120 169.13926 181.61043
           X            0.99995   0.01044   0.00006
           Y           -0.01044   0.99995   0.00029
           Z           -0.00006  -0.00029   1.00000
 This molecule is an asymmetric top.
 Rotational symmetry number  1.
 Rotational temperatures (Kelvin)      6.94510     0.51209     0.47692
 Rotational constants (GHZ):         144.71267    10.67015     9.93743
 Zero-point vibrational energy      77552.1 (Joules/Mol)
                                   18.53539 (Kcal/Mol)
 Warning -- explicit consideration of   2 degrees of freedom as
           vibrations may cause significant error
 Vibrational temperatures:    656.47   728.06   904.36  1441.98  1598.94
          (Kelvin)           2045.82  2467.96  4234.03  4577.10

 Zero-point correction=                           0.029538 (Hartree/Particle)
 Thermal correction to Energy=                    0.033063
 Thermal correction to Enthalpy=                  0.034007
 Thermal correction to Gibbs Free Energy=         0.004984
 Sum of electronic and zero-point Energies=           -152.625967
 Sum of electronic and thermal Energies=              -152.622442
 Sum of electronic and thermal Enthalpies=            -152.621498
 Sum of electronic and thermal Free Energies=         -152.650520

                     E (Thermal)             CV                S
                      KCal/Mol        Cal/Mol-Kelvin    Cal/Mol-Kelvin
 Total                   20.747             10.296             61.084
 Electronic               0.000              0.000              1.377
 Translational            0.889              2.981             37.133
 Rotational               0.889              2.981             20.577
 Vibrational             18.970              4.334              1.997
 Vibration     1          0.815              1.347              0.777
 Vibration     2          0.861              1.237              0.643

 Optimization completed.
    -- Stationary point found.
 Normal termination of Gaussian 09 at Thu Mar  7 10:01:48 2019.
