 Gaussian 09, Revision E.01,
 Gaussian 09:  EM64L-G09RevE.01 30-Nov-2015

 -------------------------------------------------
 #p b3lyp/6-311++G(3df,2p) opt freq symmetry=Loose
 -------------------------------------------------

 ---------
 b3lyp opt
 ---------
 Symbolic Z-matrix:
 Charge = -1 Multiplicity = 4

 SCF Done:  E(UB3LYP) =  -77.1835031188     A.U. after   17 cycles
 SCF Done:  E(UB3LYP) =  -77.1835500810     A.U. after   13 cycles
 SCF Done:  E(UB3LYP) =  -77.1835532491     A.U. after   13 cycles
 Optimization completed.
    -- Stationary point found.
 Normal termination of Gaussian 09 at Sun Feb  3 22:21:44 2019.

 ----------------------------------------------------------------------
 #P Geom=AllCheck Guess=TCheck SCRF=Check GenChk UB3LYP/6-311++G(3df,2p
 ) Freq
 ----------------------------------------------------------------------

 Structure from the checkpoint file:  "/scratch/sergio/H2C2.q-1.m4-4.com-4935923/Gau-32351.chk"
 ---------
 b3lyp opt
 ---------
 Charge = -1 Multiplicity = 4

                         Standard orientation:
 ---------------------------------------------------------------------
 Center     Atomic      Atomic             Coordinates (Angstroms)
 Number     Number       Type             X           Y           Z
 ---------------------------------------------------------------------
      1          6           0        0.000000   -0.000000    0.831778
      2          6           0       -0.000000    0.000000   -0.479975
      3          1           0        0.000000    0.930887   -1.055411
      4          1           0       -0.000000   -0.930887   -1.055411
 ---------------------------------------------------------------------

 SCF Done:  E(UB3LYP) =  -77.1835532491     A.U. after    1 cycles

 The electronic state is 4-B2.
 Alpha  occ. eigenvalues --  -10.10066 -10.05392  -0.64142  -0.40937  -0.31317
 Alpha  occ. eigenvalues --   -0.25166  -0.16428  -0.08277   0.07482
 Alpha virt. eigenvalues --    0.11039   0.11824   0.14111   0.17663   0.19185
 Alpha virt. eigenvalues --    0.19281   0.22797   0.23423   0.25628   0.25719
 Alpha virt. eigenvalues --    0.28126   0.34481   0.41870   0.45423   0.48852

  Beta  occ. eigenvalues --  -10.06805 -10.05270  -0.60515  -0.35979  -0.28928
  Beta  occ. eigenvalues --   -0.14560
  Beta virt. eigenvalues --   -0.04583   0.08641   0.12328   0.13846   0.13936
  Beta virt. eigenvalues --    0.15661   0.17897   0.20381   0.21899   0.24038
  Beta virt. eigenvalues --    0.24129   0.26426   0.26719   0.29298   0.36657

 Mulliken charges and spin densities:
               1          2
     1  C    0.062876   1.872592
     2  C    1.781566  -2.196869
     3  H   -1.422221   1.662139
     4  H   -1.422221   1.662139
 Sum of Mulliken charges =  -1.00000   3.00000

 Dipole moment (field-independent basis, Debye):
    X=              0.0000    Y=              0.0000    Z=              6.5870  Tot=              6.5870
 Quadrupole moment (field-independent basis, Debye-Ang):
   XX=            -29.1628   YY=            -44.1935   ZZ=            -40.0206
   XY=             -0.0000   XZ=             -0.0000   YZ=              0.0000

  Exact polarizability: 233.613   0.0001124.667   0.000   0.000 293.868
 Approx polarizability: 158.723   0.0001251.922  -0.000   0.000 255.533

                      1                      2                      3
                     B1                     B2                     A1
 Frequencies --    604.5282               951.6253              1366.8081
 Red. masses --      1.3478                 1.3335                 1.0647
 Frc consts  --      0.2902                 0.7115                 1.1719
 IR Inten    --   1085.5865               174.3300               996.3257

                      4                      5                      6
                     A1                     A1                     B2
 Frequencies --   1560.2218              2929.0818              3048.9918
 Red. masses --      9.3688                 1.0511                 1.1126
 Frc consts  --     13.4371                 5.3130                 6.0940
 IR Inten    --     18.2331                51.6046                 4.6838

 - Thermochemistry -
 -------------------
 Temperature   298.150 Kelvin.  Pressure   1.00000 Atm.
 Atom     1 has atomic number  6 and mass  12.00000

 Molecular mass:    26.01565 amu.
 Principal axes and moments of inertia in atomic units:
                           1         2         3
     Eigenvalues --     6.23745  46.93590  53.17335
           X            0.00000   0.00000   1.00000
           Y           -0.00000   1.00000   0.00000
           Z            1.00000   0.00000  -0.00000
 This molecule is an asymmetric top.
 Rotational symmetry number  2.
 Rotational temperatures (Kelvin)     13.88610     1.84536     1.62890
 Rotational constants (GHZ):         289.33963    38.45119    33.94071
 Zero-point vibrational energy      62572.2 (Joules/Mol)
                                   14.95512 (Kcal/Mol)
 Warning -- explicit consideration of   1 degrees of freedom as
           vibrations may cause significant error
 Vibrational temperatures:    869.78  1369.17  1966.53  2244.81  4214.29
          (Kelvin)           4386.81

 Zero-point correction=                           0.023832 (Hartree/Particle)
 Thermal correction to Energy=                    0.026879
 Thermal correction to Enthalpy=                  0.027823
 Thermal correction to Gibbs Free Energy=         0.001662
 Sum of electronic and zero-point Energies=            -77.159721
 Sum of electronic and thermal Energies=               -77.156674
 Sum of electronic and thermal Enthalpies=             -77.155730
 Sum of electronic and thermal Free Energies=          -77.181891

                     E (Thermal)             CV                S
                      KCal/Mol        Cal/Mol-Kelvin    Cal/Mol-Kelvin
 Total                   16.867              7.597             55.061
 Electronic               0.000              0.000              2.755
 Translational            0.889              2.981             35.704
 Rotational               0.889              2.981             16.017
 Vibrational             15.090              1.635              0.585
 Vibration     1          0.963              1.022              0.442

 Optimization completed.
    -- Stationary point found.
 Normal termination of Gaussian 09 at Sun Feb  3 22:22:31 2019.
