 Gaussian 09, Revision E.01,
 Gaussian 09:  EM64L-G09RevE.01 30-Nov-2015

 ------------------------------------------------------
 #p b3lyp/6-311++G(3df,2p) freq IOp(2/17=3) IOp(2/18=3)
 ------------------------------------------------------

 ---------
 b3lyp opt
 ---------
 Symbolic Z-matrix:
 Charge = -1 Multiplicity = 4

                         Standard orientation:
 ---------------------------------------------------------------------
 Center     Atomic      Atomic             Coordinates (Angstroms)
 Number     Number       Type             X           Y           Z
 ---------------------------------------------------------------------
      1          6           0        0.253109   -1.160831    0.000000
      2          6           0       -0.425757    0.093040    0.000000
      3          1           0        1.339406   -1.223698    0.000000
      4          1           0       -0.303517   -2.095179    0.000000
      5          8           0        0.000000    1.215703   -0.000000
 ---------------------------------------------------------------------

 SCF Done:  E(UB3LYP) =  -152.551945531     A.U. after   19 cycles

 The electronic state is 4-A".
 Alpha  occ. eigenvalues --  -19.04292 -10.12884 -10.09309  -0.96206  -0.63893
 Alpha  occ. eigenvalues --   -0.42723  -0.35342  -0.34974  -0.31433  -0.27006
 Alpha  occ. eigenvalues --   -0.15084  -0.07718   0.06961
 Alpha virt. eigenvalues --    0.10686   0.12690   0.13768   0.16619   0.17833
 Alpha virt. eigenvalues --    0.18761   0.20625   0.21874   0.24614   0.24707
 Alpha virt. eigenvalues --    0.26875   0.29927   0.32839   0.34242   0.35782

  Beta  occ. eigenvalues --  -19.02798 -10.11888 -10.07796  -0.93414  -0.59262
  Beta  occ. eigenvalues --   -0.39889  -0.33101  -0.31917  -0.27362  -0.22775
  Beta virt. eigenvalues --   -0.01500   0.05900   0.12247   0.13436   0.14307
  Beta virt. eigenvalues --    0.16363   0.17436   0.18759   0.20001   0.23039
  Beta virt. eigenvalues --    0.23055   0.25474   0.25779   0.28476   0.30660

 Mulliken charges and spin densities:
               1          2
     1  C    1.914563  -1.305046
     2  C    0.238465   0.829224
     3  H   -1.218998   1.420145
     4  H   -1.451608   1.613223
     5  O   -0.482422   0.442453
 Sum of Mulliken charges =  -1.00000   3.00000

 Dipole moment (field-independent basis, Debye):
    X=             -2.3245    Y=              8.2835    Z=             -0.0000  Tot=              8.6035
 Quadrupole moment (field-independent basis, Debye-Ang):
   XX=            -45.9469   YY=            -63.4728   ZZ=            -32.5764
   XY=              0.9015   XZ=              0.0000   YZ=              0.0000

  Exact polarizability: 884.423 315.751 411.589  -0.000  -0.000 204.765
 Approx polarizability: 926.437 374.772 419.931  -0.000  -0.000 163.858

                      1                      2                      3
                     A"                     A'                     A"
 Frequencies --    403.1341               453.4913               813.2800
 Red. masses --      1.4066                 2.8845                 1.3830
 Frc consts  --      0.1347                 0.3495                 0.5390
 IR Inten    --    165.1779                16.4065               979.2668

                      4                      5                      6
                     A'                     A'                     A'
 Frequencies --    973.3053              1067.7473              1423.5724
 Red. masses --      1.7755                 3.8963                 1.1478
 Frc consts  --      0.9910                 2.6172                 1.3705
 IR Inten    --    409.9425               335.5989               620.2643

                      7                      8                      9
                     A'                     A'                     A'
 Frequencies --   1761.2235              3006.6699              3140.2875
 Red. masses --     12.4006                 1.0520                 1.1190
 Frc consts  --     22.6633                 5.6034                 6.5015
 IR Inten    --    111.9620                56.7959                98.5783

 - Thermochemistry -
 -------------------
 Temperature   298.150 Kelvin.  Pressure   1.00000 Atm.
 Atom     1 has atomic number  6 and mass  12.00000

 Molecular mass:    42.01056 amu.
 Principal axes and moments of inertia in atomic units:
                           1         2         3
     Eigenvalues --    15.11158 164.90416 180.01574
           X           -0.11841   0.99297   0.00000
           Y            0.99297   0.11841   0.00000
           Z           -0.00000  -0.00000   1.00000
 This molecule is an asymmetric top.
 Rotational symmetry number  1.
 Rotational temperatures (Kelvin)      5.73162     0.52524     0.48115
 Rotational constants (GHZ):         119.42769    10.94418    10.02546
 Zero-point vibrational energy      78012.7 (Joules/Mol)
                                   18.64549 (Kcal/Mol)
 Warning -- explicit consideration of   2 degrees of freedom as
           vibrations may cause significant error
 Vibrational temperatures:    580.02   652.47  1170.13  1400.37  1536.25
          (Kelvin)           2048.20  2534.00  4325.92  4518.17

 Zero-point correction=                           0.029713 (Hartree/Particle)
 Thermal correction to Energy=                    0.033265
 Thermal correction to Enthalpy=                  0.034210
 Thermal correction to Gibbs Free Energy=         0.004395
 Sum of electronic and zero-point Energies=           -152.522232
 Sum of electronic and thermal Energies=              -152.518680
 Sum of electronic and thermal Enthalpies=            -152.517736
 Sum of electronic and thermal Free Energies=         -152.547550

                     E (Thermal)             CV                S
                      KCal/Mol        Cal/Mol-Kelvin    Cal/Mol-Kelvin
 Total                   20.874             10.251             62.750
 Electronic               0.000              0.000              2.755
 Translational            0.889              2.981             37.133
 Rotational               0.889              2.981             20.734
 Vibrational             19.097              4.289              2.129
 Vibration     1          0.769              1.463              0.951
 Vibration     2          0.812              1.353              0.785

 Optimization completed.
    -- Stationary point found.
 Normal termination of Gaussian 09 at Thu Mar  7 10:14:42 2019.
