 Gaussian 09, Revision E.01,
 Gaussian 09:  EM64L-G09RevE.01 30-Nov-2015

 -------------------------------------------------
 #p b3lyp/6-311++G(3df,2p) opt freq symmetry=Loose
 -------------------------------------------------

 ---------
 b3lyp opt
 ---------
 Symbolic Z-matrix:
 Charge = -1 Multiplicity = 2

 SCF Done:  E(UB3LYP) =  -77.3150605574     A.U. after   17 cycles
 SCF Done:  E(UB3LYP) =  -77.3165851141     A.U. after   12 cycles
 SCF Done:  E(UB3LYP) =  -77.3166681162     A.U. after   11 cycles
 SCF Done:  E(UB3LYP) =  -77.3166750213     A.U. after    9 cycles
 SCF Done:  E(UB3LYP) =  -77.3166756931     A.U. after    9 cycles
 Optimization completed.
    -- Stationary point found.
 Normal termination of Gaussian 09 at Sun Feb  3 22:18:01 2019.

 ----------------------------------------------------------------------
 #P Geom=AllCheck Guess=TCheck SCRF=Check GenChk UB3LYP/6-311++G(3df,2p
 ) Freq
 ----------------------------------------------------------------------

 Structure from the checkpoint file:  "/scratch/sergio/H2C2.q-1.m2-4.com-4935917/Gau-31162.chk"
 ---------
 b3lyp opt
 ---------
 Charge = -1 Multiplicity = 2

                         Standard orientation:
 ---------------------------------------------------------------------
 Center     Atomic      Atomic             Coordinates (Angstroms)
 Number     Number       Type             X           Y           Z
 ---------------------------------------------------------------------
      1          6           0        0.000000   -0.000000    0.849719
      2          6           0       -0.000000    0.000000   -0.482703
      3          1           0       -0.000000    0.919029   -1.101047
      4          1           0        0.000000   -0.919029   -1.101047
 ---------------------------------------------------------------------

 SCF Done:  E(UB3LYP) =  -77.3166756931     A.U. after    1 cycles

 The electronic state is 2-B2.
 Alpha  occ. eigenvalues --   -9.93153  -9.92445  -0.50566  -0.29537  -0.20732
 Alpha  occ. eigenvalues --   -0.04045  -0.03527   0.06063
 Alpha virt. eigenvalues --    0.13196   0.14772   0.19872   0.20358   0.22550
 Alpha virt. eigenvalues --    0.23694   0.24842   0.27235   0.29791   0.29846
 Alpha virt. eigenvalues --    0.30546   0.32695   0.38900   0.49399   0.51722

  Beta  occ. eigenvalues --   -9.93331  -9.91210  -0.49143  -0.27427  -0.19277
  Beta  occ. eigenvalues --   -0.03164  -0.01856
  Beta virt. eigenvalues --    0.13246   0.14863   0.17852   0.19978   0.20700
  Beta virt. eigenvalues --    0.22425   0.23592   0.27221   0.27334   0.29885
  Beta virt. eigenvalues --    0.30099   0.31179   0.33102   0.40218   0.49921

 Mulliken charges and spin densities:
               1          2
     1  C   -0.809763   1.027374
     2  C   -0.174332  -0.198052
     3  H   -0.007953   0.085339
     4  H   -0.007953   0.085339
 Sum of Mulliken charges =  -1.00000   1.00000

 Dipole moment (field-independent basis, Debye):
    X=             -0.0000    Y=              0.0000    Z=             -3.5084  Tot=              3.5084
 Quadrupole moment (field-independent basis, Debye-Ang):
   XX=            -19.3954   YY=            -18.7076   ZZ=            -25.0968
   XY=              0.0000   XZ=             -0.0000   YZ=              0.0000

  Exact polarizability:  39.570   0.000  55.202  -0.000  -0.000  86.064
 Approx polarizability:  49.213  -0.000  59.505  -0.000  -0.000  97.603

                      1                      2                      3
                     B1                     B2                     A1
 Frequencies --    783.1322               878.3124              1347.9273
 Red. masses --      1.3618                 1.3464                 1.2740
 Frc consts  --      0.4921                 0.6120                 1.3638
 IR Inten    --     66.8591                11.6120                 2.6883

                      4                      5                      6
                     A1                     B2                     A1
 Frequencies --   1510.0503              2740.9925              2826.1615
 Red. masses --      3.9322                 1.1060                 1.0437
 Frc consts  --      5.2828                 4.8956                 4.9115
 IR Inten    --     14.1721               619.6518               490.4897

 - Thermochemistry -
 -------------------
 Temperature   298.150 Kelvin.  Pressure   1.00000 Atm.
 Atom     1 has atomic number  6 and mass  12.00000

 Molecular mass:    26.01565 amu.
 Principal axes and moments of inertia in atomic units:
                           1         2         3
     Eigenvalues --     6.07955  48.99637  55.07591
           X            0.00000  -0.00000   1.00000
           Y           -0.00000   1.00000   0.00000
           Z            1.00000   0.00000  -0.00000
 This molecule is an asymmetric top.
 Rotational symmetry number  2.
 Rotational temperatures (Kelvin)     14.24675     1.76776     1.57263
 Rotational constants (GHZ):         296.85453    36.83418    32.76825
 Zero-point vibrational energy      60331.1 (Joules/Mol)
                                   14.41948 (Kcal/Mol)
 Vibrational temperatures:   1126.75  1263.69  1939.36  2172.62  3943.67
          (Kelvin)           4066.21

 Zero-point correction=                           0.022979 (Hartree/Particle)
 Thermal correction to Energy=                    0.025967
 Thermal correction to Enthalpy=                  0.026912
 Thermal correction to Gibbs Free Energy=         0.001464
 Sum of electronic and zero-point Energies=            -77.293697
 Sum of electronic and thermal Energies=               -77.290708
 Sum of electronic and thermal Enthalpies=             -77.289764
 Sum of electronic and thermal Free Energies=          -77.315211

                     E (Thermal)             CV                S
                      KCal/Mol        Cal/Mol-Kelvin    Cal/Mol-Kelvin
 Total                   16.295              7.370             53.558
 Electronic               0.000              0.000              1.377
 Translational            0.889              2.981             35.704
 Rotational               0.889              2.981             16.069
 Vibrational             14.517              1.409              0.407

 Optimization completed.
    -- Stationary point found.
 Normal termination of Gaussian 09 at Sun Feb  3 22:18:48 2019.
