 Gaussian 09, Revision E.01,
 Gaussian 09:  EM64L-G09RevE.01 30-Nov-2015

 ------------------------------------------------------
 #p b3lyp/6-311++G(3df,2p) freq IOp(2/17=3) IOp(2/18=3)
 ------------------------------------------------------

 ---------
 b3lyp opt
 ---------
 Symbolic Z-matrix:
 Charge = -1 Multiplicity = 2

                         Standard orientation:
 ---------------------------------------------------------------------
 Center     Atomic      Atomic             Coordinates (Angstroms)
 Number     Number       Type             X           Y           Z
 ---------------------------------------------------------------------
      1          6           0        0.426231    1.109195    0.000000
      2          6           0       -0.361323    0.000007   -0.000000
      3          1           0        0.000000    2.101028    0.000000
      4          1           0        1.521050    1.018486    0.000000
      5          8           0       -0.238813   -1.221841   -0.000000
 ---------------------------------------------------------------------

 SCF Done:  E(UB3LYP) =  -152.655505389     A.U. after   18 cycles

 The electronic state is 2-A'.
 Alpha  occ. eigenvalues --  -18.90615 -10.01018  -9.94017  -0.81836  -0.51297
 Alpha  occ. eigenvalues --   -0.30585  -0.23715  -0.23106  -0.17561  -0.15093
 Alpha  occ. eigenvalues --   -0.00370   0.04889
 Alpha virt. eigenvalues --    0.13251   0.14306   0.17998   0.20740   0.21560
 Alpha virt. eigenvalues --    0.22172   0.22646   0.26345   0.28560   0.28721
 Alpha virt. eigenvalues --    0.28869   0.32012   0.36076   0.39564   0.40450

  Beta  occ. eigenvalues --  -18.89836 -10.00154  -9.93868  -0.80255  -0.50109
  Beta  occ. eigenvalues --   -0.29235  -0.22430  -0.21529  -0.16694  -0.11623
  Beta  occ. eigenvalues --   -0.00058
  Beta virt. eigenvalues --    0.12367   0.14399   0.16335   0.19035   0.20878
  Beta virt. eigenvalues --    0.22107   0.22449   0.22724   0.26665   0.28658
  Beta virt. eigenvalues --    0.29102   0.29722   0.32349   0.36556   0.39678

 Mulliken charges and spin densities:
               1          2
     1  C   -0.135227  -0.575649
     2  C   -0.093793   1.055528
     3  H    0.048437   0.033478
     4  H   -0.185755   0.317311
     5  O   -0.633662   0.169331
 Sum of Mulliken charges =  -1.00000   1.00000

 Dipole moment (field-independent basis, Debye):
    X=              0.2465    Y=              0.2998    Z=              0.0000  Tot=              0.3881
 Quadrupole moment (field-independent basis, Debye-Ang):
   XX=            -25.8993   YY=            -29.2430   ZZ=            -24.8267
   XY=             -1.9280   XZ=             -0.0000   YZ=             -0.0000

  Exact polarizability: 116.179  10.279  71.372  -0.000   0.000  52.982
 Approx polarizability: 115.969  20.376  99.064   0.000  -0.000  60.698

                      1                      2                      3
                     A'                     A"                     A"
 Frequencies --    457.3406               509.5250               630.0381
 Red. masses --      3.1126                 1.3256                 1.6663
 Frc consts  --      0.3836                 0.2028                 0.3897
 IR Inten    --     25.0429               104.9863                 0.4673

                      4                      5                      6
                     A'                     A'                     A'
 Frequencies --   1003.2934              1111.9474              1422.4765
 Red. masses --      1.5145                 4.0367                 1.2558
 Frc consts  --      0.8982                 2.9407                 1.4972
 IR Inten    --     41.5459                63.5826                 4.7649

                      7                      8                      9
                     A'                     A'                     A'
 Frequencies --   1715.3127              2939.0622              3179.7295
 Red. masses --     11.6609                 1.0662                 1.0927
 Frc consts  --     20.2147                 5.4261                 6.5090
 IR Inten    --    857.1845               338.8894                14.5690

 - Thermochemistry -
 -------------------
 Temperature   298.150 Kelvin.  Pressure   1.00000 Atm.
 Atom     1 has atomic number  6 and mass  12.00000

 Molecular mass:    42.01056 amu.
 Principal axes and moments of inertia in atomic units:
                           1         2         3
     Eigenvalues --    12.48605 169.08902 181.57507
           X            0.28008   0.95998  -0.00000
           Y            0.95998  -0.28008  -0.00000
           Z            0.00000   0.00000   1.00000
 This molecule is an asymmetric top.
 Rotational symmetry number  1.
 Rotational temperatures (Kelvin)      6.93685     0.51224     0.47701
 Rotational constants (GHZ):         144.54059    10.67332     9.93937
 Zero-point vibrational energy      77570.2 (Joules/Mol)
                                   18.53972 (Kcal/Mol)
 Warning -- explicit consideration of   2 degrees of freedom as
           vibrations may cause significant error
 Vibrational temperatures:    658.01   733.09   906.48  1443.51  1599.84
          (Kelvin)           2046.62  2467.95  4228.65  4574.92

 Zero-point correction=                           0.029545 (Hartree/Particle)
 Thermal correction to Energy=                    0.033065
 Thermal correction to Enthalpy=                  0.034010
 Thermal correction to Gibbs Free Energy=         0.004993
 Sum of electronic and zero-point Energies=           -152.625960
 Sum of electronic and thermal Energies=              -152.622440
 Sum of electronic and thermal Enthalpies=            -152.621496
 Sum of electronic and thermal Free Energies=         -152.650512

                     E (Thermal)             CV                S
                      KCal/Mol        Cal/Mol-Kelvin    Cal/Mol-Kelvin
 Total                   20.749             10.281             61.070
 Electronic               0.000              0.000              1.377
 Translational            0.889              2.981             37.133
 Rotational               0.889              2.981             20.577
 Vibrational             18.971              4.319              1.982
 Vibration     1          0.815              1.345              0.774
 Vibration     2          0.865              1.229              0.635

 Optimization completed.
    -- Stationary point found.
 Normal termination of Gaussian 09 at Thu Mar  7 10:00:24 2019.
