 Gaussian 09, Revision E.01,
 Gaussian 09:  EM64L-G09RevE.01 30-Nov-2015

 -------------------------------------------------
 #p b3lyp/6-311++G(3df,2p) opt freq symmetry=Loose
 -------------------------------------------------

 ---------
 b3lyp opt
 ---------
 Symbolic Z-matrix:
 Charge = -1 Multiplicity = 4

 SCF Done:  E(UB3LYP) =  -77.1921313520     A.U. after   15 cycles
 SCF Done:  E(UB3LYP) =  -77.1921557877     A.U. after   10 cycles
 SCF Done:  E(UB3LYP) =  -77.1921565699     A.U. after   10 cycles
 Optimization completed.
    -- Stationary point found.
 Normal termination of Gaussian 09 at Sun Feb  3 22:21:38 2019.

 ----------------------------------------------------------------------
 #P Geom=AllCheck Guess=TCheck SCRF=Check GenChk UB3LYP/6-311++G(3df,2p
 ) Freq
 ----------------------------------------------------------------------

 Structure from the checkpoint file:  "/scratch/sergio/H2C2.q-1.m4-5.com-4935924/Gau-32371.chk"
 ---------
 b3lyp opt
 ---------
 Charge = -1 Multiplicity = 4

                         Standard orientation:
 ---------------------------------------------------------------------
 Center     Atomic      Atomic             Coordinates (Angstroms)
 Number     Number       Type             X           Y           Z
 ---------------------------------------------------------------------
      1          6           0        0.000000   -0.662885   -0.121079
      2          6           0       -0.000000    0.662885   -0.121079
      3          1           0        0.000000   -1.355654    0.726474
      4          1           0       -0.000000    1.355654    0.726474
 ---------------------------------------------------------------------

 SCF Done:  E(UB3LYP) =  -77.1921565699     A.U. after    1 cycles

 The electronic state is 4-B2.
 Alpha  occ. eigenvalues --  -10.07841 -10.07761  -0.64179  -0.42613  -0.33738
 Alpha  occ. eigenvalues --   -0.20991  -0.16282  -0.07825   0.07400
 Alpha virt. eigenvalues --    0.10455   0.11415   0.15815   0.17573   0.18663
 Alpha virt. eigenvalues --    0.19352   0.22530   0.23718   0.23931   0.25524
 Alpha virt. eigenvalues --    0.27259   0.35205   0.41747   0.44870   0.48409

  Beta  occ. eigenvalues --  -10.06245 -10.06169  -0.59631  -0.38437  -0.31207
  Beta  occ. eigenvalues --   -0.14380
  Beta virt. eigenvalues --   -0.03014   0.08975   0.12249   0.12916   0.13267
  Beta virt. eigenvalues --    0.17797   0.18058   0.20075   0.21319   0.23661
  Beta virt. eigenvalues --    0.24141   0.24809   0.26619   0.29398   0.37209

 Mulliken charges and spin densities:
               1          2
     1  C    0.851692  -0.109104
     2  C    0.851692  -0.109104
     3  H   -1.351692   1.609104
     4  H   -1.351692   1.609104
 Sum of Mulliken charges =  -1.00000   3.00000

 Dipole moment (field-independent basis, Debye):
    X=              0.0000    Y=              0.0000    Z=             -6.6552  Tot=              6.6552
 Quadrupole moment (field-independent basis, Debye-Ang):
   XX=            -29.2872   YY=            -42.2763   ZZ=            -42.8276
   XY=              0.0000   XZ=             -0.0000   YZ=             -0.0000

  Exact polarizability: 159.552   0.0001520.785  -0.000   0.000 227.014
 Approx polarizability: 138.319  -0.0001474.024   0.000  -0.000 202.949

                      1                      2                      3
                     A2                     A1                     B2
 Frequencies --    786.6450               802.7029              1068.9212
 Red. masses --      1.3228                 1.0407                 1.4314
 Frc consts  --      0.4823                 0.3951                 0.9636
 IR Inten    --      0.0000               276.7157              2714.1736

                      4                      5                      6
                     A1                     A1                     B2
 Frequencies --   1616.3456              2981.9561              3004.2407
 Red. masses --      7.4550                 1.1082                 1.0781
 Frc consts  --     11.4753                 5.8061                 5.7331
 IR Inten    --      2.5564               289.3686                 2.4424

 - Thermochemistry -
 -------------------
 Temperature   298.150 Kelvin.  Pressure   1.00000 Atm.
 Atom     1 has atomic number  6 and mass  12.00000

 Molecular mass:    26.01565 amu.
 Principal axes and moments of inertia in atomic units:
                           1         2         3
     Eigenvalues --     4.77006  50.88890  55.65895
           X           -0.00000   0.00000   1.00000
           Y            1.00000   0.00000   0.00000
           Z           -0.00000   1.00000  -0.00000
 This molecule is an asymmetric top.
 Rotational symmetry number  2.
 Rotational temperatures (Kelvin)     18.15782     1.70202     1.55615
 Rotational constants (GHZ):         378.34809    35.46434    32.42499
 Zero-point vibrational energy      61373.3 (Joules/Mol)
                                   14.66857 (Kcal/Mol)
 Vibrational temperatures:   1131.81  1154.91  1537.94  2325.56  4290.36
          (Kelvin)           4322.43

 Zero-point correction=                           0.023376 (Hartree/Particle)
 Thermal correction to Energy=                    0.026400
 Thermal correction to Enthalpy=                  0.027344
 Thermal correction to Gibbs Free Energy=         0.001289
 Sum of electronic and zero-point Energies=            -77.168781
 Sum of electronic and thermal Energies=               -77.165757
 Sum of electronic and thermal Enthalpies=             -77.164813
 Sum of electronic and thermal Free Energies=          -77.190868

                     E (Thermal)             CV                S
                      KCal/Mol        Cal/Mol-Kelvin    Cal/Mol-Kelvin
 Total                   16.566              7.639             54.837
 Electronic               0.000              0.000              2.755
 Translational            0.889              2.981             35.704
 Rotational               0.889              2.981             15.876
 Vibrational             14.789              1.677              0.502

 Optimization completed.
    -- Stationary point found.
 Normal termination of Gaussian 09 at Sun Feb  3 22:22:22 2019.
