 Gaussian 09, Revision E.01,
 Gaussian 09:  EM64L-G09RevE.01 30-Nov-2015

 -------------------------------------------------
 #p b3lyp/6-311++G(3df,2p) opt freq symmetry=Loose
 -------------------------------------------------

 ---------
 b3lyp opt
 ---------
 Symbolic Z-matrix:
 Charge = -1 Multiplicity = 2

 SCF Done:  E(UB3LYP) =  -77.3134697390     A.U. after   13 cycles
 SCF Done:  E(UB3LYP) =  -77.3180142062     A.U. after   11 cycles
 SCF Done:  E(UB3LYP) =  -77.3183945112     A.U. after   11 cycles
 SCF Done:  E(UB3LYP) =  -77.3184516146     A.U. after   10 cycles
 SCF Done:  E(UB3LYP) =  -77.3184537288     A.U. after   10 cycles
 Optimization completed.
    -- Stationary point found.
 Normal termination of Gaussian 09 at Sun Feb  3 22:17:53 2019.

 ----------------------------------------------------------------------
 #P Geom=AllCheck Guess=TCheck SCRF=Check GenChk UB3LYP/6-311++G(3df,2p
 ) Freq
 ----------------------------------------------------------------------

 Structure from the checkpoint file:  "/scratch/sergio/H2C2.q-1.m2-3.com-4935916/Gau-31159.chk"
 ---------
 b3lyp opt
 ---------
 Charge = -1 Multiplicity = 2

                         Standard orientation:
 ---------------------------------------------------------------------
 Center     Atomic      Atomic             Coordinates (Angstroms)
 Number     Number       Type             X           Y           Z
 ---------------------------------------------------------------------
      1          6           0        0.000000   -0.647360   -0.000000
      2          6           0       -0.000000    0.647360   -0.000000
      3          1           0       -0.882737   -1.293682   -0.000000
      4          1           0        0.882737    1.293682   -0.000000
 ---------------------------------------------------------------------

 SCF Done:  E(UB3LYP) =  -77.3184537288     A.U. after    1 cycles

 The electronic state is 2-AG.
 Alpha  occ. eigenvalues --   -9.93092  -9.92989  -0.50286  -0.31587  -0.18768
 Alpha  occ. eigenvalues --   -0.07841  -0.04029   0.07846
 Alpha virt. eigenvalues --    0.14146   0.14692   0.19773   0.20259   0.22216
 Alpha virt. eigenvalues --    0.23627   0.24443   0.28309   0.28763   0.29575
 Alpha virt. eigenvalues --    0.30428   0.34314   0.36961   0.50610   0.55570

  Beta  occ. eigenvalues --   -9.92583  -9.92481  -0.49040  -0.30013  -0.17678
  Beta  occ. eigenvalues --   -0.03453  -0.03412
  Beta virt. eigenvalues --    0.13906   0.14638   0.16698   0.20341   0.20661
  Beta virt. eigenvalues --    0.22236   0.23572   0.25758   0.28906   0.29249
  Beta virt. eigenvalues --    0.29890   0.31058   0.34903   0.37627   0.51036

 Mulliken charges and spin densities:
               1          2
     1  C   -0.530517   0.411143
     2  C   -0.530517   0.411143
     3  H    0.030517   0.088857
     4  H    0.030517   0.088857
 Sum of Mulliken charges =  -1.00000   1.00000

 Dipole moment (field-independent basis, Debye):
    X=              0.0000    Y=              0.0000    Z=              0.0000  Tot=              0.0000
 Quadrupole moment (field-independent basis, Debye-Ang):
   XX=            -19.9936   YY=            -23.1889   ZZ=            -19.6483
   XY=              4.9724   XZ=             -0.0000   YZ=              0.0000

  Exact polarizability:  63.716 -33.247 112.817   0.000   0.000  46.914
 Approx polarizability:  64.695 -20.940 123.932   0.000   0.000  52.812

                      1                      2                      3
                     BU                     AU                     AG
 Frequencies --    773.5452               862.4156               919.9281
 Red. masses --      1.0848                 1.0848                 1.4504
 Frc consts  --      0.3825                 0.4754                 0.7232
 IR Inten    --    229.3763                71.4072                 0.0000

                      4                      5                      6
                     AG                     BU                     AG
 Frequencies --   1606.4436              2901.8159              2946.1560
 Red. masses --      5.5442                 1.0848                 1.1130
 Frc consts  --      8.4298                 5.3820                 5.6921
 IR Inten    --      0.0000               209.5496                 0.0000

 - Thermochemistry -
 -------------------
 Temperature   298.150 Kelvin.  Pressure   1.00000 Atm.
 Atom     1 has atomic number  6 and mass  12.00000

 Molecular mass:    26.01565 amu.
 Principal axes and moments of inertia in atomic units:
                           1         2         3
     Eigenvalues --     4.06953  49.50312  53.57266
           X            0.18407   0.98291   0.00000
           Y            0.98291  -0.18407   0.00000
           Z            0.00000   0.00000   1.00000
 This molecule is an asymmetric top.
 Rotational symmetry number  2.
 Rotational temperatures (Kelvin)     21.28349     1.74966     1.61675
 Rotational constants (GHZ):         443.47642    36.45712    33.68773
 Zero-point vibrational energy      59874.9 (Joules/Mol)
                                   14.31045 (Kcal/Mol)
 Vibrational temperatures:   1112.96  1240.82  1323.57  2311.31  4175.06
          (Kelvin)           4238.86

 Zero-point correction=                           0.022805 (Hartree/Particle)
 Thermal correction to Energy=                    0.025840
 Thermal correction to Enthalpy=                  0.026784
 Thermal correction to Gibbs Free Energy=         0.001477
 Sum of electronic and zero-point Energies=            -77.295649
 Sum of electronic and thermal Energies=               -77.292614
 Sum of electronic and thermal Enthalpies=             -77.291670
 Sum of electronic and thermal Free Energies=          -77.316977

                     E (Thermal)             CV                S
                      KCal/Mol        Cal/Mol-Kelvin    Cal/Mol-Kelvin
 Total                   16.215              7.736             53.263
 Electronic               0.000              0.000              1.377
 Translational            0.889              2.981             35.704
 Rotational               0.889              2.981             15.653
 Vibrational             14.437              1.774              0.529

 Optimization completed.
    -- Stationary point found.
 Normal termination of Gaussian 09 at Sun Feb  3 22:18:37 2019.
