 Gaussian 09, Revision E.01,
 Gaussian 09:  EM64L-G09RevE.01 30-Nov-2015

 ------------------------------------------------------
 #p b3lyp/6-311++G(3df,2p) freq IOp(2/17=3) IOp(2/18=3)
 ------------------------------------------------------

 ---------
 b3lyp opt
 ---------
 Symbolic Z-matrix:
 Charge = -1 Multiplicity = 4

                         Standard orientation:
 ---------------------------------------------------------------------
 Center     Atomic      Atomic             Coordinates (Angstroms)
 Number     Number       Type             X           Y           Z
 ---------------------------------------------------------------------
      1          6           0       -0.000000    0.435863   -0.000000
      2          8           0       -1.187558    0.260487   -0.000000
      3          6           0        1.079991   -0.496101    0.000000
      4          1           0        2.111626   -0.151745    0.000000
      5          1           0        0.908889   -1.570720    0.000000
 ---------------------------------------------------------------------

 SCF Done:  E(UB3LYP) =  -152.551946244     A.U. after   19 cycles

 The electronic state is 4-A".
 Alpha  occ. eigenvalues --  -19.04290 -10.12887 -10.09310  -0.96216  -0.63876
 Alpha  occ. eigenvalues --   -0.42718  -0.35339  -0.34970  -0.31433  -0.27013
 Alpha  occ. eigenvalues --   -0.15077  -0.07713   0.06960
 Alpha virt. eigenvalues --    0.10685   0.12688   0.13767   0.16615   0.17830
 Alpha virt. eigenvalues --    0.18757   0.20623   0.21874   0.24607   0.24706
 Alpha virt. eigenvalues --    0.26871   0.29926   0.32844   0.34241   0.35782

  Beta  occ. eigenvalues --  -19.02797 -10.11891 -10.07797  -0.93428  -0.59244
  Beta  occ. eigenvalues --   -0.39884  -0.33097  -0.31915  -0.27370  -0.22783
  Beta virt. eigenvalues --   -0.01490   0.05903   0.12247   0.13435   0.14306
  Beta virt. eigenvalues --    0.16362   0.17434   0.18756   0.19997   0.23038
  Beta virt. eigenvalues --    0.23053   0.25471   0.25781   0.28473   0.30659

 Mulliken charges and spin densities:
               1          2
     1  C    0.239876   0.827425
     2  O   -0.482258   0.441800
     3  C    1.912042  -1.301535
     4  H   -1.450041   1.611584
     5  H   -1.219619   1.420725
 Sum of Mulliken charges =  -1.00000   3.00000

 Dipole moment (field-independent basis, Debye):
    X=             -7.5868    Y=              4.0469    Z=             -0.0000  Tot=              8.5987
 Quadrupole moment (field-independent basis, Debye-Ang):
   XX=            -62.2596   YY=            -47.1394   ZZ=            -32.5806
   XY=              4.4780   XZ=             -0.0000   YZ=              0.0000

  Exact polarizability: 565.490 386.029 730.343  -0.000  -0.000 203.569
 Approx polarizability: 600.077 446.522 747.051  -0.000   0.000 163.988

                      1                      2                      3
                     A"                     A'                     A"
 Frequencies --    403.5379               453.4226               814.2850
 Red. masses --      1.4084                 2.8862                 1.3815
 Frc consts  --      0.1351                 0.3496                 0.5397
 IR Inten    --    165.1605                16.3807              1004.4334

                      4                      5                      6
                     A'                     A'                     A'
 Frequencies --    972.9811              1066.2096              1423.8828
 Red. masses --      1.7866                 3.8512                 1.1469
 Frc consts  --      0.9965                 2.5795                 1.3700
 IR Inten    --    399.8823               339.9057               629.5145

                      7                      8                      9
                     A'                     A'                     A'
 Frequencies --   1762.7588              3006.1627              3139.8747
 Red. masses --     12.3979                 1.0520                 1.1190
 Frc consts  --     22.6978                 5.6012                 6.4999
 IR Inten    --    113.4902                56.4887                99.0044

 - Thermochemistry -
 -------------------
 Temperature   298.150 Kelvin.  Pressure   1.00000 Atm.
 Atom     1 has atomic number  6 and mass  12.00000

 Molecular mass:    42.01056 amu.
 Principal axes and moments of inertia in atomic units:
                           1         2         3
     Eigenvalues --    15.11313 164.96231 180.07543
           X            0.94452   0.32844  -0.00000
           Y           -0.32844   0.94452   0.00000
           Z            0.00000  -0.00000   1.00000
 This molecule is an asymmetric top.
 Rotational symmetry number  1.
 Rotational temperatures (Kelvin)      5.73103     0.52505     0.48099
 Rotational constants (GHZ):         119.41548    10.94032    10.02214
 Zero-point vibrational energy      78015.2 (Joules/Mol)
                                   18.64607 (Kcal/Mol)
 Warning -- explicit consideration of   2 degrees of freedom as
           vibrations may cause significant error
 Vibrational temperatures:    580.60   652.37  1171.57  1399.90  1534.04
          (Kelvin)           2048.65  2536.21  4325.19  4517.57

 Zero-point correction=                           0.029714 (Hartree/Particle)
 Thermal correction to Energy=                    0.033266
 Thermal correction to Enthalpy=                  0.034210
 Thermal correction to Gibbs Free Energy=         0.004396
 Sum of electronic and zero-point Energies=           -152.522232
 Sum of electronic and thermal Energies=              -152.518680
 Sum of electronic and thermal Enthalpies=            -152.517736
 Sum of electronic and thermal Free Energies=         -152.547550

                     E (Thermal)             CV                S
                      KCal/Mol        Cal/Mol-Kelvin    Cal/Mol-Kelvin
 Total                   20.875             10.250             62.749
 Electronic               0.000              0.000              2.755
 Translational            0.889              2.981             37.133
 Rotational               0.889              2.981             20.734
 Vibrational             19.097              4.288              2.127
 Vibration     1          0.769              1.462              0.950
 Vibration     2          0.812              1.353              0.785

 Optimization completed.
    -- Stationary point found.
 Normal termination of Gaussian 09 at Thu Mar  7 20:43:33 2019.
