 Gaussian 09, Revision E.01,
 Gaussian 09:  EM64L-G09RevE.01 30-Nov-2015

 -------------------------------------------------
 #p b3lyp/6-311++G(3df,2p) opt freq symmetry=Loose
 -------------------------------------------------

 ---------
 b3lyp opt
 ---------
 Symbolic Z-matrix:
 Charge = -1 Multiplicity = 4

 SCF Done:  E(UB3LYP) =  -77.1827496778     A.U. after   17 cycles
 SCF Done:  E(UB3LYP) =  -77.1835464868     A.U. after   14 cycles
 SCF Done:  E(UB3LYP) =  -77.1835527356     A.U. after   13 cycles
 SCF Done:  E(UB3LYP) =  -77.1835536839     A.U. after   13 cycles
 Optimization completed.
    -- Stationary point found.
 Normal termination of Gaussian 09 at Sun Feb  3 22:19:55 2019.

 ----------------------------------------------------------------------
 #P Geom=AllCheck Guess=TCheck SCRF=Check GenChk UB3LYP/6-311++G(3df,2p
 ) Freq
 ----------------------------------------------------------------------

 Structure from the checkpoint file:  "/scratch/sergio/H2C2.q-1.m4-2.com-4935921/Gau-31801.chk"
 ---------
 b3lyp opt
 ---------
 Charge = -1 Multiplicity = 4

                         Standard orientation:
 ---------------------------------------------------------------------
 Center     Atomic      Atomic             Coordinates (Angstroms)
 Number     Number       Type             X           Y           Z
 ---------------------------------------------------------------------
      1          6           0        0.000000    0.000000    0.831745
      2          6           0       -0.000000   -0.000000   -0.479747
      3          1           0       -0.000000    0.930319   -1.055993
      4          1           0        0.000000   -0.930319   -1.055993
 ---------------------------------------------------------------------

 SCF Done:  E(UB3LYP) =  -77.1835536839     A.U. after    1 cycles

 The electronic state is 4-B2.
 Alpha  occ. eigenvalues --  -10.10066 -10.05387  -0.64147  -0.40949  -0.31307
 Alpha  occ. eigenvalues --   -0.25174  -0.16433  -0.08277   0.07482
 Alpha virt. eigenvalues --    0.11042   0.11827   0.14109   0.17663   0.19186
 Alpha virt. eigenvalues --    0.19280   0.22798   0.23423   0.25629   0.25718
 Alpha virt. eigenvalues --    0.28136   0.34472   0.41872   0.45429   0.48852

  Beta  occ. eigenvalues --  -10.06805 -10.05265  -0.60520  -0.35995  -0.28915
  Beta  occ. eigenvalues --   -0.14565
  Beta virt. eigenvalues --   -0.04585   0.08638   0.12328   0.13848   0.13938
  Beta virt. eigenvalues --    0.15660   0.17896   0.20382   0.21898   0.24040
  Beta virt. eigenvalues --    0.24129   0.26427   0.26720   0.29307   0.36649

 Mulliken charges and spin densities:
               1          2
     1  C    0.064780   1.871157
     2  C    1.781489  -2.197387
     3  H   -1.423135   1.663115
     4  H   -1.423135   1.663115
 Sum of Mulliken charges =  -1.00000   3.00000

 Dipole moment (field-independent basis, Debye):
    X=              0.0000    Y=             -0.0000    Z=              6.5929  Tot=              6.5929
 Quadrupole moment (field-independent basis, Debye-Ang):
   XX=            -29.1624   YY=            -44.1835   ZZ=            -40.0383
   XY=              0.0000   XZ=             -0.0000   YZ=              0.0000

  Exact polarizability: 233.456   0.0001123.806   0.000   0.000 293.868
 Approx polarizability: 158.712  -0.0001250.454  -0.000   0.000 255.555

                      1                      2                      3
                     B1                     B2                     A1
 Frequencies --    605.6292               951.0043              1367.1112
 Red. masses --      1.3482                 1.3339                 1.0647
 Frc consts  --      0.2913                 0.7108                 1.1724
 IR Inten    --   1085.9478               173.0739               995.2477

                      4                      5                      6
                     A1                     A1                     B2
 Frequencies --   1561.3925              2929.8940              3049.0281
 Red. masses --      9.3642                 1.0512                 1.1125
 Frc consts  --     13.4507                 5.3165                 6.0936
 IR Inten    --     18.1275                52.1568                 4.9268

 - Thermochemistry -
 -------------------
 Temperature   298.150 Kelvin.  Pressure   1.00000 Atm.
 Atom     1 has atomic number  6 and mass  12.00000

 Molecular mass:    26.01565 amu.
 Principal axes and moments of inertia in atomic units:
                           1         2         3
     Eigenvalues --     6.22984  46.93236  53.16219
           X            0.00000   0.00000   1.00000
           Y            0.00000   1.00000  -0.00000
           Z            1.00000  -0.00000  -0.00000
 This molecule is an asymmetric top.
 Rotational symmetry number  2.
 Rotational temperatures (Kelvin)     13.90307     1.84550     1.62924
 Rotational constants (GHZ):         289.69325    38.45409    33.94783
 Zero-point vibrational energy      62589.0 (Joules/Mol)
                                   14.95912 (Kcal/Mol)
 Warning -- explicit consideration of   1 degrees of freedom as
           vibrations may cause significant error
 Vibrational temperatures:    871.36  1368.28  1966.97  2246.49  4215.46
          (Kelvin)           4386.87

 Zero-point correction=                           0.023839 (Hartree/Particle)
 Thermal correction to Energy=                    0.026885
 Thermal correction to Enthalpy=                  0.027829
 Thermal correction to Gibbs Free Energy=         0.001669
 Sum of electronic and zero-point Energies=            -77.159715
 Sum of electronic and thermal Energies=               -77.156669
 Sum of electronic and thermal Enthalpies=             -77.155724
 Sum of electronic and thermal Free Energies=          -77.181884

                     E (Thermal)             CV                S
                      KCal/Mol        Cal/Mol-Kelvin    Cal/Mol-Kelvin
 Total                   16.871              7.595             55.058
 Electronic               0.000              0.000              2.755
 Translational            0.889              2.981             35.704
 Rotational               0.889              2.981             16.015
 Vibrational             15.093              1.633              0.584
 Vibration     1          0.964              1.020              0.440

 Optimization completed.
    -- Stationary point found.
 Normal termination of Gaussian 09 at Sun Feb  3 22:20:42 2019.
