 Gaussian 09, Revision E.01,
 Gaussian 09:  EM64L-G09RevE.01 30-Nov-2015

 ------------------------------------------------------
 #p b3lyp/6-311++G(3df,2p) freq IOp(2/17=3) IOp(2/18=3)
 ------------------------------------------------------

 ---------
 b3lyp opt
 ---------
 Symbolic Z-matrix:
 Charge = -1 Multiplicity = 4

                         Standard orientation:
 ---------------------------------------------------------------------
 Center     Atomic      Atomic             Coordinates (Angstroms)
 Number     Number       Type             X           Y           Z
 ---------------------------------------------------------------------
      1          6           0       -0.433047   -0.053029   -0.000000
      2          6           0        0.435330   -1.160822   -0.000000
      3          1           0        1.499094   -1.345195    0.000000
      4          1           0       -1.512792   -0.241655   -0.000000
      5          8           0        0.000000    1.108745    0.000000
 ---------------------------------------------------------------------

 SCF Done:  E(UB3LYP) =  -152.516970480     A.U. after   20 cycles

 The electronic state is 4-A".
 Alpha  occ. eigenvalues --  -19.01755 -10.13664 -10.11044  -0.93386  -0.63441
 Alpha  occ. eigenvalues --   -0.46323  -0.36399  -0.34220  -0.30286  -0.18086
 Alpha  occ. eigenvalues --   -0.15097  -0.14308   0.06628
 Alpha virt. eigenvalues --    0.08886   0.11180   0.14482   0.16166   0.17226
 Alpha virt. eigenvalues --    0.18474   0.20346   0.21206   0.21989   0.24285
 Alpha virt. eigenvalues --    0.26933   0.28637   0.32726   0.36004   0.36080

  Beta  occ. eigenvalues --  -19.00557 -10.13788 -10.08470  -0.91108  -0.58407
  Beta  occ. eigenvalues --   -0.44104  -0.34626  -0.32363  -0.26033  -0.14904
  Beta virt. eigenvalues --   -0.00973   0.02173   0.10646   0.11650   0.14221
  Beta virt. eigenvalues --    0.15573   0.16818   0.19184   0.19682   0.21635
  Beta virt. eigenvalues --    0.22393   0.23406   0.25522   0.28184   0.28900

 Mulliken charges and spin densities:
               1          2
     1  C    1.372571  -1.080875
     2  C    1.712955  -0.183908
     3  H   -1.908459   2.121347
     4  H   -1.556479   1.682341
     5  O   -0.620587   0.461096
 Sum of Mulliken charges =  -1.00000   3.00000

 Dipole moment (field-independent basis, Debye):
    X=             -1.2159    Y=              4.4082    Z=              0.0000  Tot=              4.5728
 Quadrupole moment (field-independent basis, Debye-Ang):
   XX=            -59.3476   YY=            -48.9796   ZZ=            -33.7136
   XY=              2.5339   XZ=             -0.0000   YZ=             -0.0000

  Exact polarizability:1835.474-277.887 383.619  -0.000  -0.000 205.427
 Approx polarizability:2676.244-361.332 344.658   0.000  -0.000 164.223

                      1                      2                      3
                     A'                     A"                     A'
 Frequencies --    398.0534               582.9130               833.9923
 Red. masses --      1.9116                 1.2271                 2.1699
 Frc consts  --      0.1785                 0.2457                 0.8892
 IR Inten    --   1170.1560              1332.5251               626.8028

                      4                      5                      6
                     A"                     A'                     A'
 Frequencies --    962.1231              1145.9927              1401.6286
 Red. masses --      1.6646                 3.7011                 1.4213
 Frc consts  --      0.9078                 2.8638                 1.6451
 IR Inten    --    466.7608               156.8884                84.0556

                      7                      8                      9
                     A'                     A'                     A'
 Frequencies --   1494.7099              3000.5095              3187.8537
 Red. masses --      5.1863                 1.0838                 1.0952
 Frc consts  --      6.8268                 5.7489                 6.5576
 IR Inten    --     63.9836               427.2815               670.1454

 - Thermochemistry -
 -------------------
 Temperature   298.150 Kelvin.  Pressure   1.00000 Atm.
 Atom     1 has atomic number  6 and mass  12.00000

 Molecular mass:    42.01056 amu.
 Principal axes and moments of inertia in atomic units:
                           1         2         3
     Eigenvalues --    25.96121 141.11615 167.07736
           X           -0.23796   0.97128   0.00000
           Y            0.97128   0.23796   0.00000
           Z           -0.00000  -0.00000   1.00000
 This molecule is an asymmetric top.
 Rotational symmetry number  1.
 Rotational temperatures (Kelvin)      3.33628     0.61378     0.51841
 Rotational constants (GHZ):          69.51683    12.78905    10.80183
 Zero-point vibrational energy      77803.8 (Joules/Mol)
                                   18.59555 (Kcal/Mol)
 Warning -- explicit consideration of   2 degrees of freedom as
           vibrations may cause significant error
 Vibrational temperatures:    572.71   838.68  1199.93  1384.28  1648.83
          (Kelvin)           2016.63  2150.55  4317.06  4586.60

 Zero-point correction=                           0.029634 (Hartree/Particle)
 Thermal correction to Energy=                    0.033092
 Thermal correction to Enthalpy=                  0.034036
 Thermal correction to Gibbs Free Energy=         0.004221
 Sum of electronic and zero-point Energies=           -152.487337
 Sum of electronic and thermal Energies=              -152.483878
 Sum of electronic and thermal Enthalpies=            -152.482934
 Sum of electronic and thermal Free Energies=         -152.512749

                     E (Thermal)             CV                S
                      KCal/Mol        Cal/Mol-Kelvin    Cal/Mol-Kelvin
 Total                   20.766              9.946             62.752
 Electronic               0.000              0.000              2.755
 Translational            0.889              2.981             37.133
 Rotational               0.889              2.981             21.042
 Vibrational             18.988              3.984              1.822
 Vibration     1          0.764              1.474              0.970
 Vibration     2          0.940              1.068              0.480

 Optimization completed.
    -- Stationary point found.
 Normal termination of Gaussian 09 at Thu Mar  7 10:07:34 2019.
