 Gaussian 09, Revision E.01,
 Gaussian 09:  EM64L-G09RevE.01 30-Nov-2015

 ------------------------------------------------------
 #p b3lyp/6-311++G(3df,2p) freq IOp(2/17=3) IOp(2/18=3)
 ------------------------------------------------------

 ---------
 b3lyp opt
 ---------
 Symbolic Z-matrix:
 Charge = -1 Multiplicity = 4

                         Standard orientation:
 ---------------------------------------------------------------------
 Center     Atomic      Atomic             Coordinates (Angstroms)
 Number     Number       Type             X           Y           Z
 ---------------------------------------------------------------------
      1          6           0       -0.390699   -0.722615    0.000000
      2          6           0       -1.582758   -1.401290    0.000000
      3          6           0       -0.000000    0.582712    0.000000
      4          1           0        1.837204    0.126293   -0.000000
      5          1           0       -0.669014    1.438186    0.000000
      6          8           0        1.334069    0.960335   -0.000000
 ---------------------------------------------------------------------

 SCF Done:  E(UB3LYP) =  -190.574442736     A.U. after   22 cycles

 The electronic state is 4-A".
 Alpha  occ. eigenvalues --  -18.99587 -10.05421 -10.01223 -10.00508  -0.89587
 Alpha  occ. eigenvalues --   -0.60110  -0.48688  -0.39817  -0.30846  -0.24177
 Alpha  occ. eigenvalues --   -0.23809  -0.13980  -0.12092  -0.11764   0.00725
 Alpha  occ. eigenvalues --    0.05333
 Alpha virt. eigenvalues --    0.11061   0.12343   0.16909   0.18376   0.18869
 Alpha virt. eigenvalues --    0.20053   0.21245   0.21327   0.22893   0.23995
 Alpha virt. eigenvalues --    0.25230   0.26275   0.28095   0.28425   0.29265

  Beta  occ. eigenvalues --  -18.99110 -10.04485 -10.00715  -9.98161  -0.88444
  Beta  occ. eigenvalues --   -0.56600  -0.45373  -0.37098  -0.29505  -0.22347
  Beta  occ. eigenvalues --   -0.21494  -0.08704  -0.07847
  Beta virt. eigenvalues --    0.02284   0.11267   0.12213   0.12262   0.16954
  Beta virt. eigenvalues --    0.17629   0.18499   0.19491   0.20961   0.22003
  Beta virt. eigenvalues --    0.22501   0.23698   0.25040   0.26070   0.27466

 Mulliken charges and spin densities:
               1          2
     1  C   -0.207362   0.784015
     2  C   -0.137886   1.033461
     3  C    0.406321   0.210681
     4  H   -0.188696   0.459604
     5  H   -0.338065   0.470810
     6  O   -0.534312   0.041428
 Sum of Mulliken charges =  -1.00000   3.00000

 Dipole moment (field-independent basis, Debye):
    X=              2.9268    Y=              2.1051    Z=             -0.0000  Tot=              3.6052
 Quadrupole moment (field-independent basis, Debye-Ang):
   XX=            -45.8879   YY=            -39.0167   ZZ=            -32.0742
   XY=             -7.7719   XZ=              0.0000   YZ=              0.0000

  Exact polarizability: 468.727 -56.715 223.037   0.000   0.000  68.793
 Approx polarizability: 441.358  30.051 233.893  -0.000  -0.000  78.941

                      1                      2                      3
                     A'                     A"                     A'
 Frequencies --    271.5188               278.9753               466.7383
 Red. masses --      6.7453                10.8722                 5.1141
 Frc consts  --      0.2930                 0.4985                 0.6564
 IR Inten    --     87.7069                 0.4487                11.4590

                      4                      5                      6
                     A"                     A"                     A'
 Frequencies --    477.2966               559.8277               844.7233
 Red. masses --      1.3091                 1.4235                 6.5513
 Frc consts  --      0.1757                 0.2629                 2.7543
 IR Inten    --      0.1549                 0.1956              1567.4870

                      7                      8                      9
                     A'                     A'                     A'
 Frequencies --   1128.7235              1158.5737              1272.7504
 Red. masses --      8.8747                 1.2336                 2.2365
 Frc consts  --      6.6616                 0.9756                 2.1345
 IR Inten    --   1002.0501               121.5385               267.0515

                     10                     11                     12
                     A'                     A'                     A'
 Frequencies --   1392.8531              3096.5983              3551.1742
 Red. masses --      1.9229                 1.0855                 1.0636
 Frc consts  --      2.1980                 6.1328                 7.9023
 IR Inten    --    116.5365               596.0984              1893.8482

 - Thermochemistry -
 -------------------
 Temperature   298.150 Kelvin.  Pressure   1.00000 Atm.
 Atom     1 has atomic number  6 and mass  12.00000

 Molecular mass:    54.01056 amu.
 Principal axes and moments of inertia in atomic units:
                           1         2         3
     Eigenvalues --    25.96041 384.35037 410.31078
           X            0.75309  -0.65792   0.00000
           Y            0.65792   0.75309   0.00000
           Z           -0.00000   0.00000   1.00000
 This molecule is an asymmetric top.
 Rotational symmetry number  1.
 Rotational temperatures (Kelvin)      3.33638     0.22535     0.21109
 Rotational constants (GHZ):          69.51899     4.69556     4.39847
 Zero-point vibrational energy      86727.8 (Joules/Mol)
                                   20.72844 (Kcal/Mol)
 Warning -- explicit consideration of   5 degrees of freedom as
           vibrations may cause significant error
 Vibrational temperatures:    390.65   401.38   671.53   686.72   805.47
          (Kelvin)           1215.37  1623.98  1666.93  1831.20  2004.00
                             4455.31  5109.34

 Zero-point correction=                           0.033033 (Hartree/Particle)
 Thermal correction to Energy=                    0.037573
 Thermal correction to Enthalpy=                  0.038517
 Thermal correction to Gibbs Free Energy=         0.005728
 Sum of electronic and zero-point Energies=           -190.541410
 Sum of electronic and thermal Energies=              -190.536870
 Sum of electronic and thermal Enthalpies=            -190.535926
 Sum of electronic and thermal Free Energies=         -190.568714

                     E (Thermal)             CV                S
                      KCal/Mol        Cal/Mol-Kelvin    Cal/Mol-Kelvin
 Total                   23.577             14.482             69.010
 Electronic               0.000              0.000              2.755
 Translational            0.889              2.981             37.882
 Rotational               0.889              2.981             22.931
 Vibrational             21.800              8.521              5.442
 Vibration     1          0.675              1.726              1.587
 Vibration     2          0.679              1.712              1.540
 Vibration     3          0.824              1.324              0.747
 Vibration     4          0.834              1.300              0.717
 Vibration     5          0.915              1.118              0.524

 Optimization completed.
    -- Stationary point found.
 Normal termination of Gaussian 09 at Thu Mar  7 10:45:59 2019.
