 Gaussian 09, Revision E.01,
 Gaussian 09:  EM64L-G09RevE.01 30-Nov-2015

 ------------------------------------------------------
 #p b3lyp/6-311++G(3df,2p) freq IOp(2/17=3) IOp(2/18=3)
 ------------------------------------------------------

 ---------
 b3lyp opt
 ---------
 Symbolic Z-matrix:
 Charge = -1 Multiplicity = 2

                         Standard orientation:
 ---------------------------------------------------------------------
 Center     Atomic      Atomic             Coordinates (Angstroms)
 Number     Number       Type             X           Y           Z
 ---------------------------------------------------------------------
      1          6           0       -0.134506   -0.052629   -0.000208
      2          6           0        1.041779   -0.830373    0.000276
      3          6           0        1.039120    0.575479   -0.000351
      4          1           0       -1.801142    0.864057    0.001121
      5          1           0        1.617875    1.481610    0.001029
      6          8           0       -1.436886   -0.062566   -0.000057
 ---------------------------------------------------------------------

 SCF Done:  E(UB3LYP) =  -190.650069769     A.U. after   23 cycles

 The electronic state is 2-A.
 Alpha  occ. eigenvalues --  -19.05504 -10.13702 -10.08118 -10.05146  -0.96621
 Alpha  occ. eigenvalues --   -0.78375  -0.49980  -0.44892  -0.37591  -0.31543
 Alpha  occ. eigenvalues --   -0.27762  -0.21016  -0.19569  -0.10186   0.05450
 Alpha virt. eigenvalues --    0.08960   0.10444   0.13838   0.14445   0.16448
 Alpha virt. eigenvalues --    0.17074   0.17655   0.18807   0.20757   0.20899
 Alpha virt. eigenvalues --    0.21677   0.22492   0.23170   0.26433   0.27374

  Beta  occ. eigenvalues --  -19.05340 -10.13699 -10.08087 -10.05118  -0.96312
  Beta  occ. eigenvalues --   -0.78327  -0.49628  -0.44738  -0.37493  -0.31442
  Beta  occ. eigenvalues --   -0.27618  -0.20861  -0.19481  -0.10111
  Beta virt. eigenvalues --    0.09602   0.10465   0.11459   0.13802   0.14753
  Beta virt. eigenvalues --    0.16934   0.17349   0.18345   0.19197   0.20964
  Beta virt. eigenvalues --    0.21108   0.22564   0.22582   0.23356   0.26623

 Mulliken charges and spin densities:
               1          2
     1  C    2.481830  -1.967404
     2  C    0.748717  -1.263864
     3  C   -1.099517   1.094181
     4  H   -1.245373   1.596460
     5  H   -1.320186   1.533875
     6  O   -0.565471   0.006752
 Sum of Mulliken charges =  -1.00000   1.00000

 Dipole moment (field-independent basis, Debye):
    X=              3.0754    Y=             -3.9082    Z=             -0.0122  Tot=              4.9731
 Quadrupole moment (field-independent basis, Debye-Ang):
   XX=            -59.1067   YY=            -55.1161   ZZ=            -37.1939
   XY=              8.7860   XZ=              0.0049   YZ=             -0.0215

  Exact polarizability:1110.802 259.716 249.001   0.454   0.089 166.398
 Approx polarizability:1092.665 251.505 230.213   0.427   0.082 141.988

                      1                      2                      3
                      A                      A                      A
 Frequencies --    437.6618               455.0898               558.4979
 Red. masses --      4.2267                 2.6692                 1.4789
 Frc consts  --      0.4770                 0.3257                 0.2718
 IR Inten    --     47.7893               878.6139               659.3898

                      4                      5                      6
                      A                      A                      A
 Frequencies --    818.9168               908.4570               948.3342
 Red. masses --      3.1492                 1.4173                 1.5752
 Frc consts  --      1.2443                 0.6891                 0.8347
 IR Inten    --    121.0005               210.4751                 3.9019

                      7                      8                      9
                      A                      A                      A
 Frequencies --   1148.1720              1258.3337              1393.2456
 Red. masses --      2.4018                 3.4590                 2.9242
 Frc consts  --      1.8655                 3.2269                 3.3443
 IR Inten    --   1707.4246                15.5428               222.0811

                     10                     11                     12
                      A                      A                      A
 Frequencies --   1784.7837              3059.2765              3248.5678
 Red. masses --      8.1532                 1.0672                 1.1133
 Frc consts  --     15.3021                 5.8849                 6.9220
 IR Inten    --    863.6430              9058.9671                87.3199

 - Thermochemistry -
 -------------------
 Temperature   298.150 Kelvin.  Pressure   1.00000 Atm.
 Atom     1 has atomic number  6 and mass  12.00000

 Molecular mass:    54.01056 amu.
 Principal axes and moments of inertia in atomic units:
                           1         2         3
     Eigenvalues --    54.26245 232.62729 286.88970
           X            0.99986   0.01655  -0.00000
           Y           -0.01655   0.99986   0.00017
           Z            0.00001  -0.00017   1.00000
 This molecule is an asymmetric top.
 Rotational symmetry number  1.
 Rotational temperatures (Kelvin)      1.59620     0.37233     0.30191
 Rotational constants (GHZ):          33.25949     7.75808     6.29071
 Zero-point vibrational energy      95816.9 (Joules/Mol)
                                   22.90079 (Kcal/Mol)
 Warning -- explicit consideration of   3 degrees of freedom as
           vibrations may cause significant error
 Vibrational temperatures:    629.70   654.77   803.55  1178.24  1307.07
          (Kelvin)           1364.44  1651.96  1810.46  2004.57  2567.90
                             4401.61  4673.96

 Zero-point correction=                           0.036495 (Hartree/Particle)
 Thermal correction to Energy=                    0.040259
 Thermal correction to Enthalpy=                  0.041203
 Thermal correction to Gibbs Free Energy=         0.010435
 Sum of electronic and zero-point Energies=           -190.613575
 Sum of electronic and thermal Energies=              -190.609811
 Sum of electronic and thermal Enthalpies=            -190.608867
 Sum of electronic and thermal Free Energies=         -190.639635

                     E (Thermal)             CV                S
                      KCal/Mol        Cal/Mol-Kelvin    Cal/Mol-Kelvin
 Total                   25.263             11.913             64.758
 Electronic               0.000              0.000              1.377
 Translational            0.889              2.981             37.882
 Rotational               0.889              2.981             22.809
 Vibrational             23.485              5.951              2.690
 Vibration     1          0.798              1.388              0.834
 Vibration     2          0.813              1.350              0.781
 Vibration     3          0.914              1.121              0.527

 Optimization completed.
    -- Stationary point found.
 Normal termination of Gaussian 09 at Thu Mar  7 10:47:48 2019.
