 Gaussian 09, Revision E.01,
 Gaussian 09:  EM64L-G09RevE.01 30-Nov-2015

 ------------------------------------------------------
 #p b3lyp/6-311++G(3df,2p) freq IOp(2/17=3) IOp(2/18=3)
 ------------------------------------------------------

 ---------
 b3lyp opt
 ---------
 Symbolic Z-matrix:
 Charge = -1 Multiplicity = 4

                         Standard orientation:
 ---------------------------------------------------------------------
 Center     Atomic      Atomic             Coordinates (Angstroms)
 Number     Number       Type             X           Y           Z
 ---------------------------------------------------------------------
      1          6           0       -0.156954   -0.154149   -0.013688
      2          6           0        0.965757   -0.824476    0.053264
      3          6           0        1.160409    0.599439   -0.145013
      4          1           0       -1.740705    0.955349    0.006327
      5          1           0        1.457641    1.388051    0.552553
      6          8           0       -1.441527   -0.008535    0.009217
 ---------------------------------------------------------------------

 SCF Done:  E(UB3LYP) =  -190.555811445     A.U. after   22 cycles

 The electronic state is 4-A.
 Alpha  occ. eigenvalues --  -19.05348 -10.14354 -10.07550 -10.07193  -0.96583
 Alpha  occ. eigenvalues --   -0.76410  -0.50432  -0.44317  -0.35729  -0.31835
 Alpha  occ. eigenvalues --   -0.27380  -0.25538  -0.19512  -0.11666  -0.03781
 Alpha  occ. eigenvalues --    0.06092
 Alpha virt. eigenvalues --    0.10680   0.13826   0.14324   0.15922   0.16936
 Alpha virt. eigenvalues --    0.18619   0.18847   0.20162   0.21270   0.21763
 Alpha virt. eigenvalues --    0.22615   0.24624   0.26357   0.27312   0.28842

  Beta  occ. eigenvalues --  -19.04999 -10.13939 -10.06031 -10.05829  -0.95782
  Beta  occ. eigenvalues --   -0.74137  -0.49104  -0.41008  -0.33626  -0.30130
  Beta  occ. eigenvalues --   -0.23918  -0.21923  -0.15622
  Beta virt. eigenvalues --    0.00724   0.08338   0.10841   0.12683   0.14559
  Beta virt. eigenvalues --    0.15662   0.16820   0.17964   0.19001   0.20312
  Beta virt. eigenvalues --    0.20809   0.22202   0.22936   0.23263   0.25596

 Mulliken charges and spin densities:
               1          2
     1  C    0.228235   0.444991
     2  C    1.815587  -1.216265
     3  C   -0.426604   1.078359
     4  H   -1.558957   1.946470
     5  H   -0.430603   0.619386
     6  O   -0.627657   0.127058
 Sum of Mulliken charges =  -1.00000   3.00000

 Dipole moment (field-independent basis, Debye):
    X=              5.2409    Y=             -5.3345    Z=             -0.5252  Tot=              7.4967
 Quadrupole moment (field-independent basis, Debye-Ang):
   XX=            -57.7922   YY=            -49.3051   ZZ=            -38.0693
   XY=             11.9049   XZ=              1.0384   YZ=             -1.4118

  Exact polarizability: 611.202  64.418 214.659 166.008  28.873 191.077
 Approx polarizability: 509.424  31.493 201.356 120.852  12.051 168.812

                      1                      2                      3
                      A                      A                      A
 Frequencies --    264.4315               384.8880               439.9898
 Red. masses --      1.2652                 3.4194                 5.6294
 Frc consts  --      0.0521                 0.2984                 0.6421
 IR Inten    --    943.5522               133.2726               199.6575

                      4                      5                      6
                      A                      A                      A
 Frequencies --    641.1624               910.5085               955.6053
 Red. masses --      9.3378                 1.2402                 1.2562
 Frc consts  --      2.2617                 0.6058                 0.6759
 IR Inten    --     20.0185                 5.0958                78.5282

                      7                      8                      9
                      A                      A                      A
 Frequencies --   1058.8366              1113.9876              1167.7643
 Red. masses --      3.6702                 5.6319                 1.6907
 Frc consts  --      2.4243                 4.1178                 1.3584
 IR Inten    --    261.6363               472.9526              1019.3584

                     10                     11                     12
                      A                      A                      A
 Frequencies --   1800.5982              2731.0845              2982.9298
 Red. masses --      9.6413                 1.0750                 1.0853
 Frc consts  --     18.4170                 4.7242                 5.6897
 IR Inten    --    310.9318              3574.8160                59.1452

 - Thermochemistry -
 -------------------
 Temperature   298.150 Kelvin.  Pressure   1.00000 Atm.
 Atom     1 has atomic number  6 and mass  12.00000

 Molecular mass:    54.01056 amu.
 Principal axes and moments of inertia in atomic units:
                           1         2         3
     Eigenvalues --    57.48442 237.93829 291.56285
           X            0.99991   0.00600   0.01224
           Y           -0.00664   0.99857   0.05301
           Z           -0.01191  -0.05309   0.99852
 This molecule is an asymmetric top.
 Rotational symmetry number  1.
 Rotational temperatures (Kelvin)      1.50674     0.36402     0.29707
 Rotational constants (GHZ):          31.39531     7.58491     6.18989
 Zero-point vibrational energy      86440.9 (Joules/Mol)
                                   20.65987 (Kcal/Mol)
 Warning -- explicit consideration of   3 degrees of freedom as
           vibrations may cause significant error
 Vibrational temperatures:    380.46   553.77   633.05   922.49  1310.02
          (Kelvin)           1374.90  1523.43  1602.78  1680.15  2590.66
                             3929.42  4291.77

 Zero-point correction=                           0.032924 (Hartree/Particle)
 Thermal correction to Energy=                    0.037127
 Thermal correction to Enthalpy=                  0.038071
 Thermal correction to Gibbs Free Energy=         0.005842
 Sum of electronic and zero-point Energies=           -190.522888
 Sum of electronic and thermal Energies=              -190.518684
 Sum of electronic and thermal Enthalpies=            -190.517740
 Sum of electronic and thermal Free Energies=         -190.549970

                     E (Thermal)             CV                S
                      KCal/Mol        Cal/Mol-Kelvin    Cal/Mol-Kelvin
 Total                   23.298             13.284             67.833
 Electronic               0.000              0.000              2.755
 Translational            0.889              2.981             37.882
 Rotational               0.889              2.981             22.904
 Vibrational             21.520              7.322              4.292
 Vibration     1          0.671              1.738              1.632
 Vibration     2          0.754              1.502              1.020
 Vibration     3          0.800              1.383              0.827

 Optimization completed.
    -- Stationary point found.
 Normal termination of Gaussian 09 at Thu Mar  7 11:04:23 2019.
