 Gaussian 09, Revision E.01,
 Gaussian 09:  EM64L-G09RevE.01 30-Nov-2015

 ------------------------------------------------------
 #p b3lyp/6-311++G(3df,2p) freq IOp(2/17=3) IOp(2/18=3)
 ------------------------------------------------------

 ---------
 b3lyp opt
 ---------
 Symbolic Z-matrix:
 Charge = -1 Multiplicity = 2

                         Standard orientation:
 ---------------------------------------------------------------------
 Center     Atomic      Atomic             Coordinates (Angstroms)
 Number     Number       Type             X           Y           Z
 ---------------------------------------------------------------------
      1          6           0        0.043838   -0.843657    0.000000
      2          6           0        0.736727   -1.900571   -0.000000
      3          6           0       -0.649923    0.329673    0.000000
      4          1           0        0.939286    1.367726   -0.000000
      5          1           0       -1.723140    0.454916    0.000000
      6          8           0       -0.000000    1.583085   -0.000000
 ---------------------------------------------------------------------

 SCF Done:  E(UB3LYP) =  -190.701333370     A.U. after   18 cycles

 The electronic state is 2-A".
 Alpha  occ. eigenvalues --  -18.98461 -10.04494  -9.94050  -9.93700  -0.87940
 Alpha  occ. eigenvalues --   -0.55997  -0.47357  -0.37768  -0.29070  -0.22697
 Alpha  occ. eigenvalues --   -0.22686  -0.09652  -0.05904  -0.05567   0.02728
 Alpha virt. eigenvalues --    0.12017   0.12838   0.17659   0.18951   0.19668
 Alpha virt. eigenvalues --    0.20620   0.21996   0.23435   0.24114   0.24681
 Alpha virt. eigenvalues --    0.25138   0.26960   0.28831   0.29715   0.32580

  Beta  occ. eigenvalues --  -18.98195 -10.03535  -9.93963  -9.93349  -0.87288
  Beta  occ. eigenvalues --   -0.54830  -0.45715  -0.37085  -0.28562  -0.22330
  Beta  occ. eigenvalues --   -0.20151  -0.06926  -0.05422  -0.04624
  Beta virt. eigenvalues --    0.12042   0.12860   0.13038   0.17705   0.19201
  Beta virt. eigenvalues --    0.19711   0.20658   0.22024   0.24324   0.24336
  Beta virt. eigenvalues --    0.24891   0.25374   0.27584   0.29024   0.29781

 Mulliken charges and spin densities:
               1          2
     1  C    0.436888  -0.286061
     2  C   -0.694178   0.599638
     3  C   -0.507321   0.670931
     4  H    0.225158  -0.002073
     5  H    0.137433  -0.033412
     6  O   -0.597980   0.050977
 Sum of Mulliken charges =  -1.00000   1.00000

 Dipole moment (field-independent basis, Debye):
    X=             -1.9164    Y=              6.0308    Z=              0.0000  Tot=              6.3280
 Quadrupole moment (field-independent basis, Debye-Ang):
   XX=            -29.0176   YY=            -49.4288   ZZ=            -29.7125
   XY=              8.6551   XZ=              0.0000   YZ=             -0.0000

  Exact polarizability:  59.985 -16.360  86.209   0.000  -0.000  45.869
 Approx polarizability:  83.659 -27.115 122.412  -0.000   0.000  58.980

                      1                      2                      3
                     A'                     A"                     A"
 Frequencies --    192.2372               325.4817               394.5171
 Red. masses --      7.0523                 1.5788                 3.4364
 Frc consts  --      0.1536                 0.0985                 0.3151
 IR Inten    --     13.3253                 0.6701                45.1620

                      4                      5                      6
                     A"                     A'                     A'
 Frequencies --    413.5690               569.2454               942.0082
 Red. masses --      1.3202                 5.4324                 5.8932
 Frc consts  --      0.1330                 1.0371                 3.0811
 IR Inten    --     68.2006                19.8775               159.9627

                      7                      8                      9
                     A'                     A'                     A'
 Frequencies --   1139.1668              1230.5791              1407.6454
 Red. masses --      3.0055                 1.3130                 1.4048
 Frc consts  --      2.2980                 1.1714                 1.6401
 IR Inten    --    120.2218                 2.9517               128.1856

                     10                     11                     12
                     A'                     A'                     A'
 Frequencies --   1863.7671              3170.8302              3795.3668
 Red. masses --     11.8099                 1.0863                 1.0649
 Frc consts  --     24.1703                 6.4350                 9.0375
 IR Inten    --    104.6804                50.1422                 9.8546

 - Thermochemistry -
 -------------------
 Temperature   298.150 Kelvin.  Pressure   1.00000 Atm.
 Atom     1 has atomic number  6 and mass  12.00000

 Molecular mass:    54.01056 amu.
 Principal axes and moments of inertia in atomic units:
                           1         2         3
     Eigenvalues --    39.49735 356.12446 395.62180
           X           -0.22315   0.97478   0.00000
           Y            0.97478   0.22315   0.00000
           Z           -0.00000  -0.00000   1.00000
 This molecule is an asymmetric top.
 Rotational symmetry number  1.
 Rotational temperatures (Kelvin)      2.19290     0.24321     0.21893
 Rotational constants (GHZ):          45.69272     5.06773     4.56178
 Zero-point vibrational energy      92378.1 (Joules/Mol)
                                   22.07890 (Kcal/Mol)
 Warning -- explicit consideration of   5 degrees of freedom as
           vibrations may cause significant error
 Vibrational temperatures:    276.59   468.29   567.62   595.03   819.02
          (Kelvin)           1355.34  1639.00  1770.53  2025.29  2681.54
                             4562.11  5460.68

 Zero-point correction=                           0.035185 (Hartree/Particle)
 Thermal correction to Energy=                    0.039859
 Thermal correction to Enthalpy=                  0.040803
 Thermal correction to Gibbs Free Energy=         0.008203
 Sum of electronic and zero-point Energies=           -190.666148
 Sum of electronic and thermal Energies=              -190.661474
 Sum of electronic and thermal Enthalpies=            -190.660530
 Sum of electronic and thermal Free Energies=         -190.693131

                     E (Thermal)             CV                S
                      KCal/Mol        Cal/Mol-Kelvin    Cal/Mol-Kelvin
 Total                   25.012             14.459             68.614
 Electronic               0.000              0.000              1.377
 Translational            0.889              2.981             37.882
 Rotational               0.889              2.981             23.236
 Vibrational             23.234              8.498              6.119
 Vibration     1          0.634              1.851              2.206
 Vibration     2          0.710              1.625              1.282
 Vibration     3          0.761              1.482              0.983
 Vibration     4          0.777              1.441              0.914
 Vibration     5          0.925              1.098              0.506

 Optimization completed.
    -- Stationary point found.
 Normal termination of Gaussian 09 at Thu Mar  7 10:44:42 2019.
