 Gaussian 09, Revision E.01,
 Gaussian 09:  EM64L-G09RevE.01 30-Nov-2015

 ------------------------------------------------------
 #p b3lyp/6-311++G(3df,2p) freq IOp(2/17=3) IOp(2/18=3)
 ------------------------------------------------------

 ---------
 b3lyp opt
 ---------
 Symbolic Z-matrix:
 Charge = -1 Multiplicity = 2

                         Standard orientation:
 ---------------------------------------------------------------------
 Center     Atomic      Atomic             Coordinates (Angstroms)
 Number     Number       Type             X           Y           Z
 ---------------------------------------------------------------------
      1          6           0        0.036567   -1.106074   -0.000000
      2          6           0       -1.336866    1.275882    0.000000
      3          6           0        0.000000    1.594221    0.000000
      4          6           0       -0.298349    0.255280    0.000000
      5          1           0        0.740803    2.380255    0.000000
      6          1           0       -0.830277   -1.794575   -0.000000
      7          8           0        1.210170   -1.587691   -0.000000
 ---------------------------------------------------------------------

 SCF Done:  E(UB3LYP) =  -228.806594922     A.U. after   18 cycles

 The electronic state is 2-A".
 Alpha  occ. eigenvalues --  -18.91084 -10.04033 -10.01836 -10.01473  -9.99530
 Alpha  occ. eigenvalues --   -0.81889  -0.71445  -0.50269  -0.39424  -0.33045
 Alpha  occ. eigenvalues --   -0.25256  -0.23685  -0.22577  -0.16804  -0.14586
 Alpha  occ. eigenvalues --   -0.07097  -0.04771   0.01205
 Alpha virt. eigenvalues --    0.11258   0.13245   0.15466   0.16738   0.17447
 Alpha virt. eigenvalues --    0.18633   0.19183   0.21626   0.21907   0.22520
 Alpha virt. eigenvalues --    0.24026   0.24270   0.25153   0.25979   0.26575

  Beta  occ. eigenvalues --  -18.90108 -10.03736 -10.01575 -10.01149  -9.99502
  Beta  occ. eigenvalues --   -0.80082  -0.70900  -0.48360  -0.38963  -0.32486
  Beta  occ. eigenvalues --   -0.24517  -0.23110  -0.19425  -0.14295  -0.13131
  Beta  occ. eigenvalues --   -0.06224  -0.04599
  Beta virt. eigenvalues --    0.10352   0.11239   0.13248   0.16130   0.16731
  Beta virt. eigenvalues --    0.17886   0.18640   0.19186   0.21739   0.22248
  Beta virt. eigenvalues --    0.22571   0.24259   0.25214   0.25621   0.26679

 Mulliken charges and spin densities:
               1          2
     1  C   -0.183809   0.200322
     2  C   -0.518532   0.020668
     3  C   -0.031926   0.294196
     4  C    0.278985   0.176965
     5  H    0.181386  -0.008899
     6  H    0.030046  -0.019452
     7  O   -0.756152   0.336200
 Sum of Mulliken charges =  -1.00000   1.00000

 Dipole moment (field-independent basis, Debye):
    X=              1.4247    Y=              0.6471    Z=              0.0000  Tot=              1.5647
 Quadrupole moment (field-independent basis, Debye-Ang):
   XX=            -46.6974   YY=            -44.0465   ZZ=            -32.8656
   XY=             13.1030   XZ=             -0.0000   YZ=             -0.0000

  Exact polarizability:  73.438 -10.521  94.316  -0.000   0.000  46.067
 Approx polarizability: 101.628 -10.311 127.800   0.000   0.000  64.213

                      1                      2                      3
                     A'                     A"                     A"
 Frequencies --    215.7441               227.0975               390.4301
 Red. masses --      5.3940                 7.5702                 2.6386
 Frc consts  --      0.1479                 0.2300                 0.2370
 IR Inten    --     17.2835                27.2867                 5.6115

                      4                      5                      6
                     A'                     A"                     A"
 Frequencies --    545.0788               704.2631               808.6604
 Red. masses --     10.9826                 1.3744                 1.6425
 Frc consts  --      1.9225                 0.4016                 0.6328
 IR Inten    --      0.3107                 9.3153                14.5069

                      7                      8                      9
                     A'                     A'                     A'
 Frequencies --    846.4648               966.2766              1051.9046
 Red. masses --      2.0337                 2.6297                 3.9689
 Frc consts  --      0.8585                 1.4466                 2.5875
 IR Inten    --     27.0503                10.2055                 0.0196

                     10                     11                     12
                     A'                     A'                     A'
 Frequencies --   1310.1614              1371.5263              1475.2666
 Red. masses --      2.9371                 2.2512                 3.4791
 Frc consts  --      2.9705                 2.4950                 4.4613
 IR Inten    --    147.7891                 6.0120               256.3260

                     13                     14                     15
                     A'                     A'                     A'
 Frequencies --   1704.4519              2864.4723              3174.1277
 Red. masses --      9.2098                 1.0766                 1.1036
 Frc consts  --     15.7641                 5.2048                 6.5511
 IR Inten    --     20.0300               210.7463                23.4075

 - Thermochemistry -
 -------------------
 Temperature   298.150 Kelvin.  Pressure   1.00000 Atm.
 Atom     1 has atomic number  6 and mass  12.00000

 Molecular mass:    66.01056 amu.
 Principal axes and moments of inertia in atomic units:
                           1         2         3
     Eigenvalues --    75.72213 502.67994 578.40207
           X           -0.46632   0.88462   0.00000
           Y            0.88462   0.46632   0.00000
           Z           -0.00000  -0.00000   1.00000
 This molecule is an asymmetric top.
 Rotational symmetry number  1.
 Rotational temperatures (Kelvin)      1.14384     0.17230     0.14975
 Rotational constants (GHZ):          23.83374     3.59024     3.12022
 Zero-point vibrational energy     105605.9 (Joules/Mol)
                                   25.24041 (Kcal/Mol)
 Warning -- explicit consideration of   4 degrees of freedom as
           vibrations may cause significant error
 Vibrational temperatures:    310.41   326.74   561.74   784.25  1013.28
          (Kelvin)           1163.48  1217.87  1390.25  1513.45  1885.03
                             1973.32  2122.58  2452.32  4121.33  4566.86

 Zero-point correction=                           0.040223 (Hartree/Particle)
 Thermal correction to Energy=                    0.044975
 Thermal correction to Enthalpy=                  0.045919
 Thermal correction to Gibbs Free Energy=         0.012265
 Sum of electronic and zero-point Energies=           -228.766372
 Sum of electronic and thermal Energies=              -228.761620
 Sum of electronic and thermal Enthalpies=            -228.760676
 Sum of electronic and thermal Free Energies=         -228.794330

                     E (Thermal)             CV                S
                      KCal/Mol        Cal/Mol-Kelvin    Cal/Mol-Kelvin
 Total                   28.222             15.372             70.830
 Electronic               0.000              0.000              1.377
 Translational            0.889              2.981             38.480
 Rotational               0.889              2.981             24.602
 Vibrational             26.445              9.410              6.371
 Vibration     1          0.645              1.817              1.995
 Vibration     2          0.651              1.800              1.902
 Vibration     3          0.758              1.491              0.999
 Vibration     4          0.900              1.150              0.554

 Optimization completed.
    -- Stationary point found.
 Normal termination of Gaussian 09 at Thu Mar  7 11:16:31 2019.
