 Gaussian 09, Revision E.01,
 Gaussian 09:  EM64L-G09RevE.01 30-Nov-2015

 ------------------------------------------------------
 #p b3lyp/6-311++G(3df,2p) freq IOp(2/17=3) IOp(2/18=3)
 ------------------------------------------------------

 ---------
 b3lyp opt
 ---------
 Symbolic Z-matrix:
 Charge = -1 Multiplicity = 4

                         Standard orientation:
 ---------------------------------------------------------------------
 Center     Atomic      Atomic             Coordinates (Angstroms)
 Number     Number       Type             X           Y           Z
 ---------------------------------------------------------------------
      1          6           0       -1.128324    0.596149    0.092552
      2          6           0        2.593928   -0.352397    0.230520
      3          6           0        0.216224    0.449132   -0.462473
      4          6           0        1.379634    0.027304   -0.059659
      5          1           0       -1.555879   -1.133598   -0.565820
      6          1           0       -1.283036    1.155101    1.016806
      7          8           0       -1.941232   -0.542829    0.092922
 ---------------------------------------------------------------------

 SCF Done:  E(UB3LYP) =  -228.711296175     A.U. after   20 cycles

 The electronic state is 4-A.
 Alpha  occ. eigenvalues --  -19.01296 -10.07832 -10.00617  -9.98249  -9.98091
 Alpha  occ. eigenvalues --   -0.91096  -0.61085  -0.53899  -0.46635  -0.37508
 Alpha  occ. eigenvalues --   -0.31583  -0.25935  -0.24178  -0.15873  -0.14471
 Alpha  occ. eigenvalues --   -0.09699  -0.05911  -0.00989   0.01016
 Alpha virt. eigenvalues --    0.11181   0.12126   0.16618   0.17046   0.18748
 Alpha virt. eigenvalues --    0.19482   0.20029   0.20668   0.22314   0.22665
 Alpha virt. eigenvalues --    0.23418   0.23878   0.25275   0.25613   0.27076

  Beta  occ. eigenvalues --  -19.00698 -10.06468  -9.99038  -9.98380  -9.96646
  Beta  occ. eigenvalues --   -0.89681  -0.58229  -0.50742  -0.43582  -0.35825
  Beta  occ. eigenvalues --   -0.30042  -0.22789  -0.21554  -0.11175  -0.11039
  Beta  occ. eigenvalues --   -0.06900
  Beta virt. eigenvalues --    0.05894   0.09433   0.12136   0.12254   0.14027
  Beta virt. eigenvalues --    0.16944   0.17728   0.19151   0.20097   0.20262
  Beta virt. eigenvalues --    0.21176   0.22804   0.23043   0.24555   0.24653

 Mulliken charges and spin densities:
               1          2
     1  C    0.056513   0.819975
     2  C   -0.938615   1.227371
     3  C   -0.876771   0.912993
     4  C    0.962939  -0.128861
     5  H    0.221729   0.029264
     6  H    0.088609   0.042034
     7  O   -0.514404   0.097223
 Sum of Mulliken charges =  -1.00000   3.00000

 Dipole moment (field-independent basis, Debye):
    X=             -6.5193    Y=              0.0385    Z=             -0.3907  Tot=              6.5311
 Quadrupole moment (field-independent basis, Debye-Ang):
   XX=            -65.9564   YY=            -34.7266   ZZ=            -35.0524
   XY=              4.2549   XZ=             -1.6119   YZ=              3.1343

  Exact polarizability: 129.002 -11.207  64.514   9.944   0.219  64.124
 Approx polarizability: 183.030 -21.870  88.060  21.322  -2.644  85.832

                      1                      2                      3
                      A                      A                      A
 Frequencies --     90.2366               182.9758               389.6188
 Red. masses --      6.7820                 3.2962                 4.1083
 Frc consts  --      0.0325                 0.0650                 0.3674
 IR Inten    --      6.5222                14.9256                16.3909

                      4                      5                      6
                      A                      A                      A
 Frequencies --    419.5072               469.7925               528.2833
 Red. masses --      1.6337                 6.6506                 4.6654
 Frc consts  --      0.1694                 0.8648                 0.7671
 IR Inten    --     38.9493                25.4375                43.8482

                      7                      8                      9
                      A                      A                      A
 Frequencies --    766.9285               858.9976              1055.8707
 Red. masses --      1.5855                 4.8298                 6.0443
 Frc consts  --      0.5495                 2.0997                 3.9703
 IR Inten    --      3.5219                21.6657               234.8181

                     10                     11                     12
                      A                      A                      A
 Frequencies --   1200.8816              1293.2412              1393.3902
 Red. masses --      1.2144                 3.4356                 1.6158
 Frc consts  --      1.0319                 3.3854                 1.8483
 IR Inten    --      7.9073                10.0934               211.4730

                     13                     14                     15
                      A                      A                      A
 Frequencies --   1724.7955              3028.4848              3765.5032
 Red. masses --     11.8568                 1.0841                 1.0650
 Frc consts  --     20.7822                 5.8585                 8.8966
 IR Inten    --     14.9540               174.7082                23.9391

 - Thermochemistry -
 -------------------
 Temperature   298.150 Kelvin.  Pressure   1.00000 Atm.
 Atom     1 has atomic number  6 and mass  12.00000

 Molecular mass:    66.01056 amu.
 Principal axes and moments of inertia in atomic units:
                           1         2         3
     Eigenvalues --    72.79718 672.17442 712.45274
           X            1.00000   0.00210  -0.00217
           Y           -0.00172   0.98682   0.16180
           Z            0.00248  -0.16179   0.98682
 This molecule is an asymmetric top.
 Rotational symmetry number  1.
 Rotational temperatures (Kelvin)      1.18980     0.12886     0.12157
 Rotational constants (GHZ):          24.79136     2.68493     2.53314
 Zero-point vibrational energy     102690.5 (Joules/Mol)
                                   24.54361 (Kcal/Mol)
 Warning -- explicit consideration of   6 degrees of freedom as
           vibrations may cause significant error
 Vibrational temperatures:    129.83   263.26   560.57   603.58   675.93
          (Kelvin)            760.08  1103.44  1235.90  1519.16  1727.80
                             1860.68  2004.78  2481.59  4357.31  5417.71

 Zero-point correction=                           0.039113 (Hartree/Particle)
 Thermal correction to Energy=                    0.044567
 Thermal correction to Enthalpy=                  0.045512
 Thermal correction to Gibbs Free Energy=         0.009384
 Sum of electronic and zero-point Energies=           -228.672183
 Sum of electronic and thermal Energies=              -228.666729
 Sum of electronic and thermal Enthalpies=            -228.665785
 Sum of electronic and thermal Free Energies=         -228.701913

                     E (Thermal)             CV                S
                      KCal/Mol        Cal/Mol-Kelvin    Cal/Mol-Kelvin
 Total                   27.967             17.288             76.038
 Electronic               0.000              0.000              2.755
 Translational            0.889              2.981             38.480
 Rotational               0.889              2.981             25.059
 Vibrational             26.189             11.326              9.744
 Vibration     1          0.602              1.956              3.655
 Vibration     2          0.630              1.863              2.298
 Vibration     3          0.758              1.492              1.002
 Vibration     4          0.782              1.428              0.894
 Vibration     5          0.827              1.317              0.738
 Vibration     6          0.883              1.187              0.591

 Normal termination of Gaussian 09 at Thu Mar  7 12:33:06 2019.
