 Gaussian 09, Revision E.01,
 Gaussian 09:  EM64L-G09RevE.01 30-Nov-2015

 ------------------------------------------------------
 #p b3lyp/6-311++G(3df,2p) freq IOp(2/17=3) IOp(2/18=3)
 ------------------------------------------------------

 ---------
 b3lyp opt
 ---------
 Symbolic Z-matrix:
 Charge = -1 Multiplicity = 4

                         Standard orientation:
 ---------------------------------------------------------------------
 Center     Atomic      Atomic             Coordinates (Angstroms)
 Number     Number       Type             X           Y           Z
 ---------------------------------------------------------------------
      1          6           0       -1.008025   -0.460653    0.042422
      2          6           0        1.700631   -0.633023    0.021031
      3          6           0        1.427625    0.782670   -0.111427
      4          6           0        0.381089   -0.293675   -0.044811
      5          1           0        1.457672    1.607005    0.614400
      6          1           0       -1.317495   -1.519180    0.163316
      7          8           0       -1.893512    0.442532   -0.027625
 ---------------------------------------------------------------------

 SCF Done:  E(UB3LYP) =  -228.711051350     A.U. after   19 cycles

 The electronic state is 4-A.
 Alpha  occ. eigenvalues --  -18.90882 -10.04439 -10.02951 -10.02781 -10.01377
 Alpha  occ. eigenvalues --   -0.81916  -0.70640  -0.50898  -0.39370  -0.32923
 Alpha  occ. eigenvalues --   -0.25809  -0.23679  -0.22749  -0.19259  -0.16077
 Alpha  occ. eigenvalues --   -0.07960  -0.07036  -0.01626   0.04087
 Alpha virt. eigenvalues --    0.12327   0.13001   0.16269   0.17253   0.18565
 Alpha virt. eigenvalues --    0.19037   0.21048   0.22144   0.22300   0.23522
 Alpha virt. eigenvalues --    0.24738   0.25060   0.25618   0.27292   0.27776

  Beta  occ. eigenvalues --  -18.89928 -10.04128 -10.02460 -10.01391  -9.99459
  Beta  occ. eigenvalues --   -0.80122  -0.68054  -0.48522  -0.35919  -0.31550
  Beta  occ. eigenvalues --   -0.23913  -0.18962  -0.17727  -0.16358  -0.10703
  Beta  occ. eigenvalues --   -0.06284
  Beta virt. eigenvalues --    0.05218   0.09798   0.12564   0.13062   0.15760
  Beta virt. eigenvalues --    0.16731   0.17779   0.18715   0.19347   0.21895
  Beta virt. eigenvalues --    0.22326   0.23373   0.23997   0.25289   0.25706

 Mulliken charges and spin densities:
               1          2
     1  C   -0.048184   0.271322
     2  C   -0.380934   1.308693
     3  C   -0.378627   0.880359
     4  C    0.444440   0.163129
     5  H    0.100453   0.057104
     6  H    0.025868   0.003637
     7  O   -0.763015   0.315755
 Sum of Mulliken charges =  -1.00000   3.00000

 Dipole moment (field-independent basis, Debye):
    X=              0.1734    Y=             -0.7418    Z=              0.8500  Tot=              1.1415
 Quadrupole moment (field-independent basis, Debye-Ang):
   XX=            -51.7906   YY=            -36.0249   ZZ=            -34.4687
   XY=              4.2840   XZ=              1.0863   YZ=              1.2485

  Exact polarizability:  99.076  -1.913  75.454  -2.047   0.341  52.585
 Approx polarizability: 139.809 -11.303 105.184  -2.447  -0.525  67.351

                      1                      2                      3
                      A                      A                      A
 Frequencies --    206.5696               243.9736               346.1757
 Red. masses --      5.3024                 4.5571                 3.5520
 Frc consts  --      0.1333                 0.1598                 0.2508
 IR Inten    --      6.1638                 6.1385                 4.8122

                      4                      5                      6
                      A                      A                      A
 Frequencies --    609.0266               677.8187               785.8030
 Red. masses --      9.0003                 5.6780                 1.5520
 Frc consts  --      1.9669                 1.5370                 0.5646
 IR Inten    --      1.2554                 6.8117                 8.5251

                      7                      8                      9
                      A                      A                      A
 Frequencies --    892.2906               944.3276              1003.7658
 Red. masses --      1.3620                 1.4037                 4.5020
 Frc consts  --      0.6389                 0.7375                 2.6725
 IR Inten    --      9.4550                16.0675                57.0857

                     10                     11                     12
                      A                      A                      A
 Frequencies --   1113.2901              1336.3136              1449.6439
 Red. masses --      8.6070                 1.4750                 3.6485
 Frc consts  --      6.2852                 1.5518                 4.5174
 IR Inten    --     15.9897                91.8654               394.0572

                     13                     14                     15
                      A                      A                      A
 Frequencies --   1641.5424              2834.4392              2895.4767
 Red. masses --     11.1470                 1.0751                 1.0840
 Frc consts  --     17.6976                 5.0891                 5.3545
 IR Inten    --      4.8409               226.3136               266.2878

 - Thermochemistry -
 -------------------
 Temperature   298.150 Kelvin.  Pressure   1.00000 Atm.
 Atom     1 has atomic number  6 and mass  12.00000

 Molecular mass:    66.01056 amu.
 Principal axes and moments of inertia in atomic units:
                           1         2         3
     Eigenvalues --    86.56833 482.41748 564.82693
           X            0.99923   0.03865   0.00611
           Y           -0.03883   0.99871   0.03275
           Z           -0.00484  -0.03296   0.99945
 This molecule is an asymmetric top.
 Rotational symmetry number  1.
 Rotational temperatures (Kelvin)      1.00053     0.17954     0.15335
 Rotational constants (GHZ):          20.84759     3.74104     3.19521
 Zero-point vibrational energy     101565.7 (Joules/Mol)
                                   24.27478 (Kcal/Mol)
 Warning -- explicit consideration of   4 degrees of freedom as
           vibrations may cause significant error
 Vibrational temperatures:    297.21   351.02   498.07   876.25   975.23
          (Kelvin)           1130.59  1283.81  1358.68  1444.19  1601.77
                             1922.65  2085.71  2361.81  4078.12  4165.94

 Zero-point correction=                           0.038684 (Hartree/Particle)
 Thermal correction to Energy=                    0.043467
 Thermal correction to Enthalpy=                  0.044411
 Thermal correction to Gibbs Free Energy=         0.010021
 Sum of electronic and zero-point Energies=           -228.672367
 Sum of electronic and thermal Energies=              -228.667584
 Sum of electronic and thermal Enthalpies=            -228.666640
 Sum of electronic and thermal Free Energies=         -228.701030

                     E (Thermal)             CV                S
                      KCal/Mol        Cal/Mol-Kelvin    Cal/Mol-Kelvin
 Total                   27.276             15.569             72.380
 Electronic               0.000              0.000              2.755
 Translational            0.889              2.981             38.480
 Rotational               0.889              2.981             24.671
 Vibrational             25.499              9.607              6.475
 Vibration     1          0.641              1.831              2.074
 Vibration     2          0.659              1.773              1.774
 Vibration     3          0.724              1.583              1.184
 Vibration     4          0.968              1.013              0.434

 Normal termination of Gaussian 09 at Thu Mar  7 12:36:36 2019.
