 Gaussian 09, Revision E.01,
 Gaussian 09:  EM64L-G09RevE.01 30-Nov-2015

 ------------------------------------------------------
 #p b3lyp/6-311++G(3df,2p) freq IOp(2/17=3) IOp(2/18=3)
 ------------------------------------------------------

 ---------
 b3lyp opt
 ---------
 Symbolic Z-matrix:
 Charge = -1 Multiplicity = 4

                         Standard orientation:
 ---------------------------------------------------------------------
 Center     Atomic      Atomic             Coordinates (Angstroms)
 Number     Number       Type             X           Y           Z
 ---------------------------------------------------------------------
      1          6           0       -0.299347   -1.131278    0.156129
      2          6           0        0.880141    0.757912    0.023004
      3          8           0        1.015736   -0.620586   -0.164748
      4          6           0       -0.541710    1.096325   -0.130321
      5          6           0       -1.251308   -0.050122    0.021763
      6          1           0        1.465330    1.148701    0.875154
      7          1           0       -2.317874   -0.221036    0.019379
 ---------------------------------------------------------------------

 SCF Done:  E(UB3LYP) =  -228.681125011     A.U. after   22 cycles

 The electronic state is 4-A.
 Alpha  occ. eigenvalues --  -18.97019 -10.04244 -10.02991  -9.99392  -9.99200
 Alpha  occ. eigenvalues --   -0.87823  -0.61140  -0.52015  -0.37783  -0.36523
 Alpha  occ. eigenvalues --   -0.30353  -0.25976  -0.21232  -0.17648  -0.12018
 Alpha  occ. eigenvalues --   -0.09355  -0.05149  -0.04244   0.05929
 Alpha virt. eigenvalues --    0.11895   0.12571   0.17535   0.18177   0.18794
 Alpha virt. eigenvalues --    0.19921   0.20153   0.21448   0.22546   0.22947
 Alpha virt. eigenvalues --    0.24090   0.24696   0.25388   0.26393   0.28065

  Beta  occ. eigenvalues --  -18.96465 -10.02961 -10.01320  -9.99323  -9.97698
  Beta  occ. eigenvalues --   -0.86133  -0.58988  -0.48468  -0.36588  -0.33327
  Beta  occ. eigenvalues --   -0.28359  -0.22989  -0.19590  -0.15435  -0.08410
  Beta  occ. eigenvalues --   -0.03062
  Beta virt. eigenvalues --    0.07136   0.08524   0.11824   0.12829   0.16526
  Beta virt. eigenvalues --    0.18309   0.18557   0.19334   0.20668   0.21921
  Beta virt. eigenvalues --    0.22195   0.22994   0.23953   0.24698   0.24871

 Mulliken charges and spin densities:
               1          2
     1  C   -0.161362   1.112331
     2  C   -0.156217   0.877715
     3  O   -0.566089   0.028797
     4  C    0.136251   0.866123
     5  C   -0.178238  -0.136389
     6  H   -0.077046   0.175600
     7  H    0.002701   0.075824
 Sum of Mulliken charges =  -1.00000   3.00000

 Dipole moment (field-independent basis, Debye):
    X=             -0.0866    Y=              0.5331    Z=             -0.1773  Tot=              0.5684
 Quadrupole moment (field-independent basis, Debye-Ang):
   XX=            -37.8316   YY=            -44.8503   ZZ=            -37.6128
   XY=              1.2464   XZ=              0.0957   YZ=              2.5846

  Exact polarizability: 125.342  13.630 144.088  35.688  -4.077 107.953
 Approx polarizability: 141.769  12.849 231.263  21.606 -16.210 109.367

                      1                      2                      3
                      A                      A                      A
 Frequencies --    354.7681               438.4363               582.0411
 Red. masses --      2.0431                 5.6304                 8.9356
 Frc consts  --      0.1515                 0.6377                 1.7835
 IR Inten    --     37.6957                12.9061               275.2548

                      4                      5                      6
                      A                      A                      A
 Frequencies --    705.4481               764.8824               780.3430
 Red. masses --      6.5325                 2.0602                 5.3424
 Frc consts  --      1.9154                 0.7102                 1.9167
 IR Inten    --     35.7347                87.9619                44.2610

                      7                      8                      9
                      A                      A                      A
 Frequencies --    818.7624               897.6891              1007.0915
 Red. masses --      1.5718                 3.6335                 6.8489
 Frc consts  --      0.6208                 1.7251                 4.0927
 IR Inten    --     11.3910                38.5330                83.5480

                     10                     11                     12
                      A                      A                      A
 Frequencies --   1050.6931              1193.3014              1265.0242
 Red. masses --      5.7191                 1.2134                 1.4534
 Frc consts  --      3.7199                 1.0180                 1.3704
 IR Inten    --     38.2221                 3.1015                27.6523

                     13                     14                     15
                      A                      A                      A
 Frequencies --   1391.1619              2823.8377              3180.7101
 Red. masses --      7.2352                 1.0820                 1.0933
 Frc consts  --      8.2500                 5.0835                 6.5170
 IR Inten    --     78.6129              1235.9056                46.7199

 - Thermochemistry -
 -------------------
 Temperature   298.150 Kelvin.  Pressure   1.00000 Atm.
 Atom     1 has atomic number  6 and mass  12.00000

 Molecular mass:    66.01056 amu.
 Principal axes and moments of inertia in atomic units:
                           1         2         3
     Eigenvalues --   162.66431 209.92245 360.80305
           X            0.98630   0.16335   0.02302
           Y           -0.16391   0.98616   0.02478
           Z           -0.01866  -0.02822   0.99943
 This molecule is an asymmetric top.
 Rotational symmetry number  1.
 Rotational temperatures (Kelvin)      0.53247     0.41260     0.24006
 Rotational constants (GHZ):          11.09488     8.59718     5.00201
 Zero-point vibrational energy     103203.0 (Joules/Mol)
                                   24.66610 (Kcal/Mol)
 Warning -- explicit consideration of   3 degrees of freedom as
           vibrations may cause significant error
 Vibrational temperatures:    510.43   630.81   837.43  1014.98  1100.49
          (Kelvin)           1122.74  1178.01  1291.57  1448.98  1511.71
                             1716.89  1820.09  2001.57  4062.87  4576.33

 Zero-point correction=                           0.039308 (Hartree/Particle)
 Thermal correction to Energy=                    0.043456
 Thermal correction to Enthalpy=                  0.044400
 Thermal correction to Gibbs Free Energy=         0.011581
 Sum of electronic and zero-point Energies=           -228.641817
 Sum of electronic and thermal Energies=              -228.637669
 Sum of electronic and thermal Enthalpies=            -228.636725
 Sum of electronic and thermal Free Energies=         -228.669544

                     E (Thermal)             CV                S
                      KCal/Mol        Cal/Mol-Kelvin    Cal/Mol-Kelvin
 Total                   27.269             14.499             69.073
 Electronic               0.000              0.000              2.755
 Translational            0.889              2.981             38.480
 Rotational               0.889              2.981             24.025
 Vibrational             25.492              8.538              3.813
 Vibration     1          0.731              1.565              1.145
 Vibration     2          0.799              1.386              0.832
 Vibration     3          0.939              1.070              0.482

 Optimization completed.
    -- Stationary point found.
 Normal termination of Gaussian 09 at Thu Mar  7 13:19:35 2019.
