 Gaussian 09, Revision E.01,
 Gaussian 09:  EM64L-G09RevE.01 30-Nov-2015

 ------------------------------------------------------
 #p b3lyp/6-311++G(3df,2p) freq IOp(2/17=3) IOp(2/18=3)
 ------------------------------------------------------

 ---------
 b3lyp opt
 ---------
 Symbolic Z-matrix:
 Charge = -1 Multiplicity = 2

                         Standard orientation:
 ---------------------------------------------------------------------
 Center     Atomic      Atomic             Coordinates (Angstroms)
 Number     Number       Type             X           Y           Z
 ---------------------------------------------------------------------
      1          6           0       -0.638156    0.952796    0.000000
      2          6           0        0.550517   -2.730513   -0.000000
      3          6           0       -0.021284   -0.200456   -0.000000
      4          6           0        0.237186   -1.498002   -0.000000
      5          1           0        0.945213    2.024322    0.000000
      6          1           0       -1.714797    1.101940    0.000000
      7          8           0       -0.000000    2.216347    0.000000
 ---------------------------------------------------------------------

 SCF Done:  E(UB3LYP) =  -228.796642531     A.U. after   19 cycles

 The electronic state is 2-A'.
 Alpha  occ. eigenvalues --  -18.99988 -10.06457 -10.01092  -9.97074  -9.96809
 Alpha  occ. eigenvalues --   -0.89443  -0.61279  -0.53957  -0.45435  -0.38830
 Alpha  occ. eigenvalues --   -0.31351  -0.24545  -0.23558  -0.14247  -0.14182
 Alpha  occ. eigenvalues --   -0.08257  -0.03745  -0.01197
 Alpha virt. eigenvalues --    0.10979   0.11721   0.14908   0.16692   0.18584
 Alpha virt. eigenvalues --    0.18821   0.19603   0.20189   0.20858   0.22593
 Alpha virt. eigenvalues --    0.23555   0.23728   0.25284   0.26390   0.27965

  Beta  occ. eigenvalues --  -18.99868 -10.06586 -10.00301  -9.97213  -9.96080
  Beta  occ. eigenvalues --   -0.89138  -0.60025  -0.53097  -0.44249  -0.38225
  Beta  occ. eigenvalues --   -0.30613  -0.24124  -0.23602  -0.13862  -0.10999
  Beta  occ. eigenvalues --   -0.06889  -0.03422
  Beta virt. eigenvalues --    0.07904   0.11671   0.11915   0.15284   0.16720
  Beta virt. eigenvalues --    0.18644   0.18731   0.19735   0.20261   0.20891
  Beta virt. eigenvalues --    0.22668   0.23984   0.24112   0.26062   0.26563

 Mulliken charges and spin densities:
               1          2
     1  C    0.112174  -0.209576
     2  C   -0.974665   0.536521
     3  C   -0.239919   0.662518
     4  C    0.389662  -0.099405
     5  H    0.206069   0.041298
     6  H    0.109839   0.067612
     7  O   -0.603162   0.001033
 Sum of Mulliken charges =  -1.00000   1.00000

 Dipole moment (field-independent basis, Debye):
    X=             -1.0918    Y=              7.2497    Z=              0.0000  Tot=              7.3315
 Quadrupole moment (field-independent basis, Debye-Ang):
   XX=            -32.6063   YY=            -69.9906   ZZ=            -35.0256
   XY=              8.2587   XZ=             -0.0000   YZ=             -0.0000

  Exact polarizability:  65.965 -16.808 148.511   0.000   0.000  48.326
 Approx polarizability:  91.540 -38.177 240.551  -0.000   0.000  65.607

                      1                      2                      3
                     A'                     A"                     A'
 Frequencies --     90.2209               191.8998               388.4823
 Red. masses --      7.3662                 6.9438                10.6162
 Frc consts  --      0.0353                 0.1507                 0.9440
 IR Inten    --      6.1289                 6.9161                 5.5156

                      4                      5                      6
                     A"                     A"                     A'
 Frequencies --    416.7779               473.8098               484.6121
 Red. masses --      1.2381                 7.9134                 5.3155
 Frc consts  --      0.1267                 1.0467                 0.7355
 IR Inten    --     72.2020                 3.9677                12.6268

                      7                      8                      9
                     A"                     A'                     A'
 Frequencies --    719.5427               857.0141              1042.5417
 Red. masses --      1.6320                 5.7360                 6.8625
 Frc consts  --      0.4978                 2.4822                 4.3946
 IR Inten    --     29.4092                96.5019               263.5519

                     10                     11                     12
                     A'                     A'                     A'
 Frequencies --   1213.5718              1363.4751              1713.3953
 Red. masses --      1.2021                 1.2248                 9.8770
 Frc consts  --      1.0431                 1.3415                17.0841
 IR Inten    --     10.1548                73.0651               103.8723

                     13                     14                     15
                     A'                     A'                     A'
 Frequencies --   1952.3166              3089.8974              3772.4730
 Red. masses --     11.6945                 1.0849                 1.0647
 Frc consts  --     26.2623                 6.1027                 8.9274
 IR Inten    --     22.2513                83.8954                 6.7279

 - Thermochemistry -
 -------------------
 Temperature   298.150 Kelvin.  Pressure   1.00000 Atm.
 Atom     1 has atomic number  6 and mass  12.00000

 Molecular mass:    66.01056 amu.
 Principal axes and moments of inertia in atomic units:
                           1         2         3
     Eigenvalues --    31.32353 770.76972 802.09325
           X           -0.14390   0.98959   0.00000
           Y            0.98959   0.14390   0.00000
           Z           -0.00000  -0.00000   1.00000
 This molecule is an asymmetric top.
 Rotational symmetry number  1.
 Rotational temperatures (Kelvin)      2.76514     0.11237     0.10798
 Rotational constants (GHZ):          57.61614     2.34148     2.25004
 Zero-point vibrational energy     106288.4 (Joules/Mol)
                                   25.40353 (Kcal/Mol)
 Warning -- explicit consideration of   6 degrees of freedom as
           vibrations may cause significant error
 Vibrational temperatures:    129.81   276.10   558.94   599.65   681.71
          (Kelvin)            697.25  1035.26  1233.05  1499.98  1746.06
                             1961.73  2465.19  2808.94  4445.67  5427.74

 Zero-point correction=                           0.040483 (Hartree/Particle)
 Thermal correction to Energy=                    0.045964
 Thermal correction to Enthalpy=                  0.046908
 Thermal correction to Gibbs Free Energy=         0.011689
 Sum of electronic and zero-point Energies=           -228.756159
 Sum of electronic and thermal Energies=              -228.750679
 Sum of electronic and thermal Enthalpies=            -228.749735
 Sum of electronic and thermal Free Energies=         -228.784954

                     E (Thermal)             CV                S
                      KCal/Mol        Cal/Mol-Kelvin    Cal/Mol-Kelvin
 Total                   28.843             17.342             74.125
 Electronic               0.000              0.000              1.377
 Translational            0.889              2.981             38.480
 Rotational               0.889              2.981             24.475
 Vibrational             27.065             11.380              9.793
 Vibration     1          0.602              1.956              3.655
 Vibration     2          0.634              1.851              2.209
 Vibration     3          0.757              1.495              1.006
 Vibration     4          0.780              1.434              0.903
 Vibration     5          0.831              1.308              0.727
 Vibration     6          0.841              1.284              0.698

 Normal termination of Gaussian 09 at Thu Mar  7 11:16:12 2019.
