 Gaussian 09, Revision E.01,
 Gaussian 09:  EM64L-G09RevE.01 30-Nov-2015

 ------------------------------------------------------
 #p b3lyp/6-311++G(3df,2p) freq IOp(2/17=3) IOp(2/18=3)
 ------------------------------------------------------

 ---------
 b3lyp opt
 ---------
 Symbolic Z-matrix:
 Charge = -1 Multiplicity = 2

                         Standard orientation:
 ---------------------------------------------------------------------
 Center     Atomic      Atomic             Coordinates (Angstroms)
 Number     Number       Type             X           Y           Z
 ---------------------------------------------------------------------
      1          6           0        0.000000    1.054211    0.000000
      2          6           0       -0.659231   -1.109919    0.000000
      3          8           0       -1.106997    0.253370    0.000000
      4          6           0        0.666461   -1.050627   -0.000000
      5          6           0        1.138660    0.300298   -0.000000
      6          1           0       -0.167857    2.122862    0.000000
      7          1           0        2.148490    0.686395   -0.000000
 ---------------------------------------------------------------------

 SCF Done:  E(UB3LYP) =  -228.780314651     A.U. after   20 cycles

 The electronic state is 2-A'.
 Alpha  occ. eigenvalues --  -18.98201 -10.02999  -9.99289  -9.97224  -9.96076
 Alpha  occ. eigenvalues --   -0.88444  -0.59696  -0.52358  -0.38435  -0.34026
 Alpha  occ. eigenvalues --   -0.31420  -0.23887  -0.22832  -0.17949  -0.08783
 Alpha  occ. eigenvalues --   -0.06100  -0.02699  -0.01984
 Alpha virt. eigenvalues --    0.10971   0.12560   0.17648   0.17685   0.19009
 Alpha virt. eigenvalues --    0.19896   0.20221   0.22281   0.23344   0.23507
 Alpha virt. eigenvalues --    0.23768   0.24172   0.24930   0.25030   0.25167

  Beta  occ. eigenvalues --  -18.97916 -10.02963  -9.99120  -9.96788  -9.94830
  Beta  occ. eigenvalues --   -0.87832  -0.58764  -0.51607  -0.37891  -0.33041
  Beta  occ. eigenvalues --   -0.30220  -0.23645  -0.22182  -0.17219  -0.08226
  Beta  occ. eigenvalues --   -0.01988  -0.01047
  Beta virt. eigenvalues --    0.08806   0.10987   0.12733   0.17742   0.17954
  Beta virt. eigenvalues --    0.19491   0.19920   0.20543   0.22388   0.23394
  Beta virt. eigenvalues --    0.23511   0.24256   0.24315   0.24992   0.25230

 Mulliken charges and spin densities:
               1          2
     1  C   -0.027651   0.046286
     2  C   -0.597376   0.094654
     3  O   -0.581384   0.042976
     4  C    0.236771   0.919356
     5  C   -0.256140  -0.100390
     6  H    0.114245  -0.001946
     7  H    0.111534  -0.000937
 Sum of Mulliken charges =  -1.00000   1.00000

 Dipole moment (field-independent basis, Debye):
    X=              1.7398    Y=              4.6475    Z=              0.0000  Tot=              4.9625
 Quadrupole moment (field-independent basis, Debye-Ang):
   XX=            -39.0964   YY=            -42.1133   ZZ=            -35.4689
   XY=             -1.9235   XZ=              0.0000   YZ=             -0.0000

  Exact polarizability:  95.506   4.706  87.230   0.000  -0.000  51.690
 Approx polarizability: 144.071   3.240 121.952  -0.000   0.000  69.917

                      1                      2                      3
                     A"                     A'                     A"
 Frequencies --    399.9831               409.5966               602.9393
 Red. masses --     10.4643                11.4242                 3.3229
 Frc consts  --      0.9864                 1.1292                 0.7117
 IR Inten    --      0.1716               549.1168                 2.0641

                      4                      5                      6
                     A"                     A"                     A'
 Frequencies --    664.9136               790.1708               807.5670
 Red. masses --      1.3629                 1.2482                 8.0036
 Frc consts  --      0.3550                 0.4592                 3.0753
 IR Inten    --     63.5711                 5.6416                 3.5371

                      7                      8                      9
                     A'                     A'                     A'
 Frequencies --    883.4762              1010.4929              1097.0484
 Red. masses --      7.2761                 2.1521                 1.9806
 Frc consts  --      3.3461                 1.2948                 1.4045
 IR Inten    --     10.4216                29.4080                16.8578

                     10                     11                     12
                     A'                     A'                     A'
 Frequencies --   1123.8299              1321.2611              1411.5899
 Red. masses --      2.6109                 1.9852                 6.4475
 Frc consts  --      1.9429                 2.0419                 7.5694
 IR Inten    --     17.9149                20.7574                44.1748

                     13                     14                     15
                     A'                     A'                     A'
 Frequencies --   1522.5158              3158.3726              3184.0263
 Red. masses --      5.3814                 1.0841                 1.1022
 Frc consts  --      7.3498                 6.3718                 6.5834
 IR Inten    --     69.7240                28.3241               105.1699

 - Thermochemistry -
 -------------------
 Temperature   298.150 Kelvin.  Pressure   1.00000 Atm.
 Atom     1 has atomic number  6 and mass  12.00000

 Molecular mass:    66.01056 amu.
 Principal axes and moments of inertia in atomic units:
                           1         2         3
     Eigenvalues --   171.13826 181.32514 352.46340
           X            0.91786  -0.39691   0.00000
           Y            0.39691   0.91786   0.00000
           Z            0.00000  -0.00000   1.00000
 This molecule is an asymmetric top.
 Rotational symmetry number  1.
 Rotational temperatures (Kelvin)      0.50610     0.47767     0.24574
 Rotational constants (GHZ):          10.54552     9.95307     5.12036
 Zero-point vibrational energy     109983.4 (Joules/Mol)
                                   26.28666 (Kcal/Mol)
 Warning -- explicit consideration of   3 degrees of freedom as
           vibrations may cause significant error
 Vibrational temperatures:    575.49   589.32   867.49   956.66  1136.88
          (Kelvin)           1161.91  1271.12  1453.87  1578.41  1616.94
                             1901.00  2030.96  2190.56  4544.19  4581.10

 Zero-point correction=                           0.041890 (Hartree/Particle)
 Thermal correction to Energy=                    0.045939
 Thermal correction to Enthalpy=                  0.046883
 Thermal correction to Gibbs Free Energy=         0.014917
 Sum of electronic and zero-point Energies=           -228.738424
 Sum of electronic and thermal Energies=              -228.734376
 Sum of electronic and thermal Enthalpies=            -228.733432
 Sum of electronic and thermal Free Energies=         -228.765398

                     E (Thermal)             CV                S
                      KCal/Mol        Cal/Mol-Kelvin    Cal/Mol-Kelvin
 Total                   28.827             13.851             67.278
 Electronic               0.000              0.000              1.377
 Translational            0.889              2.981             38.480
 Rotational               0.889              2.981             23.907
 Vibrational             27.049              7.889              3.514
 Vibration     1          0.766              1.470              0.963
 Vibration     2          0.774              1.449              0.928
 Vibration     3          0.961              1.026              0.445

 Normal termination of Gaussian 09 at Thu Mar  7 21:10:16 2019.
