 Gaussian 09, Revision E.01,
 Gaussian 09:  EM64L-G09RevE.01 30-Nov-2015

 ------------------------------------------------------
 #p b3lyp/6-311++G(3df,2p) freq IOp(2/17=3) IOp(2/18=3)
 ------------------------------------------------------

 ---------
 b3lyp opt
 ---------
 Symbolic Z-matrix:
 Charge = -1 Multiplicity = 2

                         Standard orientation:
 ---------------------------------------------------------------------
 Center     Atomic      Atomic             Coordinates (Angstroms)
 Number     Number       Type             X           Y           Z
 ---------------------------------------------------------------------
      1          6           0        1.140027    0.329220    0.000000
      2          6           0       -1.086212    0.307981   -0.000000
      3          8           0        0.000000    1.145602    0.000000
      4          6           0       -0.687719   -0.991677   -0.000000
      5          6           0        0.741271   -0.996157   -0.000000
      6          1           0       -2.058250    0.776728   -0.000000
      7          1           0        1.414050   -1.837755   -0.000000
 ---------------------------------------------------------------------

 SCF Done:  E(UB3LYP) =  -228.785409656     A.U. after   19 cycles

 The electronic state is 2-A'.
 Alpha  occ. eigenvalues --  -18.98205 -10.01635 -10.00474  -9.97929  -9.97028
 Alpha  occ. eigenvalues --   -0.89243  -0.59342  -0.52412  -0.38268  -0.33799
 Alpha  occ. eigenvalues --   -0.30739  -0.24153  -0.21206  -0.18466  -0.08326
 Alpha  occ. eigenvalues --   -0.07278  -0.03105  -0.02581
 Alpha virt. eigenvalues --    0.11963   0.12806   0.17721   0.18087   0.18539
 Alpha virt. eigenvalues --    0.19659   0.20781   0.22921   0.23031   0.23063
 Alpha virt. eigenvalues --    0.23888   0.24611   0.25252   0.25266   0.26263

  Beta  occ. eigenvalues --  -18.98117 -10.01562  -9.99883  -9.96972  -9.96922
  Beta  occ. eigenvalues --   -0.88793  -0.58164  -0.51611  -0.37695  -0.32828
  Beta  occ. eigenvalues --   -0.29739  -0.24012  -0.20757  -0.17881  -0.07916
  Beta  occ. eigenvalues --   -0.02201  -0.01544
  Beta virt. eigenvalues --    0.06957   0.12010   0.12873   0.18334   0.18439
  Beta virt. eigenvalues --    0.18767   0.19826   0.20895   0.22963   0.23067
  Beta virt. eigenvalues --    0.23405   0.23984   0.24725   0.25316   0.25588

 Mulliken charges and spin densities:
               1          2
     1  C   -0.221020   0.477373
     2  C   -0.125020  -0.062035
     3  O   -0.571835  -0.007626
     4  C   -0.053060   0.780908
     5  C   -0.228455  -0.171291
     6  H    0.123457   0.003933
     7  H    0.075932  -0.021262
 Sum of Mulliken charges =  -1.00000   1.00000

 Dipole moment (field-independent basis, Debye):
    X=             -1.6806    Y=              0.4343    Z=              0.0000  Tot=              1.7358
 Quadrupole moment (field-independent basis, Debye-Ang):
   XX=            -40.9646   YY=            -39.2057   ZZ=            -35.5179
   XY=             -5.4114   XZ=             -0.0000   YZ=             -0.0000

  Exact polarizability: 133.868  40.707  97.562   0.000   0.000  54.667
 Approx polarizability: 200.901  67.932 160.223   0.000   0.000  72.583

                      1                      2                      3
                     A"                     A"                     A"
 Frequencies --    493.4705               623.6657               663.9033
 Red. masses --     10.1781                 4.5427                 1.3418
 Frc consts  --      1.4603                 1.0410                 0.3485
 IR Inten    --     28.8599                 5.3451                42.1573

                      4                      5                      6
                     A'                     A"                     A'
 Frequencies --    675.6973               752.8225               826.9183
 Red. masses --      8.0986                 1.1439                 7.9206
 Frc consts  --      2.1785                 0.3820                 3.1911
 IR Inten    --    958.7346                16.4714                20.3501

                      7                      8                      9
                     A'                     A'                     A'
 Frequencies --    914.0366              1049.3779              1062.2439
 Red. masses --      7.0162                 3.7248                 5.3593
 Frc consts  --      3.4537                 2.4167                 3.5629
 IR Inten    --     34.2371                48.4274                23.0080

                     10                     11                     12
                     A'                     A'                     A'
 Frequencies --   1185.5169              1235.3834              1305.4989
 Red. masses --      1.3928                 2.1858                 3.1564
 Frc consts  --      1.1533                 1.9654                 3.1695
 IR Inten    --     23.9903                41.0569                18.8337

                     13                     14                     15
                     A'                     A'                     A'
 Frequencies --   1491.2205              3194.8335              3211.9312
 Red. masses --      4.8861                 1.0915                 1.0934
 Frc consts  --      6.4017                 6.5643                 6.6462
 IR Inten    --     20.8183                65.0494                19.6190

 - Thermochemistry -
 -------------------
 Temperature   298.150 Kelvin.  Pressure   1.00000 Atm.
 Atom     1 has atomic number  6 and mass  12.00000

 Molecular mass:    66.01056 amu.
 Principal axes and moments of inertia in atomic units:
                           1         2         3
     Eigenvalues --   160.94575 194.14995 355.09570
           X           -0.58963   0.80767   0.00000
           Y            0.80767   0.58963   0.00000
           Z           -0.00000  -0.00000   1.00000
 This molecule is an asymmetric top.
 Rotational symmetry number  1.
 Rotational temperatures (Kelvin)      0.53816     0.44612     0.24392
 Rotational constants (GHZ):          11.21335     9.29560     5.08241
 Zero-point vibrational energy     111770.2 (Joules/Mol)
                                   26.71372 (Kcal/Mol)
 Warning -- explicit consideration of   1 degrees of freedom as
           vibrations may cause significant error
 Vibrational temperatures:    709.99   897.31   955.21   972.18  1083.14
          (Kelvin)           1189.75  1315.09  1509.82  1528.33  1705.69
                             1777.44  1878.32  2145.53  4596.65  4621.25

 Zero-point correction=                           0.042571 (Hartree/Particle)
 Thermal correction to Energy=                    0.046354
 Thermal correction to Enthalpy=                  0.047298
 Thermal correction to Gibbs Free Energy=         0.015755
 Sum of electronic and zero-point Energies=           -228.742839
 Sum of electronic and thermal Energies=              -228.739056
 Sum of electronic and thermal Enthalpies=            -228.738112
 Sum of electronic and thermal Free Energies=         -228.769655

                     E (Thermal)             CV                S
                      KCal/Mol        Cal/Mol-Kelvin    Cal/Mol-Kelvin
 Total                   29.087             13.065             66.388
 Electronic               0.000              0.000              1.377
 Translational            0.889              2.981             38.480
 Rotational               0.889              2.981             23.921
 Vibrational             27.310              7.103              2.609
 Vibration     1          0.849              1.265              0.675

 Normal termination of Gaussian 09 at Thu Mar  7 11:51:15 2019.
