 Gaussian 09, Revision E.01,
 Gaussian 09:  EM64L-G09RevE.01 30-Nov-2015

 ------------------------------------------------------
 #p b3lyp/6-311++G(3df,2p) freq IOp(2/17=3) IOp(2/18=3)
 ------------------------------------------------------

 ---------
 b3lyp opt
 ---------
 Symbolic Z-matrix:
 Charge = -1 Multiplicity = 2

                         Standard orientation:
 ---------------------------------------------------------------------
 Center     Atomic      Atomic             Coordinates (Angstroms)
 Number     Number       Type             X           Y           Z
 ---------------------------------------------------------------------
      1          6           0        0.011058   -0.552438    0.000000
      2          1           0       -0.077405   -1.145433    0.933258
      3          1           0       -0.077405   -1.145433   -0.933258
      4          8           0        0.011058    0.700676   -0.000000
 ---------------------------------------------------------------------

 SCF Done:  E(UB3LYP) =  -114.527916555     A.U. after   25 cycles

 The electronic state is 2-A'.
 Alpha  occ. eigenvalues --  -18.89565 -10.01956  -0.80346  -0.41252  -0.25651
 Alpha  occ. eigenvalues --   -0.22016  -0.17277  -0.04904   0.08572
 Alpha virt. eigenvalues --    0.12071   0.13468   0.17928   0.20990   0.24376
 Alpha virt. eigenvalues --    0.24426   0.30809   0.34277   0.35459   0.37836
 Alpha virt. eigenvalues --    0.40195   0.43278   0.49232   0.53299   0.55302

  Beta  occ. eigenvalues --  -18.88935 -10.01479  -0.79156  -0.39719  -0.25246
  Beta  occ. eigenvalues --   -0.21260  -0.13861  -0.04392
  Beta virt. eigenvalues --    0.12730   0.14659   0.16141   0.18006   0.22919
  Beta virt. eigenvalues --    0.24299   0.25269   0.31518   0.34287   0.35773
  Beta virt. eigenvalues --    0.38122   0.40525   0.43251   0.49885   0.53525

 Mulliken charges and spin densities:
               1          2
     1  C    0.623180  -0.234069
     2  H   -0.481918   0.524177
     3  H   -0.481918   0.524177
     4  O   -0.659345   0.185715
 Sum of Mulliken charges =  -1.00000   1.00000

 Dipole moment (field-independent basis, Debye):
    X=              2.2717    Y=              2.3766    Z=              0.0000  Tot=              3.2877
 Quadrupole moment (field-independent basis, Debye-Ang):
   XX=            -22.5117   YY=            -29.9842   ZZ=            -25.5487
   XY=             -4.1489   XZ=             -0.0000   YZ=             -0.0000

  Exact polarizability:  78.330  42.604 329.294  -0.000  -0.000 950.084
 Approx polarizability:  80.414  48.226 228.069   0.000   0.000 331.014

                      1                      2                      3
                     A'                     A"                     A'
 Frequencies --    655.8656              1172.4288              1184.5141
 Red. masses --      1.3879                 1.3314                 4.8332
 Frc consts  --      0.3518                 1.0783                 3.9954
 IR Inten    --   1159.6906              1272.2763              8714.1497

                      4                      5                      6
                     A'                     A'                     A"
 Frequencies --   1528.9095              2805.8176              2846.4541
 Red. masses --      1.1877                 1.0390                 1.1143
 Frc consts  --      1.6358                 4.8191                 5.3194
 IR Inten    --   1532.3743               168.4385               629.0168

 - Thermochemistry -
 -------------------
 Temperature   298.150 Kelvin.  Pressure   1.00000 Atm.
 Atom     1 has atomic number  6 and mass  12.00000

 Molecular mass:    30.01056 amu.
 Principal axes and moments of inertia in atomic units:
                           1         2         3
     Eigenvalues --     6.30969  50.00422  56.23304
           X            0.01558   0.00000   0.99988
           Y            0.99988   0.00000  -0.01558
           Z           -0.00000   1.00000  -0.00000
 This molecule is an asymmetric top.
 Rotational symmetry number  1.
 Rotational temperatures (Kelvin)     13.72712     1.73213     1.54027
 Rotational constants (GHZ):         286.02701    36.09178    32.09397
 Zero-point vibrational energy      60973.6 (Joules/Mol)
                                   14.57304 (Kcal/Mol)
 Vibrational temperatures:    943.64  1686.86  1704.25  2199.76  4036.94
          (Kelvin)           4095.41

 Zero-point correction=                           0.023224 (Hartree/Particle)
 Thermal correction to Energy=                    0.026229
 Thermal correction to Enthalpy=                  0.027173
 Thermal correction to Gibbs Free Energy=         0.000805
 Sum of electronic and zero-point Energies=           -114.504693
 Sum of electronic and thermal Energies=              -114.501688
 Sum of electronic and thermal Enthalpies=            -114.500744
 Sum of electronic and thermal Free Energies=         -114.527111

                     E (Thermal)             CV                S
                      KCal/Mol        Cal/Mol-Kelvin    Cal/Mol-Kelvin
 Total                   16.459              7.385             55.496
 Electronic               0.000              0.000              1.377
 Translational            0.889              2.981             36.130
 Rotational               0.889              2.981             17.524
 Vibrational             14.681              1.423              0.464

 Optimization completed.
    -- Stationary point found.
 Normal termination of Gaussian 09 at Thu Mar  7 13:25:51 2019.
