 Gaussian 09, Revision E.01,
 Gaussian 09:  EM64L-G09RevE.01 30-Nov-2015

 ------------------------------------------------------
 #p b3lyp/6-311++G(3df,2p) freq IOp(2/17=3) IOp(2/18=3)
 ------------------------------------------------------

 ---------
 b3lyp opt
 ---------
 Symbolic Z-matrix:
 Charge = -1 Multiplicity = 2

                         Standard orientation:
 ---------------------------------------------------------------------
 Center     Atomic      Atomic             Coordinates (Angstroms)
 Number     Number       Type             X           Y           Z
 ---------------------------------------------------------------------
      1          6           0        1.088190   -0.000160    0.028143
      2          1           0       -0.979221    0.787318    0.341984
      3          1           0       -0.981695   -0.786450    0.342315
      4          8           0       -0.571028    0.000011   -0.106645
 ---------------------------------------------------------------------

 SCF Done:  E(UB3LYP) =  -114.337997628     A.U. after   24 cycles

 The electronic state is 2-A.
 Alpha  occ. eigenvalues --  -19.04129 -10.04195  -0.91580  -0.43753  -0.41930
 Alpha  occ. eigenvalues --   -0.27386  -0.19644  -0.03238  -0.02132
 Alpha virt. eigenvalues --    0.11101   0.14800   0.16599   0.19836   0.20816
 Alpha virt. eigenvalues --    0.22149   0.25444   0.27943   0.28774   0.31741
 Alpha virt. eigenvalues --    0.34820   0.35392   0.43201   0.52076   0.52685

  Beta  occ. eigenvalues --  -19.04281 -10.01578  -0.91799  -0.41865  -0.39811
  Beta  occ. eigenvalues --   -0.25694  -0.15011   0.05555
  Beta virt. eigenvalues --    0.11758   0.13266   0.13376   0.17369   0.20336
  Beta virt. eigenvalues --    0.22728   0.24630   0.25657   0.27538   0.28607
  Beta virt. eigenvalues --    0.31368   0.34596   0.34722   0.43046   0.54662

 Mulliken charges and spin densities:
               1          2
     1  C    0.041662   2.443302
     2  H   -0.539500  -0.868407
     3  H   -0.540913  -0.870207
     4  O    0.038750   0.295312
 Sum of Mulliken charges =  -1.00000   1.00000

 Dipole moment (field-independent basis, Debye):
    X=              2.1774    Y=              0.0029    Z=             -1.4417  Tot=              2.6115
 Quadrupole moment (field-independent basis, Debye-Ang):
   XX=            -37.7120   YY=            -27.0005   ZZ=            -26.5989
   XY=             -0.0067   XZ=              2.9407   YZ=              0.0030

  Exact polarizability: 103.218   0.314 374.924  -8.572  -0.033  66.413
 Approx polarizability:  94.450   0.282 343.250  -5.557  -0.029  66.776

                      1                      2                      3
                      A                      A                      A
 Frequencies --    423.7104               628.7517               691.8320
 Red. masses --     10.3285                 1.1919                 1.1081
 Frc consts  --      1.0925                 0.2776                 0.3125
 IR Inten    --     71.3127               273.7077                35.7965

                      4                      5                      6
                      A                      A                      A
 Frequencies --   1464.8044              3050.8703              3183.5620
 Red. masses --      1.0786                 1.0902                 1.0438
 Frc consts  --      1.3635                 5.9788                 6.2327
 IR Inten    --    100.9716              4042.6472              1377.0815

 - Thermochemistry -
 -------------------
 Temperature   298.150 Kelvin.  Pressure   1.00000 Atm.
 Atom     1 has atomic number  6 and mass  12.00000

 Molecular mass:    30.01056 amu.
 Principal axes and moments of inertia in atomic units:
                           1         2         3
     Eigenvalues --     5.84216  77.30850  80.38018
           X            0.99942   0.00005  -0.03401
           Y           -0.00005   1.00000   0.00002
           Z            0.03401  -0.00002   0.99942
 This molecule is an asymmetric top.
 Rotational symmetry number  1.
 Rotational temperatures (Kelvin)     14.82566     1.12037     1.07755
 Rotational constants (GHZ):         308.91693    23.34467    22.45256
 Zero-point vibrational energy      56484.9 (Joules/Mol)
                                   13.50020 (Kcal/Mol)
 Warning -- explicit consideration of   1 degrees of freedom as
           vibrations may cause significant error
 Vibrational temperatures:    609.62   904.63   995.39  2107.52  4389.52
          (Kelvin)           4580.43

 Zero-point correction=                           0.021514 (Hartree/Particle)
 Thermal correction to Energy=                    0.024900
 Thermal correction to Enthalpy=                  0.025844
 Thermal correction to Gibbs Free Energy=        -0.001407
 Sum of electronic and zero-point Energies=           -114.316484
 Sum of electronic and thermal Energies=              -114.313098
 Sum of electronic and thermal Enthalpies=            -114.312153
 Sum of electronic and thermal Free Energies=         -114.339405

                     E (Thermal)             CV                S
                      KCal/Mol        Cal/Mol-Kelvin    Cal/Mol-Kelvin
 Total                   15.625              9.282             57.355
 Electronic               0.000              0.000              1.377
 Translational            0.889              2.981             36.130
 Rotational               0.889              2.981             18.235
 Vibrational             13.848              3.320              1.612
 Vibration     1          0.786              1.419              0.879

 Optimization completed.
    -- Stationary point found.
 Normal termination of Gaussian 09 at Thu Mar  7 13:26:54 2019.
