 Gaussian 09, Revision E.01,
 Gaussian 09:  EM64L-G09RevE.01 30-Nov-2015

 ------------------------------------------------------
 #p b3lyp/6-311++G(3df,2p) freq IOp(2/17=3) IOp(2/18=3)
 ------------------------------------------------------

 ---------
 b3lyp opt
 ---------
 Symbolic Z-matrix:
 Charge = -1 Multiplicity = 2

                         Standard orientation:
 ---------------------------------------------------------------------
 Center     Atomic      Atomic             Coordinates (Angstroms)
 Number     Number       Type             X           Y           Z
 ---------------------------------------------------------------------
      1          6           0        0.124709    0.825349   -0.000000
      2          1           0       -0.966182    1.109485   -0.000000
      3          1           0       -0.779741   -0.969261    0.000000
      4          8           0        0.124709   -0.636540    0.000000
 ---------------------------------------------------------------------

 SCF Done:  E(UB3LYP) =  -114.449683585     A.U. after   15 cycles

 The electronic state is 2-A".
 Alpha  occ. eigenvalues --  -18.91840  -9.94725  -0.79560  -0.38208  -0.26806
 Alpha  occ. eigenvalues --   -0.14143  -0.13467   0.01457   0.08380
 Alpha virt. eigenvalues --    0.12739   0.15535   0.22294   0.23042   0.23059
 Alpha virt. eigenvalues --    0.27125   0.29998   0.34327   0.35556   0.36590
 Alpha virt. eigenvalues --    0.42786   0.44423   0.50152   0.53625   0.60906

  Beta  occ. eigenvalues --  -18.91448  -9.93599  -0.78676  -0.36082  -0.25980
  Beta  occ. eigenvalues --   -0.12795  -0.11289   0.03270
  Beta virt. eigenvalues --    0.12709   0.15511   0.18672   0.22395   0.23157
  Beta virt. eigenvalues --    0.27306   0.27799   0.30206   0.34587   0.35896
  Beta virt. eigenvalues --    0.36812   0.43002   0.44902   0.50686   0.55169

 Mulliken charges and spin densities:
               1          2
     1  C   -0.788189   1.031762
     2  H    0.069356  -0.031213
     3  H    0.139257  -0.016522
     4  O   -0.420423   0.015973
 Sum of Mulliken charges =  -1.00000   1.00000

 Dipole moment (field-independent basis, Debye):
    X=             -3.0692    Y=             -3.9913    Z=              0.0000  Tot=              5.0349
 Quadrupole moment (field-independent basis, Debye-Ang):
   XX=            -18.4122   YY=            -23.5119   ZZ=            -20.4106
   XY=             -0.8302   XZ=              0.0000   YZ=              0.0000

  Exact polarizability:  49.350   3.284  48.591   0.000   0.000 103.359
 Approx polarizability:  55.310   1.659  53.947  -0.000  -0.000  63.471

                      1                      2                      3
                     A"                     A'                     A'
 Frequencies --    386.0124               805.2149              1073.6391
 Red. masses --      1.1425                10.3106                 1.0431
 Frc consts  --      0.1003                 3.9387                 0.7084
 IR Inten    --      1.4458               114.9228                 7.4365

                      4                      5                      6
                     A'                     A'                     A'
 Frequencies --   1327.7179              2600.2093              3703.2196
 Red. masses --      1.2316                 1.0856                 1.0668
 Frc consts  --      1.2791                 4.3245                 8.6201
 IR Inten    --     21.8885               793.2898               154.8864

 - Thermochemistry -
 -------------------
 Temperature   298.150 Kelvin.  Pressure   1.00000 Atm.
 Atom     1 has atomic number  6 and mass  12.00000

 Molecular mass:    30.01056 amu.
 Principal axes and moments of inertia in atomic units:
                           1         2         3
     Eigenvalues --     6.71739  60.17257  66.88996
           X           -0.02308   0.99973  -0.00000
           Y            0.99973   0.02308   0.00000
           Z           -0.00000   0.00000   1.00000
 This molecule is an asymmetric top.
 Rotational symmetry number  1.
 Rotational temperatures (Kelvin)     12.89396     1.43942     1.29487
 Rotational constants (GHZ):         268.66693    29.99276    26.98075
 Zero-point vibrational energy      59191.3 (Joules/Mol)
                                   14.14706 (Kcal/Mol)
 Warning -- explicit consideration of   1 degrees of freedom as
           vibrations may cause significant error
 Vibrational temperatures:    555.39  1158.52  1544.73  1910.29  3741.12
          (Kelvin)           5328.10

 Zero-point correction=                           0.022545 (Hartree/Particle)
 Thermal correction to Energy=                    0.025815
 Thermal correction to Enthalpy=                  0.026759
 Thermal correction to Gibbs Free Energy=        -0.000210
 Sum of electronic and zero-point Energies=           -114.427139
 Sum of electronic and thermal Energies=              -114.423868
 Sum of electronic and thermal Enthalpies=            -114.422924
 Sum of electronic and thermal Free Energies=         -114.449894

                     E (Thermal)             CV                S
                      KCal/Mol        Cal/Mol-Kelvin    Cal/Mol-Kelvin
 Total                   16.199              8.543             56.763
 Electronic               0.000              0.000              1.377
 Translational            0.889              2.981             36.130
 Rotational               0.889              2.981             17.943
 Vibrational             14.422              2.582              1.312
 Vibration     1          0.755              1.500              1.016

 Optimization completed.
    -- Stationary point found.
 Normal termination of Gaussian 09 at Thu Mar  7 13:24:00 2019.
