 Gaussian 09, Revision E.01,
 Gaussian 09:  EM64L-G09RevE.01 30-Nov-2015

 ------------------------------------------------------
 #p b3lyp/6-311++G(3df,2p) freq IOp(2/17=3) IOp(2/18=3)
 ------------------------------------------------------

 ---------
 b3lyp opt
 ---------
 Symbolic Z-matrix:
 Charge = -1 Multiplicity = 4

                         Standard orientation:
 ---------------------------------------------------------------------
 Center     Atomic      Atomic             Coordinates (Angstroms)
 Number     Number       Type             X           Y           Z
 ---------------------------------------------------------------------
      1          6           0       -0.059646   -1.094226   -0.000000
      2          1           0        0.417565    0.958986   -0.786935
      3          1           0        0.417565    0.958986    0.786935
      4          8           0       -0.059646    0.580920    0.000000
 ---------------------------------------------------------------------

 SCF Done:  E(UB3LYP) =  -114.338907430     A.U. after   14 cycles

 The electronic state is 4-A".
 Alpha  occ. eigenvalues --  -19.04080 -10.04029  -0.91772  -0.43662  -0.41912
 Alpha  occ. eigenvalues --   -0.27353  -0.19885  -0.03110  -0.02035   0.05502
 Alpha virt. eigenvalues --    0.12431   0.16352   0.19636   0.20190   0.22138
 Alpha virt. eigenvalues --    0.24828   0.26695   0.27375   0.31137   0.34349
 Alpha virt. eigenvalues --    0.34462   0.42853   0.51934   0.52601   0.58117

  Beta  occ. eigenvalues --  -19.03698 -10.01291  -0.90739  -0.41107  -0.38962
  Beta  occ. eigenvalues --   -0.25027  -0.14452
  Beta virt. eigenvalues --    0.11247   0.12424   0.13306   0.15388   0.17615
  Beta virt. eigenvalues --    0.21195   0.23113   0.24700   0.26646   0.29149
  Beta virt. eigenvalues --    0.29311   0.32014   0.35207   0.35766   0.43597

 Mulliken charges and spin densities:
               1          2
     1  C    0.007817   1.654867
     2  H   -0.522846   0.857944
     3  H   -0.522846   0.857944
     4  O    0.037876  -0.370756
 Sum of Mulliken charges =  -1.00000   3.00000

 Dipole moment (field-independent basis, Debye):
    X=             -1.5378    Y=             -1.9084    Z=              0.0000  Tot=              2.4509
 Quadrupole moment (field-independent basis, Debye-Ang):
   XX=            -26.9008   YY=            -36.7866   ZZ=            -26.7180
   XY=             -3.6090   XZ=             -0.0000   YZ=             -0.0000

  Exact polarizability:  64.844  14.401 107.096  -0.000   0.000 354.555
 Approx polarizability:  66.603  10.428 100.765   0.000   0.000 325.809

                      1                      2                      3
                     A'                     A'                     A"
 Frequencies --    376.0688               611.7930               718.8432
 Red. masses --     10.6653                 1.1868                 1.1104
 Frc consts  --      0.8887                 0.2617                 0.3381
 IR Inten    --     40.5425               213.4638               123.0050

                      4                      5                      6
                     A'                     A"                     A'
 Frequencies --   1461.9474              3086.9705              3186.6036
 Red. masses --      1.0794                 1.0883                 1.0437
 Frc consts  --      1.3592                 6.1103                 6.2443
 IR Inten    --    100.6776              5598.6948              1334.4346

 - Thermochemistry -
 -------------------
 Temperature   298.150 Kelvin.  Pressure   1.00000 Atm.
 Atom     1 has atomic number  6 and mass  12.00000

 Molecular mass:    30.01056 amu.
 Principal axes and moments of inertia in atomic units:
                           1         2         3
     Eigenvalues --     5.82302  78.30133  81.39330
           X            0.04653   0.00000   0.99892
           Y            0.99892  -0.00000  -0.04653
           Z            0.00000   1.00000  -0.00000
 This molecule is an asymmetric top.
 Rotational symmetry number  1.
 Rotational temperatures (Kelvin)     14.87439     1.10616     1.06414
 Rotational constants (GHZ):         309.93239    23.04867    22.17309
 Zero-point vibrational energy      56477.1 (Joules/Mol)
                                   13.49834 (Kcal/Mol)
 Warning -- explicit consideration of   2 degrees of freedom as
           vibrations may cause significant error
 Vibrational temperatures:    541.08   880.23  1034.25  2103.41  4441.46
          (Kelvin)           4584.81

 Zero-point correction=                           0.021511 (Hartree/Particle)
 Thermal correction to Energy=                    0.024942
 Thermal correction to Enthalpy=                  0.025886
 Thermal correction to Gibbs Free Energy=        -0.002112
 Sum of electronic and zero-point Energies=           -114.317396
 Sum of electronic and thermal Energies=              -114.313966
 Sum of electronic and thermal Enthalpies=            -114.313022
 Sum of electronic and thermal Free Energies=         -114.341019

                     E (Thermal)             CV                S
                      KCal/Mol        Cal/Mol-Kelvin    Cal/Mol-Kelvin
 Total                   15.651              9.369             58.926
 Electronic               0.000              0.000              2.755
 Translational            0.889              2.981             36.130
 Rotational               0.889              2.981             18.257
 Vibrational             13.874              3.407              1.783
 Vibration     1          0.747              1.521              1.055
 Vibration     2          0.971              1.007              0.430

 Optimization completed.
    -- Stationary point found.
 Normal termination of Gaussian 09 at Thu Mar  7 13:30:12 2019.
