 Gaussian 09, Revision E.01,
 Gaussian 09:  EM64L-G09RevE.01 30-Nov-2015

 ------------------------------------------------------
 #p b3lyp/6-311++G(3df,2p) freq IOp(2/17=3) IOp(2/18=3)
 ------------------------------------------------------

 ---------
 b3lyp opt
 ---------
 Symbolic Z-matrix:
 Charge = -1 Multiplicity = 4

                         Standard orientation:
 ---------------------------------------------------------------------
 Center     Atomic      Atomic             Coordinates (Angstroms)
 Number     Number       Type             X           Y           Z
 ---------------------------------------------------------------------
      1          6           0       -0.055535   -0.589265   -0.000000
      2          1           0        0.388751   -1.048954   -0.906310
      3          1           0        0.388751   -1.048954    0.906310
      4          8           0       -0.055535    0.704180    0.000000
 ---------------------------------------------------------------------

 SCF Done:  E(UB3LYP) =  -114.413053206     A.U. after   15 cycles

 The electronic state is 4-A".
 Alpha  occ. eigenvalues --  -19.07103 -10.08023  -0.94249  -0.51489  -0.37058
 Alpha  occ. eigenvalues --   -0.34143  -0.29005  -0.20787  -0.05372   0.07076
 Alpha virt. eigenvalues --    0.11436   0.14398   0.17296   0.20248   0.23012
 Alpha virt. eigenvalues --    0.27232   0.29935   0.30502   0.32786   0.33250
 Alpha virt. eigenvalues --    0.34022   0.46177   0.47078   0.48459   0.52679

  Beta  occ. eigenvalues --  -19.04210 -10.06755  -0.88028  -0.46271  -0.30728
  Beta  occ. eigenvalues --   -0.30071  -0.22558
  Beta virt. eigenvalues --   -0.03160   0.09144   0.11832   0.14597   0.15346
  Beta virt. eigenvalues --    0.19277   0.21609   0.24109   0.28384   0.31263
  Beta virt. eigenvalues --    0.31972   0.33280   0.34681   0.35530   0.47855

 Mulliken charges and spin densities:
               1          2
     1  C    2.645292  -1.910897
     2  H   -1.587757   1.896871
     3  H   -1.587757   1.896871
     4  O   -0.469779   1.117156
 Sum of Mulliken charges =  -1.00000   3.00000

 Dipole moment (field-independent basis, Debye):
    X=             -2.3346    Y=              6.4812    Z=             -0.0000  Tot=              6.8888
 Quadrupole moment (field-independent basis, Debye-Ang):
   XX=            -30.9444   YY=            -40.2839   ZZ=            -41.4680
   XY=              5.0971   XZ=             -0.0000   YZ=              0.0000

  Exact polarizability: 188.900 -19.834 283.975   0.000   0.000 884.901
 Approx polarizability: 154.180 -18.333 220.621   0.000   0.000 973.789

                      1                      2                      3
                     A'                     A"                     A'
 Frequencies --    768.7538               845.2395              1205.5876
 Red. masses --      1.3385                 1.2482                 1.2204
 Frc consts  --      0.4660                 0.5254                 1.0451
 IR Inten    --    636.9443                25.4200               837.3247

                      4                      5                      6
                     A'                     A'                     A"
 Frequencies --   1305.1242              2773.8562              2860.3484
 Red. masses --      4.5099                 1.0413                 1.0984
 Frc consts  --      4.5260                 4.7205                 5.2948
 IR Inten    --    142.4778                 9.5879                41.9115

 - Thermochemistry -
 -------------------
 Temperature   298.150 Kelvin.  Pressure   1.00000 Atm.
 Atom     1 has atomic number  6 and mass  12.00000

 Molecular mass:    30.01056 amu.
 Principal axes and moments of inertia in atomic units:
                           1         2         3
     Eigenvalues --     6.97972  51.93507  56.78024
           X           -0.07199   0.00000   0.99741
           Y            0.99741   0.00000   0.07199
           Z           -0.00000   1.00000  -0.00000
 This molecule is an asymmetric top.
 Rotational symmetry number  1.
 Rotational temperatures (Kelvin)     12.40936     1.66773     1.52542
 Rotational constants (GHZ):         258.56942    34.74995    31.78467
 Zero-point vibrational energy      58371.2 (Joules/Mol)
                                   13.95106 (Kcal/Mol)
 Vibrational temperatures:   1106.06  1216.11  1734.57  1877.78  3990.96
          (Kelvin)           4115.40

 Zero-point correction=                           0.022232 (Hartree/Particle)
 Thermal correction to Energy=                    0.025247
 Thermal correction to Enthalpy=                  0.026191
 Thermal correction to Gibbs Free Energy=        -0.000907
 Sum of electronic and zero-point Energies=           -114.390821
 Sum of electronic and thermal Energies=              -114.387807
 Sum of electronic and thermal Enthalpies=            -114.386862
 Sum of electronic and thermal Free Energies=         -114.413960

                     E (Thermal)             CV                S
                      KCal/Mol        Cal/Mol-Kelvin    Cal/Mol-Kelvin
 Total                   15.842              7.592             57.032
 Electronic               0.000              0.000              2.755
 Translational            0.889              2.981             36.130
 Rotational               0.889              2.981             17.672
 Vibrational             14.065              1.630              0.475

 Optimization completed.
    -- Stationary point found.
 Normal termination of Gaussian 09 at Thu Mar  7 13:28:34 2019.
