 Gaussian 09, Revision E.01,
 Gaussian 09:  EM64L-G09RevE.01 30-Nov-2015

 ------------------------------------------------------
 #p b3lyp/6-311++G(3df,2p) freq IOp(2/17=3) IOp(2/18=3)
 ------------------------------------------------------

 ---------
 b3lyp opt
 ---------
 Symbolic Z-matrix:
 Charge = -1 Multiplicity = 2

                         Standard orientation:
 ---------------------------------------------------------------------
 Center     Atomic      Atomic             Coordinates (Angstroms)
 Number     Number       Type             X           Y           Z
 ---------------------------------------------------------------------
      1          6           0       -0.011007   -0.552576    0.000000
      2          1           0        0.077051   -1.145581   -0.933210
      3          1           0        0.077051   -1.145581    0.933210
      4          8           0       -0.011007    0.700819   -0.000000
 ---------------------------------------------------------------------

 SCF Done:  E(UB3LYP) =  -114.527916561     A.U. after   25 cycles

 The electronic state is 2-A'.
 Alpha  occ. eigenvalues --  -18.89548 -10.01941  -0.80317  -0.41244  -0.25635
 Alpha  occ. eigenvalues --   -0.21997  -0.17257  -0.04892   0.08575
 Alpha virt. eigenvalues --    0.12074   0.13473   0.17933   0.20993   0.24382
 Alpha virt. eigenvalues --    0.24428   0.30815   0.34284   0.35464   0.37843
 Alpha virt. eigenvalues --    0.40201   0.43289   0.49236   0.53304   0.55306

  Beta  occ. eigenvalues --  -18.88917 -10.01464  -0.79124  -0.39709  -0.25230
  Beta  occ. eigenvalues --   -0.21240  -0.13834  -0.04379
  Beta virt. eigenvalues --    0.12731   0.14659   0.16149   0.18011   0.22926
  Beta virt. eigenvalues --    0.24304   0.25272   0.31524   0.34295   0.35777
  Beta virt. eigenvalues --    0.38131   0.40532   0.43263   0.49891   0.53529

 Mulliken charges and spin densities:
               1          2
     1  C    0.619664  -0.230407
     2  H   -0.480101   0.522240
     3  H   -0.480101   0.522240
     4  O   -0.659463   0.185927
 Sum of Mulliken charges =  -1.00000   1.00000

 Dipole moment (field-independent basis, Debye):
    X=             -2.2689    Y=              2.3672    Z=             -0.0000  Tot=              3.2789
 Quadrupole moment (field-independent basis, Debye-Ang):
   XX=            -22.5062   YY=            -29.9571   ZZ=            -25.5185
   XY=              4.1433   XZ=             -0.0000   YZ=             -0.0000

  Exact polarizability:  78.439 -43.120 330.159  -0.000   0.000 949.868
 Approx polarizability:  80.452 -48.313 227.834  -0.000   0.000 329.915

                      1                      2                      3
                     A'                     A"                     A'
 Frequencies --    654.6051              1172.1493              1182.3500
 Red. masses --      1.3879                 1.3313                 4.8626
 Frc consts  --      0.3504                 1.0777                 4.0050
 IR Inten    --   1163.6662              1272.1131              8782.8519

                      4                      5                      6
                     A'                     A'                     A"
 Frequencies --   1528.5848              2806.5576              2847.0933
 Red. masses --      1.1860                 1.0390                 1.1143
 Frc consts  --      1.6327                 4.8216                 5.3219
 IR Inten    --   1523.2056               169.1145               627.0960

 - Thermochemistry -
 -------------------
 Temperature   298.150 Kelvin.  Pressure   1.00000 Atm.
 Atom     1 has atomic number  6 and mass  12.00000

 Molecular mass:    30.01056 amu.
 Principal axes and moments of inertia in atomic units:
                           1         2         3
     Eigenvalues --     6.30869  50.02396  56.25252
           X           -0.01550   0.00000   0.99988
           Y            0.99988   0.00000   0.01550
           Z           -0.00000   1.00000  -0.00000
 This molecule is an asymmetric top.
 Rotational symmetry number  1.
 Rotational temperatures (Kelvin)     13.72929     1.73145     1.53973
 Rotational constants (GHZ):         286.07235    36.07753    32.08285
 Zero-point vibrational energy      60957.8 (Joules/Mol)
                                   14.56925 (Kcal/Mol)
 Vibrational temperatures:    941.83  1686.46  1701.14  2199.29  4038.01
          (Kelvin)           4096.33

 Zero-point correction=                           0.023218 (Hartree/Particle)
 Thermal correction to Energy=                    0.026224
 Thermal correction to Enthalpy=                  0.027168
 Thermal correction to Gibbs Free Energy=         0.000799
 Sum of electronic and zero-point Energies=           -114.504699
 Sum of electronic and thermal Energies=              -114.501693
 Sum of electronic and thermal Enthalpies=            -114.500749
 Sum of electronic and thermal Free Energies=         -114.527118

                     E (Thermal)             CV                S
                      KCal/Mol        Cal/Mol-Kelvin    Cal/Mol-Kelvin
 Total                   16.456              7.389             55.498
 Electronic               0.000              0.000              1.377
 Translational            0.889              2.981             36.130
 Rotational               0.889              2.981             17.525
 Vibrational             14.678              1.428              0.466

 Optimization completed.
    -- Stationary point found.
 Normal termination of Gaussian 09 at Thu Mar  7 13:23:54 2019.
