 Gaussian 09, Revision E.01,
 Gaussian 09:  EM64L-G09RevE.01 30-Nov-2015

 ------------------------------------------------------
 #p b3lyp/6-311++G(3df,2p) freq IOp(2/17=3) IOp(2/18=3)
 ------------------------------------------------------

 ---------
 b3lyp opt
 ---------
 Symbolic Z-matrix:
 Charge = -1 Multiplicity = 4

                         Standard orientation:
 ---------------------------------------------------------------------
 Center     Atomic      Atomic             Coordinates (Angstroms)
 Number     Number       Type             X           Y           Z
 ---------------------------------------------------------------------
      1          6           0       -0.055455   -0.589262   -0.000000
      2          1           0        0.388187   -1.049210   -0.906185
      3          1           0        0.388187   -1.049210    0.906185
      4          8           0       -0.055455    0.704245    0.000000
 ---------------------------------------------------------------------

 SCF Done:  E(UB3LYP) =  -114.413053150     A.U. after   15 cycles

 The electronic state is 4-A".
 Alpha  occ. eigenvalues --  -19.07106 -10.08019  -0.94248  -0.51495  -0.37061
 Alpha  occ. eigenvalues --   -0.34145  -0.29006  -0.20793  -0.05368   0.07076
 Alpha virt. eigenvalues --    0.11435   0.14397   0.17297   0.20250   0.23012
 Alpha virt. eigenvalues --    0.27236   0.29943   0.30500   0.32784   0.33253
 Alpha virt. eigenvalues --    0.34019   0.46175   0.47081   0.48462   0.52673

  Beta  occ. eigenvalues --  -19.04213 -10.06750  -0.88026  -0.46277  -0.30731
  Beta  occ. eigenvalues --   -0.30076  -0.22560
  Beta virt. eigenvalues --   -0.03163   0.09148   0.11833   0.14597   0.15346
  Beta virt. eigenvalues --    0.19279   0.21610   0.24109   0.28386   0.31261
  Beta virt. eigenvalues --    0.31979   0.33278   0.34684   0.35527   0.47851

 Mulliken charges and spin densities:
               1          2
     1  C    2.645299  -1.910893
     2  H   -1.587834   1.896850
     3  H   -1.587834   1.896850
     4  O   -0.469631   1.117193
 Sum of Mulliken charges =  -1.00000   3.00000

 Dipole moment (field-independent basis, Debye):
    X=             -2.3313    Y=              6.4831    Z=             -0.0000  Tot=              6.8895
 Quadrupole moment (field-independent basis, Debye-Ang):
   XX=            -30.9378   YY=            -40.2922   ZZ=            -41.4685
   XY=              5.0922   XZ=              0.0000   YZ=              0.0000

  Exact polarizability: 188.871 -19.808 284.089   0.000   0.000 885.039
 Approx polarizability: 154.152 -18.315 220.700  -0.000  -0.000 974.003

                      1                      2                      3
                     A'                     A"                     A'
 Frequencies --    767.1745               844.7375              1205.4188
 Red. masses --      1.3382                 1.2482                 1.2212
 Frc consts  --      0.4641                 0.5248                 1.0454
 IR Inten    --    636.9948                25.4298               836.6043

                      4                      5                      6
                     A'                     A'                     A"
 Frequencies --   1304.8544              2776.1946              2862.8340
 Red. masses --      4.5018                 1.0413                 1.0985
 Frc consts  --      4.5161                 4.7286                 5.3043
 IR Inten    --    142.5736                 9.4829                41.8540

 - Thermochemistry -
 -------------------
 Temperature   298.150 Kelvin.  Pressure   1.00000 Atm.
 Atom     1 has atomic number  6 and mass  12.00000

 Molecular mass:    30.01056 amu.
 Principal axes and moments of inertia in atomic units:
                           1         2         3
     Eigenvalues --     6.97492  51.93994  56.78662
           X           -0.07189   0.00000   0.99741
           Y            0.99741  -0.00000   0.07189
           Z            0.00000   1.00000  -0.00000
 This molecule is an asymmetric top.
 Rotational symmetry number  1.
 Rotational temperatures (Kelvin)     12.41789     1.66758     1.52525
 Rotational constants (GHZ):         258.74710    34.74670    31.78110
 Zero-point vibrational energy      58385.0 (Joules/Mol)
                                   13.95436 (Kcal/Mol)
 Vibrational temperatures:   1103.79  1215.39  1734.33  1877.39  3994.32
          (Kelvin)           4118.97

 Zero-point correction=                           0.022238 (Hartree/Particle)
 Thermal correction to Energy=                    0.025252
 Thermal correction to Enthalpy=                  0.026197
 Thermal correction to Gibbs Free Energy=        -0.000902
 Sum of electronic and zero-point Energies=           -114.390815
 Sum of electronic and thermal Energies=              -114.387801
 Sum of electronic and thermal Enthalpies=            -114.386856
 Sum of electronic and thermal Free Energies=         -114.413955

                     E (Thermal)             CV                S
                      KCal/Mol        Cal/Mol-Kelvin    Cal/Mol-Kelvin
 Total                   15.846              7.596             57.033
 Electronic               0.000              0.000              2.755
 Translational            0.889              2.981             36.130
 Rotational               0.889              2.981             17.671
 Vibrational             14.069              1.634              0.477

 Optimization completed.
    -- Stationary point found.
 Normal termination of Gaussian 09 at Thu Mar  7 13:30:16 2019.
