 Gaussian 09, Revision E.01,
 Gaussian 09:  EM64L-G09RevE.01 30-Nov-2015

 ------------------------------------------------------
 #p b3lyp/6-311++G(3df,2p) freq IOp(2/17=3) IOp(2/18=3)
 ------------------------------------------------------

 ---------
 b3lyp opt
 ---------
 Symbolic Z-matrix:
 Charge = -1 Multiplicity = 2

                         Standard orientation:
 ---------------------------------------------------------------------
 Center     Atomic      Atomic             Coordinates (Angstroms)
 Number     Number       Type             X           Y           Z
 ---------------------------------------------------------------------
      1          1           0       -0.000000    0.761924   -0.486949
      2          1           0       -0.000000   -0.761924   -0.486949
      3          8           0        0.000000    0.000000    0.121739
 ---------------------------------------------------------------------

 SCF Done:  E(UB3LYP) =  -76.4367577659     A.U. after   11 cycles

 The electronic state is 2-A1.
 Alpha  occ. eigenvalues --  -18.93228  -0.81430  -0.32889  -0.20535  -0.12430
 Alpha  occ. eigenvalues --    0.08062
 Alpha virt. eigenvalues --    0.13667   0.28779   0.29681   0.30690   0.30924
 Alpha virt. eigenvalues --    0.36285   0.38269   0.65616   0.70476   0.78623
 Alpha virt. eigenvalues --    0.82352   0.86735   1.06396   1.07144   1.16963

  Beta  occ. eigenvalues --  -18.93046  -0.80942  -0.32648  -0.20246  -0.12240
  Beta virt. eigenvalues --    0.12948   0.15965   0.29995   0.30656   0.31346
  Beta virt. eigenvalues --    0.32088   0.36848   0.39060   0.66555   0.71452
  Beta virt. eigenvalues --    0.79006   0.82661   0.86972   1.06852   1.07676

 Mulliken charges and spin densities:
               1          2
     1  H   -0.499501   0.762578
     2  H   -0.499501   0.762578
     3  O   -0.000998  -0.525156
 Sum of Mulliken charges =  -1.00000   1.00000

 Dipole moment (field-independent basis, Debye):
    X=              0.0000    Y=              0.0000    Z=              1.9002  Tot=              1.9002
 Quadrupole moment (field-independent basis, Debye-Ang):
   XX=            -20.2273   YY=            -20.8295   ZZ=            -21.7445
   XY=             -0.0000   XZ=             -0.0000   YZ=             -0.0000

  Exact polarizability:  43.054   0.000 560.133   0.000  -0.000  45.818
 Approx polarizability:  43.117   0.000 428.435   0.000   0.000  46.117

                      1                      2                      3
                     A1                     A1                     B2
 Frequencies --   1556.3356              3548.3264              3579.0762
 Red. masses --      1.0804                 1.0473                 1.0801
 Frc consts  --      1.5418                 7.7690                 8.1520
 IR Inten    --    337.6140                 1.0026              3845.2924

 - Thermochemistry -
 -------------------
 Temperature   298.150 Kelvin.  Pressure   1.00000 Atm.
 Atom     1 has atomic number  1 and mass   1.00783

 Molecular mass:    18.01056 amu.
 Principal axes and moments of inertia in atomic units:
                           1         2         3
     Eigenvalues --     2.36842   4.17865   6.54707
           X            0.00000   0.00000   1.00000
           Y            1.00000  -0.00000  -0.00000
           Z            0.00000   1.00000  -0.00000
 This molecule is an asymmetric top.
 Rotational symmetry number  2.
 Rotational temperatures (Kelvin)     36.57037    20.72770    13.22941
 Rotational constants (GHZ):         762.00370   431.89562   275.65646
 Zero-point vibrational energy      51940.3 (Joules/Mol)
                                   12.41403 (Kcal/Mol)
 Vibrational temperatures:   2239.22  5105.24  5149.49
          (Kelvin)

 Zero-point correction=                           0.019783 (Hartree/Particle)
 Thermal correction to Energy=                    0.022619
 Thermal correction to Enthalpy=                  0.023564
 Thermal correction to Gibbs Free Energy=         0.001439
 Sum of electronic and zero-point Energies=            -76.416975
 Sum of electronic and thermal Energies=               -76.414138
 Sum of electronic and thermal Enthalpies=             -76.413194
 Sum of electronic and thermal Free Energies=          -76.435319

                     E (Thermal)             CV                S
                      KCal/Mol        Cal/Mol-Kelvin    Cal/Mol-Kelvin
 Total                   14.194              6.023             46.565
 Electronic               0.000              0.000              1.377
 Translational            0.889              2.981             34.608
 Rotational               0.889              2.981             10.570
 Vibrational             12.416              0.061              0.009

 Optimization completed.
    -- Stationary point found.
 Normal termination of Gaussian 09 at Thu Mar  7 13:31:03 2019.
