 Gaussian 09, Revision E.01,
 Gaussian 09:  EM64L-G09RevE.01 30-Nov-2015

 -------------------------------------------------
 #p b3lyp/6-311++G(3df,2p) opt freq symmetry=Loose
 -------------------------------------------------

 ---------
 b3lyp opt
 ---------
 Symbolic Z-matrix:
 Charge = -1 Multiplicity = 3

 SCF Done:  E(UB3LYP) =  -1.43409890441     A.U. after   13 cycles
 SCF Done:  E(UB3LYP) =  -1.51567474959     A.U. after   12 cycles
 SCF Done:  E(UB3LYP) =  -1.57734158005     A.U. after   13 cycles
 SCF Done:  E(UB3LYP) =  -1.59538528197     A.U. after   12 cycles
 SCF Done:  E(UB3LYP) =  -1.59549078566     A.U. after   11 cycles
 SCF Done:  E(UB3LYP) =  -1.59615174135     A.U. after   11 cycles
 SCF Done:  E(UB3LYP) =  -1.59643120049     A.U. after   10 cycles
 SCF Done:  E(UB3LYP) =  -1.61074791373     A.U. after   11 cycles
 SCF Done:  E(UB3LYP) =  -1.56841072983     A.U. after   11 cycles
 SCF Done:  E(UB3LYP) =  -1.61958279862     A.U. after   10 cycles
 SCF Done:  E(UB3LYP) =  -1.62405098136     A.U. after   10 cycles
 SCF Done:  E(UB3LYP) =  -1.62836398005     A.U. after   10 cycles
 SCF Done:  E(UB3LYP) =  -1.62948405272     A.U. after   10 cycles
 SCF Done:  E(UB3LYP) =  -1.62992768229     A.U. after    9 cycles
 SCF Done:  E(UB3LYP) =  -1.63004888094     A.U. after    9 cycles
 SCF Done:  E(UB3LYP) =  -1.63007470852     A.U. after    8 cycles
 SCF Done:  E(UB3LYP) =  -1.63008134953     A.U. after    9 cycles
 SCF Done:  E(UB3LYP) =  -1.63008186552     A.U. after    7 cycles
 Optimization completed.
    -- Stationary point found.
 Normal termination of Gaussian 09 at Sun Feb  3 23:30:43 2019.

 ----------------------------------------------------------------------
 #P Geom=AllCheck Guess=TCheck SCRF=Check GenChk UB3LYP/6-311++G(3df,2p
 ) Freq
 ----------------------------------------------------------------------

 Structure from the checkpoint file:  "/scratch/sergio/H3.q-1.m3-1.com-4935951/Gau-3658.chk"
 ---------
 b3lyp opt
 ---------
 Charge = -1 Multiplicity = 3

                         Standard orientation:
 ---------------------------------------------------------------------
 Center     Atomic      Atomic             Coordinates (Angstroms)
 Number     Number       Type             X           Y           Z
 ---------------------------------------------------------------------
      1          1           0        0.000000    0.386763   -0.844761
      2          1           0       -0.000000   -0.386763   -0.844761
      3          1           0       -0.000000   -0.000000    1.689522
 ---------------------------------------------------------------------

 SCF Done:  E(UB3LYP) =  -1.63008186552     A.U. after    1 cycles

 The electronic state is 3-B2.
 Alpha  occ. eigenvalues --   -0.24606  -0.16749   0.09940
 Alpha virt. eigenvalues --    0.14629   0.15956   0.28073   0.49478   0.52386
 Alpha virt. eigenvalues --    0.62805   0.66730   0.68716   0.71406   0.74106
 Alpha virt. eigenvalues --    0.87372   1.10081   1.10967   1.11352   1.59942

  Beta  occ. eigenvalues --   -0.23709
  Beta virt. eigenvalues --    0.06031   0.15746   0.17038   0.19398   0.29616
  Beta virt. eigenvalues --    0.50951   0.59495   0.67736   0.68555   0.72392
  Beta virt. eigenvalues --    0.82612   0.83184   0.94169   1.10657   1.11767

 Mulliken charges and spin densities:
               1          2
     1  H   -0.494217   0.499471
     2  H   -0.494217   0.499471
     3  H   -0.011566   1.001058
 Sum of Mulliken charges =  -1.00000   2.00000

 Dipole moment (field-independent basis, Debye):
    X=              0.0000    Y=             -0.0000    Z=              3.8175  Tot=              3.8175
 Quadrupole moment (field-independent basis, Debye-Ang):
   XX=            -13.5816   YY=            -33.0482   ZZ=            -17.5468
   XY=             -0.0000   XZ=             -0.0000   YZ=              0.0000

  Exact polarizability:   4.952  -0.000 594.702  -0.000  -0.000   9.192
 Approx polarizability:   5.068   0.000 474.556   0.000   0.000   8.635

                      1                      2                      3
                     A1                     B2                     A1
 Frequencies --    236.1295               580.1937              3800.7125
 Red. masses --      1.0078                 1.0078                 1.0078
 Frc consts  --      0.0331                 0.1999                 8.5776
 IR Inten    --    220.8155              3816.6068                 3.3576

 - Thermochemistry -
 -------------------
 Temperature   298.150 Kelvin.  Pressure   1.00000 Atm.
 Atom     1 has atomic number  1 and mass   1.00783

 Molecular mass:     3.02348 amu.
 Principal axes and moments of inertia in atomic units:
                           1         2         3
     Eigenvalues --     1.07672  15.40997  16.48669
           X            0.00000   0.00000   1.00000
           Y            0.00000   1.00000  -0.00000
           Z            1.00000  -0.00000  -0.00000
 This molecule is an asymmetric top.
 Rotational symmetry number  2.
 Rotational temperatures (Kelvin)     80.44234     5.62063     5.25356
 Rotational constants (GHZ):        1676.14850   117.11514   109.46654
 Zero-point vibrational energy      27616.0 (Joules/Mol)
                                    6.60038 (Kcal/Mol)
 Warning -- explicit consideration of   2 degrees of freedom as
           vibrations may cause significant error
 Vibrational temperatures:    339.74   834.77  5468.37
          (Kelvin)

 Zero-point correction=                           0.010518 (Hartree/Particle)
 Thermal correction to Energy=                    0.014028
 Thermal correction to Enthalpy=                  0.014973
 Thermal correction to Gibbs Free Energy=        -0.006784
 Sum of electronic and zero-point Energies=             -1.619563
 Sum of electronic and thermal Energies=                -1.616053
 Sum of electronic and thermal Enthalpies=              -1.615109
 Sum of electronic and thermal Free Energies=           -1.636866

                     E (Thermal)             CV                S
                      KCal/Mol        Cal/Mol-Kelvin    Cal/Mol-Kelvin
 Total                    8.803              8.821             45.790
 Electronic               0.000              0.000              2.183
 Translational            0.889              2.981             29.289
 Rotational               0.889              2.981             12.001
 Vibrational              7.025              2.860              2.317
 Vibration     1          0.655              1.785              1.832
 Vibration     2          0.937              1.074              0.485

 Optimization completed.
    -- Stationary point found.
 Normal termination of Gaussian 09 at Sun Feb  3 23:30:46 2019.
