 Gaussian 09, Revision E.01,
 Gaussian 09:  EM64L-G09RevE.01 30-Nov-2015

 -------------------------------------------------
 #p b3lyp/6-311++G(3df,2p) opt freq symmetry=Loose
 -------------------------------------------------

 ---------
 b3lyp opt
 ---------
 Symbolic Z-matrix:
 Charge = -1 Multiplicity = 3

 SCF Done:  E(UB3LYP) =  -39.8269453174     A.U. after   12 cycles
 SCF Done:  E(UB3LYP) =  -39.8270467402     A.U. after   10 cycles
 Optimization completed.
    -- Stationary point found.
 Normal termination of Gaussian 09 at Wed Jan 23 22:07:53 2019.

 ----------------------------------------------------------------------
 #P Geom=AllCheck Guess=TCheck SCRF=Check GenChk UB3LYP/6-311++G(3df,2p
 ) Freq
 ----------------------------------------------------------------------

 Structure from the checkpoint file:  "/scratch/sergio/H3C.q-1.m3-2.com-4919758/Gau-9015.chk"
 ---------
 b3lyp opt
 ---------
 Charge = -1 Multiplicity = 3

                         Standard orientation:
 ---------------------------------------------------------------------
 Center     Atomic      Atomic             Coordinates (Angstroms)
 Number     Number       Type             X           Y           Z
 ---------------------------------------------------------------------
      1          6           0        0.000000    0.000000    0.000000
      2          1           0       -0.000000    1.083666    0.000000
      3          1           0       -0.938482   -0.541833    0.000000
      4          1           0        0.938482   -0.541833    0.000000
 ---------------------------------------------------------------------

 SCF Done:  E(UB3LYP) =  -39.8270467402     A.U. after    1 cycles

 Unable to determine electronic state:  an orbital has unidentified symmetry.
 Alpha  occ. eigenvalues --  -10.02257  -0.53000  -0.26511  -0.26511  -0.07902
 Alpha  occ. eigenvalues --    0.07172
 Alpha virt. eigenvalues --    0.12006   0.12006   0.18606   0.20388   0.20388
 Alpha virt. eigenvalues --    0.23875   0.28290   0.31932   0.31932   0.45432
 Alpha virt. eigenvalues --    0.45432   0.47554   0.47554   0.52873   0.67372

  Beta  occ. eigenvalues --  -10.00746  -0.48923  -0.25471  -0.25471
  Beta virt. eigenvalues --    0.07237   0.11353   0.14274   0.14274   0.21568
  Beta virt. eigenvalues --    0.21568   0.21729   0.24976   0.30166   0.32798
  Beta virt. eigenvalues --    0.32798   0.47041   0.47041   0.48129   0.48129

 Mulliken charges and spin densities:
               1          2
     1  C    1.962230  -1.309971
     2  H   -0.987410   1.103324
     3  H   -0.987410   1.103324
     4  H   -0.987410   1.103324
 Sum of Mulliken charges =  -1.00000   2.00000

 Dipole moment (field-independent basis, Debye):
    X=             -0.0000    Y=              0.0000    Z=              0.0000  Tot=              0.0000
 Quadrupole moment (field-independent basis, Debye-Ang):
   XX=            -32.7770   YY=            -32.7770   ZZ=            -23.6057
   XY=              0.0000   XZ=              0.0000   YZ=              0.0000

  Exact polarizability: 897.307  -0.000 895.223  -0.000  -0.000 162.805
 Approx polarizability: 691.540   0.000 691.540  -0.000  -0.000 135.336

                      1                      2                      3
                     A2"                    ?A                     ?A
 Frequencies --    500.1189              1379.7764              1379.7876
 Red. masses --      1.2356                 1.1010                 1.1010
 Frc consts  --      0.1821                 1.2349                 1.2350
 IR Inten    --    239.5261               278.2323               279.5171

                      4                      5                      6
                     ?B                     ?A                     ?A
 Frequencies --   2988.2641              3206.1072              3206.1179
 Red. masses --      1.0078                 1.1195                 1.1195
 Frc consts  --      5.3024                 6.7799                 6.7799
 IR Inten    --      0.0001                 1.7108                 1.8530

 - Thermochemistry -
 -------------------
 Temperature   298.150 Kelvin.  Pressure   1.00000 Atm.
 Atom     1 has atomic number  6 and mass  12.00000

 Molecular mass:    15.02348 amu.
 Principal axes and moments of inertia in atomic units:
                           1         2         3
     Eigenvalues --     6.33965   6.33965  12.67930
           X           -0.00000   1.00000   0.00000
           Y            1.00000   0.00000   0.00000
           Z            0.00000   0.00000   1.00000
 This molecule is an oblate symmetric top.
 Rotational symmetry number  6.
 Rotational temperatures (Kelvin)     13.66224    13.66224     6.83112
 Rotational constants (GHZ):         284.67529   284.67529   142.33764
 Zero-point vibrational energy      75724.6 (Joules/Mol)
                                   18.09862 (Kcal/Mol)
 Warning -- explicit consideration of   1 degrees of freedom as
           vibrations may cause significant error
 Vibrational temperatures:    719.56  1985.19  1985.20  4299.44  4612.87
          (Kelvin)           4612.88

 Zero-point correction=                           0.028842 (Hartree/Particle)
 Thermal correction to Energy=                    0.031915
 Thermal correction to Enthalpy=                  0.032859
 Thermal correction to Gibbs Free Energy=         0.010345
 Sum of electronic and zero-point Energies=            -39.798205
 Sum of electronic and thermal Energies=               -39.795132
 Sum of electronic and thermal Enthalpies=             -39.794188
 Sum of electronic and thermal Free Energies=          -39.816701

                     E (Thermal)             CV                S
                      KCal/Mol        Cal/Mol-Kelvin    Cal/Mol-Kelvin
 Total                   20.027              7.438             47.384
 Electronic               0.000              0.000              2.183
 Translational            0.889              2.981             34.068
 Rotational               0.889              2.981             10.436
 Vibrational             18.249              1.477              0.697
 Vibration     1          0.856              1.250              0.658

 Optimization completed.
    -- Stationary point found.
 Normal termination of Gaussian 09 at Wed Jan 23 22:08:13 2019.
