 Gaussian 09, Revision E.01,
 Gaussian 09:  EM64L-G09RevE.01 30-Nov-2015

 ------------------------------------------------------
 #p b3lyp/6-311++G(3df,2p) freq IOp(2/17=3) IOp(2/18=3)
 ------------------------------------------------------

 ---------
 b3lyp opt
 ---------
 Symbolic Z-matrix:
 Charge = -1 Multiplicity = 1

                         Standard orientation:
 ---------------------------------------------------------------------
 Center     Atomic      Atomic             Coordinates (Angstroms)
 Number     Number       Type             X           Y           Z
 ---------------------------------------------------------------------
      1          6           0       -0.000000    0.000000    0.125557
      2          1           0        0.000000    1.034608   -0.251114
      3          1           0        0.895997   -0.517304   -0.251114
      4          1           0       -0.895997   -0.517304   -0.251114
 ---------------------------------------------------------------------

 SCF Done:  E(RB3LYP) =  -39.8597026499     A.U. after   12 cycles

 The electronic state is 1-A1.
 Alpha  occ. eigenvalues --   -9.88376  -0.39489  -0.12844  -0.12844   0.06407
 Alpha virt. eigenvalues --    0.13947   0.16987   0.16987   0.24032   0.25517
 Alpha virt. eigenvalues --    0.25517   0.29125   0.37942   0.38473   0.38473
 Alpha virt. eigenvalues --    0.52592   0.52592   0.57077   0.57077   0.61442

 Mulliken charges:
               1
     1  C   -1.136733
     2  H    0.045578
     3  H    0.045578
     4  H    0.045578
 Sum of Mulliken charges =  -1.00000

 Dipole moment (field-independent basis, Debye):
    X=              0.0000    Y=             -0.0000    Z=             -1.5588  Tot=              1.5588
 Quadrupole moment (field-independent basis, Debye-Ang):
   XX=            -13.1470   YY=            -13.1470   ZZ=            -20.3192
   XY=             -0.0000   XZ=             -0.0000   YZ=              0.0000

  Exact polarizability:  35.031  -0.000  35.030   0.000   0.015 116.158
 Approx polarizability:  41.410  -0.000  41.410   0.000   0.000 105.199

                      1                      2                      3
                     A1                      E                      E
 Frequencies --    782.0802              1421.6453              1421.6457
 Red. masses --      1.2146                 1.0798                 1.0798
 Frc consts  --      0.4377                 1.2858                 1.2858
 IR Inten    --    122.3829                 0.2328                 0.2329

                      4                      5                      6
                     A1                      E                      E
 Frequencies --   2896.4299              2979.0636              2979.0639
 Red. masses --      1.0222                 1.1020                 1.1020
 Frc consts  --      5.0527                 5.7623                 5.7624
 IR Inten    --    443.0586               222.9745               222.9361

 - Thermochemistry -
 -------------------
 Temperature   298.150 Kelvin.  Pressure   1.00000 Atm.
 Atom     1 has atomic number  6 and mass  12.00000

 Molecular mass:    15.02348 amu.
 Principal axes and moments of inertia in atomic units:
                           1         2         3
     Eigenvalues --     7.00225   7.00225  11.55729
           X            0.98521   0.17136  -0.00000
           Y           -0.17136   0.98521  -0.00000
           Z            0.00000   0.00000   1.00000
 This molecule is an oblate symmetric top.
 Rotational symmetry number  3.
 Rotational temperatures (Kelvin)     12.36943    12.36943     7.49430
 Rotational constants (GHZ):         257.73750   257.73750   156.15611
 Zero-point vibrational energy      74646.5 (Joules/Mol)
                                   17.84095 (Kcal/Mol)
 Vibrational temperatures:   1125.24  2045.43  2045.43  4167.31  4286.20
          (Kelvin)           4286.20

 Zero-point correction=                           0.028431 (Hartree/Particle)
 Thermal correction to Energy=                    0.031361
 Thermal correction to Enthalpy=                  0.032305
 Thermal correction to Gibbs Free Energy=         0.010334
 Sum of electronic and zero-point Energies=            -39.831271
 Sum of electronic and thermal Energies=               -39.828341
 Sum of electronic and thermal Enthalpies=             -39.827397
 Sum of electronic and thermal Free Energies=          -39.849368

                     E (Thermal)             CV                S
                      KCal/Mol        Cal/Mol-Kelvin    Cal/Mol-Kelvin
 Total                   19.680              6.840             46.242
 Electronic               0.000              0.000              0.000
 Translational            0.889              2.981             34.068
 Rotational               0.889              2.981             11.919
 Vibrational             17.902              0.878              0.255

 Optimization completed.
    -- Stationary point found.
 Normal termination of Gaussian 09 at Wed Mar  6 06:05:59 2019.
