 Gaussian 09, Revision E.01,
 Gaussian 09:  EM64L-G09RevE.01 30-Nov-2015

 -------------------------------------------------
 #p b3lyp/6-311++G(3df,2p) opt freq symmetry=Loose
 -------------------------------------------------

 ---------
 b3lyp opt
 ---------
 Symbolic Z-matrix:
 Charge = -1 Multiplicity = 3

 SCF Done:  E(UB3LYP) =  -39.8270048673     A.U. after   12 cycles
 SCF Done:  E(UB3LYP) =  -39.8270468298     A.U. after   10 cycles
 Optimization completed.
    -- Stationary point found.
 Normal termination of Gaussian 09 at Wed Jan 23 22:06:53 2019.

 ----------------------------------------------------------------------
 #P Geom=AllCheck Guess=TCheck SCRF=Check GenChk UB3LYP/6-311++G(3df,2p
 ) Freq
 ----------------------------------------------------------------------

 Structure from the checkpoint file:  "/scratch/sergio/H3C.q-1.m3-1.com-4919757/Gau-8836.chk"
 ---------
 b3lyp opt
 ---------
 Charge = -1 Multiplicity = 3

                         Standard orientation:
 ---------------------------------------------------------------------
 Center     Atomic      Atomic             Coordinates (Angstroms)
 Number     Number       Type             X           Y           Z
 ---------------------------------------------------------------------
      1          6           0        0.000000    0.000000    0.000000
      2          1           0        0.000000    1.083160   -0.000000
      3          1           0       -0.938044   -0.541580   -0.000000
      4          1           0        0.938044   -0.541580   -0.000000
 ---------------------------------------------------------------------

 SCF Done:  E(UB3LYP) =  -39.8270468298     A.U. after    1 cycles

 Unable to determine electronic state:  an orbital has unidentified symmetry.
 Alpha  occ. eigenvalues --  -10.02244  -0.53015  -0.26524  -0.26524  -0.07904
 Alpha  occ. eigenvalues --    0.07172
 Alpha virt. eigenvalues --    0.12006   0.12006   0.18605   0.20389   0.20389
 Alpha virt. eigenvalues --    0.23874   0.28306   0.31940   0.31940   0.45431
 Alpha virt. eigenvalues --    0.45431   0.47555   0.47555   0.52876   0.67370

  Beta  occ. eigenvalues --  -10.00734  -0.48939  -0.25483  -0.25483
  Beta virt. eigenvalues --    0.07235   0.11353   0.14274   0.14274   0.21569
  Beta virt. eigenvalues --    0.21569   0.21728   0.24974   0.30179   0.32804
  Beta virt. eigenvalues --    0.32804   0.47040   0.47040   0.48129   0.48129

 Mulliken charges and spin densities:
               1          2
     1  C    1.963842  -1.312054
     2  H   -0.987947   1.104018
     3  H   -0.987947   1.104018
     4  H   -0.987947   1.104018
 Sum of Mulliken charges =  -1.00000   2.00000

 Dipole moment (field-independent basis, Debye):
    X=             -0.0000    Y=             -0.0000    Z=              0.0000  Tot=              0.0000
 Quadrupole moment (field-independent basis, Debye-Ang):
   XX=            -32.7780   YY=            -32.7780   ZZ=            -23.6087
   XY=              0.0000   XZ=              0.0000   YZ=              0.0000

  Exact polarizability: 897.650   0.000 895.572   0.000  -0.000 162.881
 Approx polarizability: 691.752   0.000 691.752  -0.000  -0.000 135.380

                      1                      2                      3
                     A2"                    ?A                     ?A
 Frequencies --    495.9276              1379.0745              1379.0856
 Red. masses --      1.2356                 1.1010                 1.1010
 Frc consts  --      0.1790                 1.2337                 1.2337
 IR Inten    --    240.0320               279.2903               280.5686

                      4                      5                      6
                     ?B                     ?A                     ?A
 Frequencies --   2992.9265              3210.8632              3210.8739
 Red. masses --      1.0078                 1.1195                 1.1195
 Frc consts  --      5.3190                 6.7999                 6.8000
 IR Inten    --      0.0001                 1.5882                 1.7245

 - Thermochemistry -
 -------------------
 Temperature   298.150 Kelvin.  Pressure   1.00000 Atm.
 Atom     1 has atomic number  6 and mass  12.00000

 Molecular mass:    15.02348 amu.
 Principal axes and moments of inertia in atomic units:
                           1         2         3
     Eigenvalues --     6.33373   6.33373  12.66746
           X            0.28978   0.95709   0.00000
           Y            0.95709  -0.28978   0.00000
           Z           -0.00000  -0.00000   1.00000
 This molecule is an oblate symmetric top.
 Rotational symmetry number  6.
 Rotational temperatures (Kelvin)     13.67501    13.67501     6.83750
 Rotational constants (GHZ):         284.94131   284.94131   142.47065
 Zero-point vibrational energy      75776.0 (Joules/Mol)
                                   18.11089 (Kcal/Mol)
 Warning -- explicit consideration of   1 degrees of freedom as
           vibrations may cause significant error
 Vibrational temperatures:    713.53  1984.18  1984.19  4306.15  4619.71
          (Kelvin)           4619.73

 Zero-point correction=                           0.028862 (Hartree/Particle)
 Thermal correction to Energy=                    0.031937
 Thermal correction to Enthalpy=                  0.032882
 Thermal correction to Gibbs Free Energy=         0.010364
 Sum of electronic and zero-point Energies=            -39.798185
 Sum of electronic and thermal Energies=               -39.795109
 Sum of electronic and thermal Enthalpies=             -39.794165
 Sum of electronic and thermal Free Energies=          -39.816683

                     E (Thermal)             CV                S
                      KCal/Mol        Cal/Mol-Kelvin    Cal/Mol-Kelvin
 Total                   20.041              7.448             47.392
 Electronic               0.000              0.000              2.183
 Translational            0.889              2.981             34.068
 Rotational               0.889              2.981             10.433
 Vibrational             18.264              1.487              0.708
 Vibration     1          0.851              1.259              0.668

 Optimization completed.
    -- Stationary point found.
 Normal termination of Gaussian 09 at Wed Jan 23 22:07:12 2019.
