 Gaussian 09, Revision E.01,
 Gaussian 09:  EM64L-G09RevE.01 30-Nov-2015

 ------------------------------------------------------
 #p b3lyp/6-311++G(3df,2p) freq IOp(2/17=3) IOp(2/18=3)
 ------------------------------------------------------

 ---------
 b3lyp opt
 ---------
 Symbolic Z-matrix:
 Charge = -1 Multiplicity = 3

                         Standard orientation:
 ---------------------------------------------------------------------
 Center     Atomic      Atomic             Coordinates (Angstroms)
 Number     Number       Type             X           Y           Z
 ---------------------------------------------------------------------
      1          6           0        0.000000    0.000000    0.000000
      2          1           0        0.000000    1.083279   -0.000000
      3          1           0        0.938147   -0.541639   -0.000000
      4          1           0       -0.938147   -0.541639   -0.000000
 ---------------------------------------------------------------------

 SCF Done:  E(UB3LYP) =  -39.8270468928     A.U. after   12 cycles

 The electronic state is 3-A2".
 Alpha  occ. eigenvalues --  -10.02247  -0.53011  -0.26521  -0.26521  -0.07904
 Alpha  occ. eigenvalues --    0.07172
 Alpha virt. eigenvalues --    0.12006   0.12006   0.18605   0.20388   0.20388
 Alpha virt. eigenvalues --    0.23874   0.28302   0.31938   0.31938   0.45431
 Alpha virt. eigenvalues --    0.45431   0.47555   0.47555   0.52875   0.67370

  Beta  occ. eigenvalues --  -10.00736  -0.48935  -0.25480  -0.25480
  Beta virt. eigenvalues --    0.07235   0.11353   0.14274   0.14274   0.21569
  Beta virt. eigenvalues --    0.21569   0.21728   0.24975   0.30176   0.32803
  Beta virt. eigenvalues --    0.32803   0.47040   0.47040   0.48129   0.48129

 Mulliken charges and spin densities:
               1          2
     1  C    1.963464  -1.311565
     2  H   -0.987821   1.103855
     3  H   -0.987821   1.103855
     4  H   -0.987821   1.103855
 Sum of Mulliken charges =  -1.00000   2.00000

 Dipole moment (field-independent basis, Debye):
    X=              0.0000    Y=              0.0000    Z=              0.0000  Tot=              0.0000
 Quadrupole moment (field-independent basis, Debye-Ang):
   XX=            -32.7777   YY=            -32.7777   ZZ=            -23.6080
   XY=              0.0000   XZ=             -0.0000   YZ=             -0.0000

  Exact polarizability: 897.570   0.000 895.490   0.000  -0.000 162.863
 Approx polarizability: 691.702  -0.000 691.702   0.000   0.000 135.370

                      1                      2                      3
                     A2"                    E'                     E'
 Frequencies --    496.9147              1379.2395              1379.2506
 Red. masses --      1.2356                 1.1010                 1.1010
 Frc consts  --      0.1798                 1.2340                 1.2340
 IR Inten    --    239.9134               279.0422               280.3220

                      4                      5                      6
                     A1'                    E'                     E'
 Frequencies --   2991.8335              3209.7482              3209.7588
 Red. masses --      1.0078                 1.1195                 1.1195
 Frc consts  --      5.3151                 6.7952                 6.7953
 IR Inten    --      0.0001                 1.6165                 1.7541

 - Thermochemistry -
 -------------------
 Temperature   298.150 Kelvin.  Pressure   1.00000 Atm.
 Atom     1 has atomic number  6 and mass  12.00000

 Molecular mass:    15.02348 amu.
 Principal axes and moments of inertia in atomic units:
                           1         2         3
     Eigenvalues --     6.33512   6.33512  12.67023
           X            0.75593   0.65465   0.00000
           Y           -0.65465   0.75593   0.00000
           Z            0.00000  -0.00000   1.00000
 This molecule is an oblate symmetric top.
 Rotational symmetry number  6.
 Rotational temperatures (Kelvin)     13.67202    13.67202     6.83601
 Rotational constants (GHZ):         284.87892   284.87892   142.43946
 Zero-point vibrational energy      75764.0 (Joules/Mol)
                                   18.10802 (Kcal/Mol)
 Warning -- explicit consideration of   1 degrees of freedom as
           vibrations may cause significant error
 Vibrational temperatures:    714.95  1984.42  1984.43  4304.58  4618.11
          (Kelvin)           4618.12

 Zero-point correction=                           0.028857 (Hartree/Particle)
 Thermal correction to Energy=                    0.031932
 Thermal correction to Enthalpy=                  0.032876
 Thermal correction to Gibbs Free Energy=         0.010360
 Sum of electronic and zero-point Energies=            -39.798190
 Sum of electronic and thermal Energies=               -39.795115
 Sum of electronic and thermal Enthalpies=             -39.794171
 Sum of electronic and thermal Free Energies=          -39.816687

                     E (Thermal)             CV                S
                      KCal/Mol        Cal/Mol-Kelvin    Cal/Mol-Kelvin
 Total                   20.038              7.446             47.390
 Electronic               0.000              0.000              2.183
 Translational            0.889              2.981             34.068
 Rotational               0.889              2.981             10.434
 Vibrational             18.260              1.484              0.705
 Vibration     1          0.852              1.257              0.666

 Optimization completed.
    -- Stationary point found.
 Normal termination of Gaussian 09 at Wed Mar  6 06:06:00 2019.
