 Gaussian 09, Revision E.01,
 Gaussian 09:  EM64L-G09RevE.01 30-Nov-2015

 ------------------------------------------------------
 #p b3lyp/6-311++G(3df,2p) freq IOp(2/17=3) IOp(2/18=3)
 ------------------------------------------------------

 ---------
 b3lyp opt
 ---------
 Symbolic Z-matrix:
 Charge = -1 Multiplicity = 1

                         Standard orientation:
 ---------------------------------------------------------------------
 Center     Atomic      Atomic             Coordinates (Angstroms)
 Number     Number       Type             X           Y           Z
 ---------------------------------------------------------------------
      1          6           0        0.000000    0.585408   -0.000000
      2          6           0       -1.194398   -0.045049   -0.000000
      3          1           0       -2.112754    0.531240   -0.000000
      4          1           0       -1.297033   -1.139791    0.000000
      5          1           0        1.864136    0.201927    0.000000
      6          8           0        1.089005   -0.354441    0.000000
 ---------------------------------------------------------------------

 SCF Done:  E(RB3LYP) =  -153.231460445     A.U. after   15 cycles

 The electronic state is 1-A'.
 Alpha  occ. eigenvalues --  -18.92936  -9.96348  -9.92269  -0.81525  -0.50643
 Alpha  occ. eigenvalues --   -0.34221  -0.25185  -0.20183  -0.17856  -0.15378
 Alpha  occ. eigenvalues --   -0.00830   0.01769
 Alpha virt. eigenvalues --    0.13151   0.13820   0.15035   0.20742   0.21110
 Alpha virt. eigenvalues --    0.22177   0.22649   0.23845   0.27330   0.28952
 Alpha virt. eigenvalues --    0.29370   0.29530   0.31885   0.33599   0.35948

 Mulliken charges:
               1
     1  C   -0.312904
     2  C   -0.309181
     3  H    0.051265
     4  H   -0.083140
     5  H    0.202450
     6  O   -0.548490
 Sum of Mulliken charges =  -1.00000

 Dipole moment (field-independent basis, Debye):
    X=              1.3905    Y=             -1.6056    Z=              0.0000  Tot=              2.1240
 Quadrupole moment (field-independent basis, Debye-Ang):
   XX=            -23.9590   YY=            -30.0274   ZZ=            -26.2692
   XY=              0.8005   XZ=             -0.0000   YZ=              0.0000

  Exact polarizability:  77.505  13.566  79.426  -0.000   0.000  51.795
 Approx polarizability:  96.963  16.240  89.840   0.000  -0.000  63.083

                      1                      2                      3
                     A"                     A'                     A"
 Frequencies --    435.9773               485.1480               693.5049
 Red. masses --      1.1084                 2.4343                 1.1683
 Frc consts  --      0.1241                 0.3376                 0.3311
 IR Inten    --     95.6690                 4.8120                65.4190

                      4                      5                      6
                     A"                     A'                     A'
 Frequencies --    739.3227               830.8940              1030.3357
 Red. masses --      1.3915                 5.5791                 1.6195
 Frc consts  --      0.4481                 2.2694                 1.0129
 IR Inten    --     19.2520               194.1133                 7.9222

                      7                      8                      9
                     A'                     A'                     A'
 Frequencies --   1182.2894              1358.2860              1540.3344
 Red. masses --      1.2907                 1.2908                 3.1400
 Frc consts  --      1.0630                 1.4031                 4.3894
 IR Inten    --    155.5570                10.8274                78.1010

                     10                     11                     12
                     A'                     A'                     A'
 Frequencies --   2941.5317              3132.5752              3922.2521
 Red. masses --      1.0699                 1.0929                 1.0666
 Frc consts  --      5.4545                 6.3189                 9.6673
 IR Inten    --    279.7363                37.6408               118.6361

 - Thermochemistry -
 -------------------
 Temperature   298.150 Kelvin.  Pressure   1.00000 Atm.
 Atom     1 has atomic number  6 and mass  12.00000

 Molecular mass:    43.01839 amu.
 Principal axes and moments of inertia in atomic units:
                           1         2         3
     Eigenvalues --    25.63470 165.44280 191.07750
           X            0.99232   0.12367   0.00000
           Y           -0.12367   0.99232   0.00000
           Z            0.00000  -0.00000   1.00000
 This molecule is an asymmetric top.
 Rotational symmetry number  1.
 Rotational temperatures (Kelvin)      3.37877     0.52353     0.45329
 Rotational constants (GHZ):          70.40228    10.90855     9.44507
 Zero-point vibrational energy     109413.2 (Joules/Mol)
                                   26.15037 (Kcal/Mol)
 Warning -- explicit consideration of   2 degrees of freedom as
           vibrations may cause significant error
 Vibrational temperatures:    627.27   698.02   997.80  1063.72  1195.47
          (Kelvin)           1482.42  1701.05  1954.27  2216.19  4232.20
                             4507.07  5643.24

 Zero-point correction=                           0.041673 (Hartree/Particle)
 Thermal correction to Energy=                    0.045364
 Thermal correction to Enthalpy=                  0.046308
 Thermal correction to Gibbs Free Energy=         0.017335
 Sum of electronic and zero-point Energies=           -153.189787
 Sum of electronic and thermal Energies=              -153.186097
 Sum of electronic and thermal Enthalpies=            -153.185152
 Sum of electronic and thermal Free Energies=         -153.214126

                     E (Thermal)             CV                S
                      KCal/Mol        Cal/Mol-Kelvin    Cal/Mol-Kelvin
 Total                   28.466             11.584             60.979
 Electronic               0.000              0.000              0.000
 Translational            0.889              2.981             37.204
 Rotational               0.889              2.981             21.321
 Vibrational             26.689              5.623              2.454
 Vibration     1          0.796              1.392              0.839
 Vibration     2          0.841              1.283              0.696

 Optimization completed.
    -- Stationary point found.
 Normal termination of Gaussian 09 at Thu Mar  7 08:14:24 2019.
