 Gaussian 09, Revision E.01,
 Gaussian 09:  EM64L-G09RevE.01 30-Nov-2015

 -------------------------------------------------
 #p b3lyp/6-311++G(3df,2p) opt freq symmetry=Loose
 -------------------------------------------------

 ---------
 b3lyp opt
 ---------
 Symbolic Z-matrix:
 Charge = -1 Multiplicity = 3

 SCF Done:  E(UB3LYP) =  -77.8917964017     A.U. after   21 cycles
 SCF Done:  E(UB3LYP) =  -77.8990879867     A.U. after   17 cycles
 SCF Done:  E(UB3LYP) =  -77.8991347400     A.U. after   16 cycles
 SCF Done:  E(UB3LYP) =  -77.9002818098     A.U. after   19 cycles
 SCF Done:  E(UB3LYP) =  -77.8985039427     A.U. after   19 cycles
 SCF Done:  E(UB3LYP) =  -77.9021088358     A.U. after   17 cycles
 SCF Done:  E(UB3LYP) =  -77.8621702746     A.U. after   20 cycles
 SCF Done:  E(UB3LYP) =  -77.9030267468     A.U. after   17 cycles
 SCF Done:  E(UB3LYP) =  -77.8990445369     A.U. after   19 cycles
 SCF Done:  E(UB3LYP) =  -77.9032348487     A.U. after   17 cycles
 SCF Done:  E(UB3LYP) =  -77.9031918174     A.U. after   17 cycles
 SCF Done:  E(UB3LYP) =  -77.9032739540     A.U. after   12 cycles
 SCF Done:  E(UB3LYP) =  -77.9032827331     A.U. after   15 cycles
 SCF Done:  E(UB3LYP) =  -77.9032838869     A.U. after   16 cycles
 Optimization completed.
    -- Stationary point found.
 Normal termination of Gaussian 09 at Sun Feb  3 22:59:25 2019.

 ----------------------------------------------------------------------
 #P Geom=AllCheck Guess=TCheck SCRF=Check GenChk UB3LYP/6-311++G(3df,2p
 ) Freq
 ----------------------------------------------------------------------

 Structure from the checkpoint file:  "/scratch/sergio/H3C2.q-1.m3-5.com-4935944/Gau-1900.chk"
 ---------
 b3lyp opt
 ---------
 Charge = -1 Multiplicity = 3

                         Standard orientation:
 ---------------------------------------------------------------------
 Center     Atomic      Atomic             Coordinates (Angstroms)
 Number     Number       Type             X           Y           Z
 ---------------------------------------------------------------------
      1          6           0        0.047571   -0.584738   -0.000000
      2          1           0       -0.889023   -1.152240    0.000000
      3          1           0        0.950101   -1.191005   -0.000000
      4          6           0        0.047571    0.716706   -0.000000
      5          1           0       -0.631932    1.551439    0.000000
 ---------------------------------------------------------------------

 SCF Done:  E(UB3LYP) =  -77.9032838869     A.U. after    1 cycles

 The electronic state is 3-A'.
 Alpha  occ. eigenvalues --  -10.05613 -10.03535  -0.63150  -0.44002  -0.32562
 Alpha  occ. eigenvalues --   -0.29786  -0.15186  -0.09625   0.06881
 Alpha virt. eigenvalues --    0.09585   0.10836   0.12458   0.17609   0.17833
 Alpha virt. eigenvalues --    0.18719   0.22523   0.23003   0.23173   0.24942
 Alpha virt. eigenvalues --    0.25362   0.27670   0.28445   0.38737   0.41663

  Beta  occ. eigenvalues --  -10.04090 -10.03606  -0.61347  -0.41663  -0.31059
  Beta  occ. eigenvalues --   -0.28037  -0.14385
  Beta virt. eigenvalues --    0.05481   0.10832   0.11869   0.12923   0.13237
  Beta virt. eigenvalues --    0.17724   0.19236   0.20559   0.22785   0.23740
  Beta virt. eigenvalues --    0.24047   0.25804   0.26099   0.28308   0.29757

 Mulliken charges and spin densities:
               1          2
     1  C    1.938775  -2.349963
     2  H   -0.338983   0.548652
     3  H   -1.206218   1.393585
     4  C    0.204019   0.591346
     5  H   -1.597592   1.816380
 Sum of Mulliken charges =  -1.00000   2.00000

 Dipole moment (field-independent basis, Debye):
    X=              1.5371    Y=             -0.0169    Z=             -0.0000  Tot=              1.5372
 Quadrupole moment (field-independent basis, Debye-Ang):
   XX=            -43.8385   YY=            -43.1397   ZZ=            -30.6650
   XY=              5.2386   XZ=              0.0000   YZ=             -0.0000

  Exact polarizability:1363.911-322.0951991.326   0.000   0.000 174.842
 Approx polarizability:1162.996-527.6941600.318   0.000   0.000 148.402

                      1                      2                      3
                     A'                     A"                     A"
 Frequencies --    647.1981               821.8805               926.0566
 Red. masses --      1.0665                 1.1805                 1.3228
 Frc consts  --      0.2632                 0.4698                 0.6684
 IR Inten    --   1487.0426               680.6285               295.7146

                      4                      5                      6
                     A'                     A'                     A'
 Frequencies --    971.8672              1377.5310              1637.8486
 Red. masses --      1.5017                 1.0926                 5.5411
 Frc consts  --      0.8357                 1.2215                 8.7577
 IR Inten    --   2462.0695              1080.1584               129.4849

                      7                      8                      9
                     A'                     A'                     A'
 Frequencies --   2981.5895              3098.0931              3232.2140
 Red. masses --      1.0634                 1.1001                 1.1069
 Frc consts  --      5.5698                 6.2210                 6.8133
 IR Inten    --     68.3529               307.5409               288.6504

 - Thermochemistry -
 -------------------
 Temperature   298.150 Kelvin.  Pressure   1.00000 Atm.
 Atom     1 has atomic number  6 and mass  12.00000

 Molecular mass:    27.02348 amu.
 Principal axes and moments of inertia in atomic units:
                           1         2         3
     Eigenvalues --     7.39466  55.41623  62.81089
           X           -0.07737   0.99700   0.00000
           Y            0.99700   0.07737   0.00000
           Z           -0.00000  -0.00000   1.00000
 This molecule is an asymmetric top.
 Rotational symmetry number  1.
 Rotational temperatures (Kelvin)     11.71301     1.56297     1.37896
 Rotational constants (GHZ):         244.05992    32.56702    28.73293
 Zero-point vibrational energy      93872.6 (Joules/Mol)
                                   22.43610 (Kcal/Mol)
 Vibrational temperatures:    931.17  1182.50  1332.39  1398.30  1981.96
          (Kelvin)           2356.50  4289.84  4457.46  4650.43

 Zero-point correction=                           0.035754 (Hartree/Particle)
 Thermal correction to Energy=                    0.038896
 Thermal correction to Enthalpy=                  0.039840
 Thermal correction to Gibbs Free Energy=         0.012892
 Sum of electronic and zero-point Energies=            -77.867530
 Sum of electronic and thermal Energies=               -77.864388
 Sum of electronic and thermal Enthalpies=             -77.863444
 Sum of electronic and thermal Free Energies=          -77.890392

                     E (Thermal)             CV                S
                      KCal/Mol        Cal/Mol-Kelvin    Cal/Mol-Kelvin
 Total                   24.407              8.546             56.717
 Electronic               0.000              0.000              2.183
 Translational            0.889              2.981             35.818
 Rotational               0.889              2.981             17.894
 Vibrational             22.630              2.584              0.822

 Optimization completed.
    -- Stationary point found.
 Normal termination of Gaussian 09 at Sun Feb  3 23:00:59 2019.
