 Gaussian 09, Revision E.01,
 Gaussian 09:  EM64L-G09RevE.01 30-Nov-2015

 ------------------------------------------------------
 #p b3lyp/6-311++G(3df,2p) freq IOp(2/17=3) IOp(2/18=3)
 ------------------------------------------------------

 ---------
 b3lyp opt
 ---------
 Symbolic Z-matrix:
 Charge = -1 Multiplicity = 3

                         Standard orientation:
 ---------------------------------------------------------------------
 Center     Atomic      Atomic             Coordinates (Angstroms)
 Number     Number       Type             X           Y           Z
 ---------------------------------------------------------------------
      1          6           0        1.167690    0.090402   -0.008790
      2          6           0       -0.236357   -0.420909   -0.007833
      3          1           0        1.526112    0.108180    1.043247
      4          1           0        1.833105   -0.573472   -0.553458
      5          1           0        1.244372    1.101892   -0.406621
      6          8           0       -1.273949    0.168306    0.002071
 ---------------------------------------------------------------------

 SCF Done:  E(UB3LYP) =  -153.217943846     A.U. after   23 cycles

 The electronic state is 3-A.
 Alpha  occ. eigenvalues --  -19.01858 -10.11428 -10.04357  -0.94070  -0.61549
 Alpha  occ. eigenvalues --   -0.40605  -0.32492  -0.31882  -0.30937  -0.24520
 Alpha  occ. eigenvalues --   -0.24350  -0.05517   0.06686
 Alpha virt. eigenvalues --    0.10058   0.11529   0.11947   0.14510   0.18449
 Alpha virt. eigenvalues --    0.19015   0.19611   0.20562   0.21172   0.23351
 Alpha virt. eigenvalues --    0.25085   0.29330   0.29500   0.33040   0.35425

  Beta  occ. eigenvalues --  -19.00968 -10.10286 -10.03978  -0.92333  -0.60151
  Beta  occ. eigenvalues --   -0.38423  -0.30569  -0.29980  -0.29537  -0.23565
  Beta  occ. eigenvalues --   -0.21141
  Beta virt. eigenvalues --    0.06984   0.11652   0.12642   0.13492   0.13897
  Beta virt. eigenvalues --    0.14913   0.19036   0.19505   0.20196   0.21162
  Beta virt. eigenvalues --    0.21803   0.23986   0.26139   0.30005   0.30365

 Mulliken charges and spin densities:
               1          2
     1  C    2.944140  -3.196559
     2  C   -0.266966   1.307945
     3  H   -1.394879   1.568961
     4  H   -1.143047   1.293559
     5  H   -0.592033   0.767006
     6  O   -0.547213   0.259088
 Sum of Mulliken charges =  -1.00000   2.00000

 Dipole moment (field-independent basis, Debye):
    X=             -6.5816    Y=              0.1484    Z=             -1.0929  Tot=              6.6734
 Quadrupole moment (field-independent basis, Debye-Ang):
   XX=            -56.2935   YY=            -38.1228   ZZ=            -42.4288
   XY=              1.6111   XZ=             -3.1228   YZ=             -2.0840

  Exact polarizability: 406.965 -73.140 800.508 -56.302  20.777 829.639
 Approx polarizability: 371.984 -65.612 467.638 -18.411  87.681 676.857

                      1                      2                      3
                      A                      A                      A
 Frequencies --    113.8218               453.7846               826.5817
 Red. masses --      1.6910                 3.2074                 2.3033
 Frc consts  --      0.0129                 0.3891                 0.9272
 IR Inten    --    279.5717                 0.8618               228.1965

                      4                      5                      6
                      A                      A                      A
 Frequencies --    942.2841              1046.7295              1296.0595
 Red. masses --      1.7074                 1.6681                 1.2862
 Frc consts  --      0.8932                 1.0768                 1.2729
 IR Inten    --    149.3053                96.6937               903.3338

                      7                      8                      9
                      A                      A                      A
 Frequencies --   1410.3940              1459.7790              1646.2533
 Red. masses --      1.0429                 1.0662                 6.1575
 Frc consts  --      1.2223                 1.3387                 9.8321
 IR Inten    --   1023.8837               941.5684              7293.4828

                     10                     11                     12
                      A                      A                      A
 Frequencies --   2755.5479              3046.8250              3110.7015
 Red. masses --      1.0828                 1.0625                 1.1037
 Frc consts  --      4.8441                 5.8116                 6.2921
 IR Inten    --   3380.9596               294.4393               333.9281

 - Thermochemistry -
 -------------------
 Temperature   298.150 Kelvin.  Pressure   1.00000 Atm.
 Atom     1 has atomic number  6 and mass  12.00000

 Molecular mass:    43.01839 amu.
 Principal axes and moments of inertia in atomic units:
                           1         2         3
     Eigenvalues --    20.71874 183.48963 192.96966
           X            0.99993   0.01202   0.00159
           Y           -0.01201   0.99991  -0.00585
           Z           -0.00166   0.00583   0.99998
 This molecule is an asymmetric top.
 Rotational symmetry number  1.
 Rotational temperatures (Kelvin)      4.18046     0.47204     0.44885
 Rotational constants (GHZ):          87.10672     9.83566     9.35246
 Zero-point vibrational energy     108314.4 (Joules/Mol)
                                   25.88777 (Kcal/Mol)
 Warning -- explicit consideration of   2 degrees of freedom as
           vibrations may cause significant error
 Vibrational temperatures:    163.76   652.89  1189.27  1355.73  1506.01
          (Kelvin)           1864.74  2029.24  2100.29  2368.59  3964.61
                             4383.70  4475.60

 Zero-point correction=                           0.041255 (Hartree/Particle)
 Thermal correction to Energy=                    0.045231
 Thermal correction to Enthalpy=                  0.046175
 Thermal correction to Gibbs Free Energy=         0.015271
 Sum of electronic and zero-point Energies=           -153.176689
 Sum of electronic and thermal Energies=              -153.172713
 Sum of electronic and thermal Enthalpies=            -153.171768
 Sum of electronic and thermal Free Energies=         -153.202673

                     E (Thermal)             CV                S
                      KCal/Mol        Cal/Mol-Kelvin    Cal/Mol-Kelvin
 Total                   28.383             11.017             65.044
 Electronic               0.000              0.000              2.183
 Translational            0.889              2.981             37.204
 Rotational               0.889              2.981             21.222
 Vibrational             26.606              5.056              4.434
 Vibration     1          0.607              1.938              3.203
 Vibration     2          0.812              1.353              0.784

 Normal termination of Gaussian 09 at Thu Mar  7 08:22:08 2019.
