 Gaussian 09, Revision E.01,
 Gaussian 09:  EM64L-G09RevE.01 30-Nov-2015

 ------------------------------------------------------
 #p b3lyp/6-311++G(3df,2p) freq IOp(2/17=3) IOp(2/18=3)
 ------------------------------------------------------

 ---------
 b3lyp opt
 ---------
 Symbolic Z-matrix:
 Charge = -1 Multiplicity = 1

                         Standard orientation:
 ---------------------------------------------------------------------
 Center     Atomic      Atomic             Coordinates (Angstroms)
 Number     Number       Type             X           Y           Z
 ---------------------------------------------------------------------
      1          6           0       -0.000000    1.273218    0.000000
      2          6           0       -0.435306    0.023369   -0.000000
      3          1           0       -1.455092   -0.379670   -0.000000
      4          1           0       -0.826991    1.997434    0.000000
      5          1           0        1.311578   -0.652089    0.000000
      6          8           0        0.447793   -1.093150   -0.000000
 ---------------------------------------------------------------------

 SCF Done:  E(RB3LYP) =  -153.232549443     A.U. after   15 cycles

 The electronic state is 1-A'.
 Alpha  occ. eigenvalues --  -18.93292  -9.99309  -9.90625  -0.82602  -0.50474
 Alpha  occ. eigenvalues --   -0.37210  -0.25166  -0.22480  -0.16716  -0.15179
 Alpha  occ. eigenvalues --   -0.01036   0.01464
 Alpha virt. eigenvalues --    0.13090   0.14463   0.14873   0.20948   0.21075
 Alpha virt. eigenvalues --    0.21489   0.22576   0.25090   0.26094   0.27270
 Alpha virt. eigenvalues --    0.29812   0.29864   0.31284   0.36302   0.36759

 Mulliken charges:
               1
     1  C   -0.799429
     2  C    0.149014
     3  H   -0.002444
     4  H    0.084270
     5  H    0.126725
     6  O   -0.558136
 Sum of Mulliken charges =  -1.00000

 Dipole moment (field-independent basis, Debye):
    X=             -1.3003    Y=             -2.8353    Z=             -0.0000  Tot=              3.1193
 Quadrupole moment (field-independent basis, Debye-Ang):
   XX=            -23.7764   YY=            -34.3814   ZZ=            -25.5748
   XY=             -2.7199   XZ=             -0.0000   YZ=             -0.0000

  Exact polarizability:  74.975   6.170  80.714   0.000  -0.000  44.189
 Approx polarizability:  88.130   5.713 110.586   0.000  -0.000  55.191

                      1                      2                      3
                     A'                     A"                     A"
 Frequencies --    523.2068               549.6974               719.0693
 Red. masses --      2.7312                 1.1520                 1.5791
 Frc consts  --      0.4405                 0.2051                 0.4811
 IR Inten    --     72.0602                81.7392                38.2461

                      4                      5                      6
                     A'                     A"                     A'
 Frequencies --    858.6174               901.0596              1009.3760
 Red. masses --      2.2297                 1.1754                 1.8373
 Frc consts  --      0.9685                 0.5623                 1.1029
 IR Inten    --    225.9506                 4.9572                 4.7532

                      7                      8                      9
                     A'                     A'                     A'
 Frequencies --   1228.0380              1321.4802              1571.0219
 Red. masses --      1.3023                 1.2653                 5.0051
 Frc consts  --      1.1572                 1.3018                 7.2782
 IR Inten    --     57.8841                 1.5934               279.0384

                     10                     11                     12
                     A'                     A'                     A'
 Frequencies --   2936.7510              2994.0118              3677.0216
 Red. masses --      1.0734                 1.0981                 1.0631
 Frc consts  --      5.4544                 5.7998                 8.4685
 IR Inten    --    146.2268               341.3909                28.7314

 - Thermochemistry -
 -------------------
 Temperature   298.150 Kelvin.  Pressure   1.00000 Atm.
 Atom     1 has atomic number  6 and mass  12.00000

 Molecular mass:    43.01839 amu.
 Principal axes and moments of inertia in atomic units:
                           1         2         3
     Eigenvalues --    26.00976 163.84000 189.84976
           X           -0.26610   0.96394   0.00000
           Y            0.96394   0.26610   0.00000
           Z           -0.00000  -0.00000   1.00000
 This molecule is an asymmetric top.
 Rotational symmetry number  1.
 Rotational temperatures (Kelvin)      3.33005     0.52865     0.45622
 Rotational constants (GHZ):          69.38707    11.01527     9.50615
 Zero-point vibrational energy     109394.6 (Joules/Mol)
                                   26.14594 (Kcal/Mol)
 Warning -- explicit consideration of   2 degrees of freedom as
           vibrations may cause significant error
 Vibrational temperatures:    752.78   790.89  1034.58  1235.36  1296.42
          (Kelvin)           1452.27  1766.87  1901.31  2260.35  4225.32
                             4307.71  5290.41

 Zero-point correction=                           0.041666 (Hartree/Particle)
 Thermal correction to Energy=                    0.045183
 Thermal correction to Enthalpy=                  0.046127
 Thermal correction to Gibbs Free Energy=         0.017420
 Sum of electronic and zero-point Energies=           -153.190883
 Sum of electronic and thermal Energies=              -153.187367
 Sum of electronic and thermal Enthalpies=            -153.186423
 Sum of electronic and thermal Free Energies=         -153.215130

                     E (Thermal)             CV                S
                      KCal/Mol        Cal/Mol-Kelvin    Cal/Mol-Kelvin
 Total                   28.353             10.902             60.419
 Electronic               0.000              0.000              0.000
 Translational            0.889              2.981             37.204
 Rotational               0.889              2.981             21.319
 Vibrational             26.575              4.941              1.896
 Vibration     1          0.878              1.199              0.603
 Vibration     2          0.905              1.140              0.545

 Optimization completed.
    -- Stationary point found.
 Normal termination of Gaussian 09 at Thu Mar  7 08:10:07 2019.
