 Gaussian 09, Revision E.01,
 Gaussian 09:  EM64L-G09RevE.01 30-Nov-2015

 -------------------------------------------------
 #p b3lyp/6-311++G(3df,2p) opt freq symmetry=Loose
 -------------------------------------------------

 ---------
 b3lyp opt
 ---------
 Symbolic Z-matrix:
 Charge = -1 Multiplicity = 1

 SCF Done:  E(RB3LYP) =  -77.9108143664     A.U. after   18 cycles
 SCF Done:  E(RB3LYP) =  -77.9159813886     A.U. after   15 cycles
 SCF Done:  E(RB3LYP) =  -77.9169263134     A.U. after   16 cycles
 SCF Done:  E(RB3LYP) =  -77.9303956924     A.U. after   16 cycles
 SCF Done:  E(RB3LYP) =  -77.9334449479     A.U. after   14 cycles
 SCF Done:  E(RB3LYP) =  -77.9577833235     A.U. after   12 cycles
 SCF Done:  E(RB3LYP) =  -77.8757611923     A.U. after   16 cycles
 SCF Done:  E(RB3LYP) =  -77.9579087948     A.U. after   11 cycles
 SCF Done:  E(RB3LYP) =  -77.9479195011     A.U. after   12 cycles
 SCF Done:  E(RB3LYP) =  -77.9585489090     A.U. after   10 cycles
 SCF Done:  E(RB3LYP) =  -77.9586077723     A.U. after   10 cycles
 SCF Done:  E(RB3LYP) =  -77.9586140690     A.U. after   10 cycles
 Optimization completed.
    -- Stationary point found.
 Normal termination of Gaussian 09 at Sun Feb  3 22:52:34 2019.

 ----------------------------------------------------------------------
 #P Geom=AllCheck Guess=TCheck SCRF=Check GenChk RB3LYP/6-311++G(3df,2p
 ) Freq
 ----------------------------------------------------------------------

 Structure from the checkpoint file:  "/scratch/sergio/H3C2.q-1.m1-5.com-4935938/Gau-980.chk"
 ---------
 b3lyp opt
 ---------
 Charge = -1 Multiplicity = 1

                         Standard orientation:
 ---------------------------------------------------------------------
 Center     Atomic      Atomic             Coordinates (Angstroms)
 Number     Number       Type             X           Y           Z
 ---------------------------------------------------------------------
      1          6           0        0.067639   -0.572515   -0.000000
      2          1           0       -0.828357   -1.226386   -0.000000
      3          1           0        0.999071   -1.150410   -0.000000
      4          6           0        0.067639    0.777577    0.000000
      5          1           0       -0.982387    1.146424    0.000000
 ---------------------------------------------------------------------

 SCF Done:  E(RB3LYP) =  -77.9586140690     A.U. after    1 cycles

 The electronic state is 1-A'.
 Alpha  occ. eigenvalues --   -9.93524  -9.90660  -0.50170  -0.31625  -0.20659
 Alpha  occ. eigenvalues --   -0.13623  -0.03066   0.03869
 Alpha virt. eigenvalues --    0.13209   0.14885   0.15645   0.20145   0.22364
 Alpha virt. eigenvalues --    0.22656   0.23480   0.27134   0.27755   0.29833
 Alpha virt. eigenvalues --    0.29880   0.30249   0.33311   0.36270   0.40731

 Mulliken charges:
               1
     1  C   -0.409591
     2  H   -0.072667
     3  H    0.070573
     4  C   -0.664116
     5  H    0.075801
 Sum of Mulliken charges =  -1.00000

 Dipole moment (field-independent basis, Debye):
    X=             -1.6073    Y=             -2.8752    Z=             -0.0000  Tot=              3.2940
 Quadrupole moment (field-independent basis, Debye-Ang):
   XX=            -19.8766   YY=            -25.0648   ZZ=            -20.2653
   XY=             -3.3610   XZ=             -0.0000   YZ=             -0.0000

  Exact polarizability:  58.986  19.515  87.211   0.000  -0.000  42.863
 Approx polarizability:  67.031  14.299 103.995   0.000  -0.000  52.787

                      1                      2                      3
                     A"                     A'                     A"
 Frequencies --    860.6309               929.9596              1078.5199
 Red. masses --      1.3630                 1.0619                 1.0760
 Frc consts  --      0.5948                 0.5411                 0.7375
 IR Inten    --     57.0381                29.8026                 2.9979

                      4                      5                      6
                     A'                     A'                     A'
 Frequencies --   1204.7221              1383.6260              1529.3935
 Red. masses --      1.4526                 1.7555                 2.0087
 Frc consts  --      1.2421                 1.9801                 2.7682
 IR Inten    --      9.2013                 6.5888                25.8917

                      7                      8                      9
                     A'                     A'                     A'
 Frequencies --   2742.8149              2829.6837              2957.0172
 Red. masses --      1.0712                 1.0873                 1.0757
 Frc consts  --      4.7481                 5.1297                 5.5418
 IR Inten    --    380.9745               729.0527               121.2456

 - Thermochemistry -
 -------------------
 Temperature   298.150 Kelvin.  Pressure   1.00000 Atm.
 Atom     1 has atomic number  6 and mass  12.00000

 Molecular mass:    27.02348 amu.
 Principal axes and moments of inertia in atomic units:
                           1         2         3
     Eigenvalues --     9.47522  55.03158  64.50680
           X           -0.08968   0.99597   0.00000
           Y            0.99597   0.08968   0.00000
           Z            0.00000   0.00000   1.00000
 This molecule is an asymmetric top.
 Rotational symmetry number  1.
 Rotational temperatures (Kelvin)      9.14109     1.57389     1.34271
 Rotational constants (GHZ):         190.46958    32.79464    27.97753
 Zero-point vibrational energy      92808.5 (Joules/Mol)
                                   22.18176 (Kcal/Mol)
 Vibrational temperatures:   1238.25  1338.00  1551.75  1733.32  1990.73
          (Kelvin)           2200.45  3946.29  4071.28  4254.48

 Zero-point correction=                           0.035349 (Hartree/Particle)
 Thermal correction to Energy=                    0.038348
 Thermal correction to Enthalpy=                  0.039292
 Thermal correction to Gibbs Free Energy=         0.013444
 Sum of electronic and zero-point Energies=            -77.923265
 Sum of electronic and thermal Energies=               -77.920266
 Sum of electronic and thermal Enthalpies=             -77.919322
 Sum of electronic and thermal Free Energies=          -77.945170

                     E (Thermal)             CV                S
                      KCal/Mol        Cal/Mol-Kelvin    Cal/Mol-Kelvin
 Total                   24.064              7.659             54.403
 Electronic               0.000              0.000              0.000
 Translational            0.889              2.981             35.818
 Rotational               0.889              2.981             18.160
 Vibrational             22.286              1.698              0.425

 Optimization completed.
    -- Stationary point found.
 Normal termination of Gaussian 09 at Sun Feb  3 22:53:39 2019.
