 Gaussian 09, Revision E.01,
 Gaussian 09:  EM64L-G09RevE.01 30-Nov-2015

 -------------------------------------------------
 #p b3lyp/6-311++G(3df,2p) opt freq symmetry=Loose
 -------------------------------------------------

 ---------
 b3lyp opt
 ---------
 Symbolic Z-matrix:
 Charge = -1 Multiplicity = 3

 SCF Done:  E(UB3LYP) =  -77.8961952932     A.U. after   27 cycles
 SCF Done:  E(UB3LYP) =  -77.8991210158     A.U. after   22 cycles
 SCF Done:  E(UB3LYP) =  -77.8991738834     A.U. after   19 cycles
 SCF Done:  E(UB3LYP) =  -77.8359968324     A.U. after   21 cycles
 SCF Done:  E(UB3LYP) =  -77.8991744998     A.U. after   16 cycles
 SCF Done:  E(UB3LYP) =  -77.9021926525     A.U. after   20 cycles
 SCF Done:  E(UB3LYP) =  -77.8996980704     A.U. after   19 cycles
 SCF Done:  E(UB3LYP) =  -77.9022556295     A.U. after   16 cycles
 SCF Done:  E(UB3LYP) =  -77.9028811647     A.U. after   18 cycles
 SCF Done:  E(UB3LYP) =  -77.9032808036     A.U. after   16 cycles
 SCF Done:  E(UB3LYP) =  -77.9032836456     A.U. after   15 cycles
 Optimization completed.
    -- Stationary point found.
 Normal termination of Gaussian 09 at Sun Feb  3 22:57:10 2019.

 ----------------------------------------------------------------------
 #P Geom=AllCheck Guess=TCheck SCRF=Check GenChk UB3LYP/6-311++G(3df,2p
 ) Freq
 ----------------------------------------------------------------------

 Structure from the checkpoint file:  "/scratch/sergio/H3C2.q-1.m3-3.com-4935942/Gau-1688.chk"
 ---------
 b3lyp opt
 ---------
 Charge = -1 Multiplicity = 3

                         Standard orientation:
 ---------------------------------------------------------------------
 Center     Atomic      Atomic             Coordinates (Angstroms)
 Number     Number       Type             X           Y           Z
 ---------------------------------------------------------------------
      1          6           0       -0.047466   -0.584593   -0.000000
      2          1           0        0.888465   -1.153424   -0.000000
      3          1           0       -0.949887   -1.190824   -0.000000
      4          6           0       -0.047466    0.716609    0.000000
      5          1           0        0.631015    1.552154    0.000000
 ---------------------------------------------------------------------

 SCF Done:  E(UB3LYP) =  -77.9032836456     A.U. after    1 cycles

 The electronic state is 3-A'.
 Alpha  occ. eigenvalues --  -10.05611 -10.03533  -0.63153  -0.44008  -0.32569
 Alpha  occ. eigenvalues --   -0.29785  -0.15191  -0.09617   0.06880
 Alpha virt. eigenvalues --    0.09584   0.10835   0.12460   0.17608   0.17833
 Alpha virt. eigenvalues --    0.18719   0.22521   0.23004   0.23171   0.24942
 Alpha virt. eigenvalues --    0.25361   0.27675   0.28446   0.38733   0.41666

  Beta  occ. eigenvalues --  -10.04088 -10.03605  -0.61351  -0.41669  -0.31069
  Beta  occ. eigenvalues --   -0.28032  -0.14390
  Beta virt. eigenvalues --    0.05484   0.10831   0.11868   0.12922   0.13238
  Beta virt. eigenvalues --    0.17723   0.19236   0.20559   0.22782   0.23741
  Beta virt. eigenvalues --    0.24045   0.25806   0.26098   0.28312   0.29760

 Mulliken charges and spin densities:
               1          2
     1  C    1.945353  -2.357131
     2  H   -0.339309   0.548989
     3  H   -1.205850   1.393357
     4  C    0.199545   0.596148
     5  H   -1.599740   1.818637
 Sum of Mulliken charges =  -1.00000   2.00000

 Dipole moment (field-independent basis, Debye):
    X=             -1.5372    Y=             -0.0203    Z=              0.0000  Tot=              1.5373
 Quadrupole moment (field-independent basis, Debye-Ang):
   XX=            -43.8274   YY=            -43.1631   ZZ=            -30.6658
   XY=             -5.2355   XZ=              0.0000   YZ=              0.0000

  Exact polarizability:1363.231 321.5531992.504  -0.000   0.000 174.831
 Approx polarizability:1161.406 527.1021602.758  -0.000  -0.000 148.390

                      1                      2                      3
                     A'                     A"                     A"
 Frequencies --    646.4465               821.9695               926.2923
 Red. masses --      1.0668                 1.1803                 1.3238
 Frc consts  --      0.2627                 0.4698                 0.6692
 IR Inten    --   1496.2009               684.4270               293.5999

                      4                      5                      6
                     A'                     A'                     A'
 Frequencies --    971.0177              1377.8489              1638.7516
 Red. masses --      1.5017                 1.0923                 5.5425
 Frc consts  --      0.8342                 1.2217                 8.7697
 IR Inten    --   2459.9711              1081.8887               129.5114

                      7                      8                      9
                     A'                     A'                     A'
 Frequencies --   2980.8138              3098.4753              3232.4271
 Red. masses --      1.0637                 1.0997                 1.1070
 Frc consts  --      5.5687                 6.2204                 6.8149
 IR Inten    --     65.6433               310.1765               288.7294

 - Thermochemistry -
 -------------------
 Temperature   298.150 Kelvin.  Pressure   1.00000 Atm.
 Atom     1 has atomic number  6 and mass  12.00000

 Molecular mass:    27.02348 amu.
 Principal axes and moments of inertia in atomic units:
                           1         2         3
     Eigenvalues --     7.38581  55.41816  62.80398
           X            0.07722   0.99701   0.00000
           Y            0.99701  -0.07722   0.00000
           Z            0.00000   0.00000   1.00000
 This molecule is an asymmetric top.
 Rotational symmetry number  1.
 Rotational temperatures (Kelvin)     11.72705     1.56291     1.37911
 Rotational constants (GHZ):         244.35237    32.56588    28.73610
 Zero-point vibrational energy      93871.2 (Joules/Mol)
                                   22.43576 (Kcal/Mol)
 Vibrational temperatures:    930.09  1182.63  1332.73  1397.08  1982.41
          (Kelvin)           2357.80  4288.72  4458.01  4650.74

 Zero-point correction=                           0.035754 (Hartree/Particle)
 Thermal correction to Energy=                    0.038896
 Thermal correction to Enthalpy=                  0.039840
 Thermal correction to Gibbs Free Energy=         0.012892
 Sum of electronic and zero-point Energies=            -77.867530
 Sum of electronic and thermal Energies=               -77.864388
 Sum of electronic and thermal Enthalpies=             -77.863444
 Sum of electronic and thermal Free Energies=          -77.890392

                     E (Thermal)             CV                S
                      KCal/Mol        Cal/Mol-Kelvin    Cal/Mol-Kelvin
 Total                   24.407              8.547             56.717
 Electronic               0.000              0.000              2.183
 Translational            0.889              2.981             35.818
 Rotational               0.889              2.981             17.892
 Vibrational             22.630              2.586              0.824

 Normal termination of Gaussian 09 at Sun Feb  3 22:58:46 2019.
