 Gaussian 09, Revision E.01,
 Gaussian 09:  EM64L-G09RevE.01 30-Nov-2015

 -------------------------------------------------
 #p b3lyp/6-311++G(3df,2p) opt freq symmetry=Loose
 -------------------------------------------------

 ---------
 b3lyp opt
 ---------
 Symbolic Z-matrix:
 Charge = -1 Multiplicity = 3

 SCF Done:  E(UB3LYP) =  -77.9031749321     A.U. after   21 cycles
 SCF Done:  E(UB3LYP) =  -77.9032631983     A.U. after   16 cycles
 SCF Done:  E(UB3LYP) =  -77.9032827693     A.U. after   16 cycles
 SCF Done:  E(UB3LYP) =  -77.9032835561     A.U. after   15 cycles
 SCF Done:  E(UB3LYP) =  -77.9032838731     A.U. after   15 cycles
 Optimization completed.
    -- Stationary point found.
 Normal termination of Gaussian 09 at Sun Feb  3 22:52:53 2019.

 ----------------------------------------------------------------------
 #P Geom=AllCheck Guess=TCheck SCRF=Check GenChk UB3LYP/6-311++G(3df,2p
 ) Freq
 ----------------------------------------------------------------------

 Structure from the checkpoint file:  "/scratch/sergio/H3C2.q-1.m3-1.com-4935940/Gau-1354.chk"
 ---------
 b3lyp opt
 ---------
 Charge = -1 Multiplicity = 3

                         Standard orientation:
 ---------------------------------------------------------------------
 Center     Atomic      Atomic             Coordinates (Angstroms)
 Number     Number       Type             X           Y           Z
 ---------------------------------------------------------------------
      1          6           0        0.047615   -0.584703    0.000000
      2          1           0        0.949820   -1.191355    0.000000
      3          1           0       -0.889198   -1.152067    0.000000
      4          6           0        0.047615    0.716720    0.000000
      5          1           0       -0.632002    1.551320    0.000000
 ---------------------------------------------------------------------

 SCF Done:  E(UB3LYP) =  -77.9032838731     A.U. after    1 cycles

 The electronic state is 3-A'.
 Alpha  occ. eigenvalues --  -10.05613 -10.03535  -0.63150  -0.44002  -0.32560
 Alpha  occ. eigenvalues --   -0.29787  -0.15187  -0.09625   0.06880
 Alpha virt. eigenvalues --    0.09585   0.10836   0.12458   0.17609   0.17833
 Alpha virt. eigenvalues --    0.18719   0.22524   0.23003   0.23173   0.24942
 Alpha virt. eigenvalues --    0.25362   0.27670   0.28443   0.38737   0.41663

  Beta  occ. eigenvalues --  -10.04090 -10.03607  -0.61347  -0.41664  -0.31058
  Beta  occ. eigenvalues --   -0.28036  -0.14386
  Beta virt. eigenvalues --    0.05480   0.10832   0.11869   0.12923   0.13237
  Beta virt. eigenvalues --    0.17724   0.19236   0.20558   0.22785   0.23740
  Beta virt. eigenvalues --    0.24047   0.25804   0.26100   0.28309   0.29755

 Mulliken charges and spin densities:
               1          2
     1  C    1.937959  -2.349102
     2  H   -1.207136   1.394534
     3  H   -0.338524   0.548186
     4  C    0.205303   0.589987
     5  H   -1.597602   1.816394
 Sum of Mulliken charges =  -1.00000   2.00000

 Dipole moment (field-independent basis, Debye):
    X=              1.5358    Y=             -0.0155    Z=              0.0000  Tot=              1.5359
 Quadrupole moment (field-independent basis, Debye-Ang):
   XX=            -43.8390   YY=            -43.1404   ZZ=            -30.6650
   XY=              5.2419   XZ=              0.0000   YZ=              0.0000

  Exact polarizability:1363.571-322.2591991.045  -0.000  -0.000 174.835
 Approx polarizability:1163.037-528.0621600.239  -0.000  -0.000 148.395

                      1                      2                      3
                     A'                     A"                     A"
 Frequencies --    647.1276               821.8075               926.2108
 Red. masses --      1.0665                 1.1801                 1.3234
 Frc consts  --      0.2631                 0.4696                 0.6689
 IR Inten    --   1488.5477               681.9560               294.6492

                      4                      5                      6
                     A'                     A'                     A'
 Frequencies --    971.9346              1377.6028              1637.9438
 Red. masses --      1.5017                 1.0926                 5.5406
 Frc consts  --      0.8358                 1.2217                 8.7580
 IR Inten    --   2457.3473              1081.5043               129.5586

                      7                      8                      9
                     A'                     A'                     A'
 Frequencies --   2980.7279              3098.3719              3232.5118
 Red. masses --      1.0636                 1.0999                 1.1069
 Frc consts  --      5.5675                 6.2210                 6.8146
 IR Inten    --     67.0850               308.9251               288.7508

 - Thermochemistry -
 -------------------
 Temperature   298.150 Kelvin.  Pressure   1.00000 Atm.
 Atom     1 has atomic number  6 and mass  12.00000

 Molecular mass:    27.02348 amu.
 Principal axes and moments of inertia in atomic units:
                           1         2         3
     Eigenvalues --     7.39451  55.41548  62.80999
           X           -0.07736   0.99700   0.00000
           Y            0.99700   0.07736   0.00000
           Z           -0.00000   0.00000   1.00000
 This molecule is an asymmetric top.
 Rotational symmetry number  1.
 Rotational temperatures (Kelvin)     11.71326     1.56299     1.37898
 Rotational constants (GHZ):         244.06504    32.56745    28.73335
 Zero-point vibrational energy      93872.4 (Joules/Mol)
                                   22.43604 (Kcal/Mol)
 Vibrational temperatures:    931.07  1182.40  1332.61  1398.40  1982.06
          (Kelvin)           2356.63  4288.60  4457.86  4650.86

 Zero-point correction=                           0.035754 (Hartree/Particle)
 Thermal correction to Energy=                    0.038896
 Thermal correction to Enthalpy=                  0.039840
 Thermal correction to Gibbs Free Energy=         0.012892
 Sum of electronic and zero-point Energies=            -77.867530
 Sum of electronic and thermal Energies=               -77.864388
 Sum of electronic and thermal Enthalpies=             -77.863444
 Sum of electronic and thermal Free Energies=          -77.890392

                     E (Thermal)             CV                S
                      KCal/Mol        Cal/Mol-Kelvin    Cal/Mol-Kelvin
 Total                   24.407              8.546             56.717
 Electronic               0.000              0.000              2.183
 Translational            0.889              2.981             35.818
 Rotational               0.889              2.981             17.894
 Vibrational             22.630              2.584              0.822

 Optimization completed.
    -- Stationary point found.
 Normal termination of Gaussian 09 at Sun Feb  3 22:54:30 2019.
