 Gaussian 09, Revision E.01,
 Gaussian 09:  EM64L-G09RevE.01 30-Nov-2015

 ------------------------------------------------------
 #p b3lyp/6-311++G(3df,2p) freq IOp(2/17=3) IOp(2/18=3)
 ------------------------------------------------------

 ---------
 b3lyp opt
 ---------
 Symbolic Z-matrix:
 Charge = -1 Multiplicity = 1

                         Standard orientation:
 ---------------------------------------------------------------------
 Center     Atomic      Atomic             Coordinates (Angstroms)
 Number     Number       Type             X           Y           Z
 ---------------------------------------------------------------------
      1          6           0        0.051195    0.582911   -0.000220
      2          6           0        1.185886   -0.149323    0.000177
      3          1           0        1.192208   -1.248777    0.000662
      4          1           0        2.150913    0.344819   -0.000128
      5          1           0       -1.839282    0.364308    0.002778
      6          8           0       -1.115791   -0.257734   -0.000382
 ---------------------------------------------------------------------

 SCF Done:  E(RB3LYP) =  -153.231455951     A.U. after   14 cycles

 The electronic state is 1-A.
 Alpha  occ. eigenvalues --  -18.92939  -9.96344  -9.92265  -0.81533  -0.50647
 Alpha  occ. eigenvalues --   -0.34225  -0.25186  -0.20186  -0.17862  -0.15384
 Alpha  occ. eigenvalues --   -0.00831   0.01774
 Alpha virt. eigenvalues --    0.13150   0.13820   0.15034   0.20743   0.21111
 Alpha virt. eigenvalues --    0.22176   0.22648   0.23844   0.27333   0.28951
 Alpha virt. eigenvalues --    0.29372   0.29529   0.31886   0.33598   0.35952

 Mulliken charges:
               1
     1  C   -0.312561
     2  C   -0.309441
     3  H   -0.083322
     4  H    0.051281
     5  H    0.202469
     6  O   -0.548427
 Sum of Mulliken charges =  -1.00000

 Dipole moment (field-independent basis, Debye):
    X=             -1.5262    Y=             -1.4779    Z=              0.0051  Tot=              2.1245
 Quadrupole moment (field-independent basis, Debye-Ang):
   XX=            -24.1448   YY=            -29.8437   ZZ=            -26.2698
   XY=             -1.3151   XZ=             -0.0100   YZ=              0.0024

  Exact polarizability:  75.177 -13.214  81.877  -0.029  -0.004  51.800
 Approx polarizability:  94.094 -16.622  92.775  -0.022  -0.005  63.093

                      1                      2                      3
                      A                      A                      A
 Frequencies --    442.3454               484.8371               694.2412
 Red. masses --      1.1084                 2.4348                 1.1687
 Frc consts  --      0.1278                 0.3372                 0.3319
 IR Inten    --     95.5251                 4.8073                66.0245

                      4                      5                      6
                      A                      A                      A
 Frequencies --    739.3596               831.2667              1030.5424
 Red. masses --      1.3913                 5.5672                 1.6209
 Frc consts  --      0.4481                 2.2665                 1.0142
 IR Inten    --     18.8313               194.1055                 7.8836

                      7                      8                      9
                      A                      A                      A
 Frequencies --   1182.8827              1358.3307              1540.7854
 Red. masses --      1.2904                 1.2883                 3.1547
 Frc consts  --      1.0638                 1.4004                 4.4126
 IR Inten    --    155.6432                10.6682                78.3499

                     10                     11                     12
                      A                      A                      A
 Frequencies --   2941.9425              3133.3931              3923.5975
 Red. masses --      1.0699                 1.0929                 1.0666
 Frc consts  --      5.4559                 6.3224                 9.6740
 IR Inten    --    280.1264                37.6243               118.7842

 - Thermochemistry -
 -------------------
 Temperature   298.150 Kelvin.  Pressure   1.00000 Atm.
 Atom     1 has atomic number  6 and mass  12.00000

 Molecular mass:    43.01839 amu.
 Principal axes and moments of inertia in atomic units:
                           1         2         3
     Eigenvalues --    25.61964 165.43255 191.05211
           X            0.99934  -0.03637  -0.00010
           Y            0.03637   0.99934   0.00003
           Z            0.00010  -0.00004   1.00000
 This molecule is an asymmetric top.
 Rotational symmetry number  1.
 Rotational temperatures (Kelvin)      3.38076     0.52356     0.45335
 Rotational constants (GHZ):          70.44367    10.90923     9.44633
 Zero-point vibrational energy     109479.4 (Joules/Mol)
                                   26.16620 (Kcal/Mol)
 Warning -- explicit consideration of   2 degrees of freedom as
           vibrations may cause significant error
 Vibrational temperatures:    636.44   697.57   998.86  1063.77  1196.01
          (Kelvin)           1482.72  1701.90  1954.33  2216.84  4232.79
                             4508.25  5645.17

 Zero-point correction=                           0.041698 (Hartree/Particle)
 Thermal correction to Energy=                    0.045383
 Thermal correction to Enthalpy=                  0.046328
 Thermal correction to Gibbs Free Energy=         0.017364
 Sum of electronic and zero-point Energies=           -153.189757
 Sum of electronic and thermal Energies=              -153.186073
 Sum of electronic and thermal Enthalpies=            -153.185128
 Sum of electronic and thermal Free Energies=         -153.214091

                     E (Thermal)             CV                S
                      KCal/Mol        Cal/Mol-Kelvin    Cal/Mol-Kelvin
 Total                   28.478             11.568             60.958
 Electronic               0.000              0.000              0.000
 Translational            0.889              2.981             37.204
 Rotational               0.889              2.981             21.320
 Vibrational             26.701              5.607              2.434
 Vibration     1          0.802              1.378              0.819
 Vibration     2          0.841              1.284              0.697

 Normal termination of Gaussian 09 at Thu Mar  7 13:36:03 2019.
