 Gaussian 09, Revision E.01,
 Gaussian 09:  EM64L-G09RevE.01 30-Nov-2015

 ------------------------------------------------------
 #p b3lyp/6-311++G(3df,2p) freq IOp(2/17=3) IOp(2/18=3)
 ------------------------------------------------------

 ---------
 b3lyp opt
 ---------
 Symbolic Z-matrix:
 Charge = -1 Multiplicity = 3

                         Standard orientation:
 ---------------------------------------------------------------------
 Center     Atomic      Atomic             Coordinates (Angstroms)
 Number     Number       Type             X           Y           Z
 ---------------------------------------------------------------------
      1          6           0       -0.016524    0.364138   -0.009199
      2          6           0       -1.257025   -0.084429    0.010613
      3          1           0       -1.476318   -1.144648    0.123518
      4          1           0       -2.096209    0.599035   -0.057217
      5          1           0        1.886024    0.396913    0.317686
      6          8           0        1.165974   -0.191194   -0.049059
 ---------------------------------------------------------------------

 SCF Done:  E(UB3LYP) =  -153.173886883     A.U. after   22 cycles

 The electronic state is 3-A.
 Alpha  occ. eigenvalues --  -19.03457 -10.10054 -10.01980  -0.94292  -0.61822
 Alpha  occ. eigenvalues --   -0.46634  -0.35928  -0.32574  -0.29431  -0.26238
 Alpha  occ. eigenvalues --   -0.11184  -0.07994   0.06506
 Alpha virt. eigenvalues --    0.09581   0.11516   0.14863   0.16716   0.18176
 Alpha virt. eigenvalues --    0.18680   0.19459   0.22275   0.23296   0.24763
 Alpha virt. eigenvalues --    0.25061   0.27492   0.29363   0.32740   0.33348

  Beta  occ. eigenvalues --  -19.02901 -10.08603 -10.01943  -0.92885  -0.60240
  Beta  occ. eigenvalues --   -0.45549  -0.33600  -0.30136  -0.28514  -0.24783
  Beta  occ. eigenvalues --   -0.10357
  Beta virt. eigenvalues --    0.06093   0.10324   0.12033   0.12806   0.15851
  Beta virt. eigenvalues --    0.17694   0.18575   0.19412   0.20927   0.23004
  Beta virt. eigenvalues --    0.24007   0.25291   0.25626   0.28042   0.30871

 Mulliken charges and spin densities:
               1          2
     1  C   -0.088909   1.427890
     2  C    1.663513  -2.288405
     3  H    0.174222   0.003870
     4  H   -0.730477   0.880594
     5  H   -1.415763   1.775888
     6  O   -0.602586   0.200163
 Sum of Mulliken charges =  -1.00000   2.00000

 Dipole moment (field-independent basis, Debye):
    X=             -5.2796    Y=             -2.8570    Z=             -1.6226  Tot=              6.2185
 Quadrupole moment (field-independent basis, Debye-Ang):
   XX=            -62.1145   YY=            -35.3293   ZZ=            -33.7374
   XY=             -1.3633   XZ=             -4.5079   YZ=             -0.9434

  Exact polarizability:1434.750-109.393 424.959 145.542 -57.424 134.189
 Approx polarizability:1562.815 -91.656 269.405 156.184 -34.069 127.429

                      1                      2                      3
                      A                      A                      A
 Frequencies --    263.1377               427.5238               567.2562
 Red. masses --      1.1229                 2.3429                 1.5448
 Frc consts  --      0.0458                 0.2523                 0.2929
 IR Inten    --    904.4312               129.3543               176.1953

                      4                      5                      6
                      A                      A                      A
 Frequencies --    771.3146               957.4765              1097.2254
 Red. masses --      1.3384                 1.7361                 1.5374
 Frc consts  --      0.4691                 0.9377                 1.0905
 IR Inten    --      1.2771               957.6724               669.9988

                      7                      8                      9
                      A                      A                      A
 Frequencies --   1185.0068              1411.3129              1678.7027
 Red. masses --      2.3296                 1.1677                 7.4904
 Frc consts  --      1.9274                 1.3704                12.4367
 IR Inten    --   1120.0067                45.5087              1512.7821

                     10                     11                     12
                      A                      A                      A
 Frequencies --   2968.8829              3053.1603              3138.9978
 Red. masses --      1.0678                 1.0564                 1.1109
 Frc consts  --      5.5455                 5.8018                 6.4491
 IR Inten    --   8853.2583               144.1737               287.0864

 - Thermochemistry -
 -------------------
 Temperature   298.150 Kelvin.  Pressure   1.00000 Atm.
 Atom     1 has atomic number  6 and mass  12.00000

 Molecular mass:    43.01839 amu.
 Principal axes and moments of inertia in atomic units:
                           1         2         3
     Eigenvalues --    15.08664 182.27490 196.27432
           X            0.99963   0.02528   0.00998
           Y           -0.02518   0.99963  -0.00979
           Z           -0.01022   0.00954   0.99990
 This molecule is an asymmetric top.
 Rotational symmetry number  1.
 Rotational temperatures (Kelvin)      5.74109     0.47518     0.44129
 Rotational constants (GHZ):         119.62511     9.90121     9.19499
 Zero-point vibrational energy     104792.9 (Joules/Mol)
                                   25.04609 (Kcal/Mol)
 Warning -- explicit consideration of   3 degrees of freedom as
           vibrations may cause significant error
 Vibrational temperatures:    378.60   615.11   816.15  1109.75  1377.59
          (Kelvin)           1578.66  1704.96  2030.56  2415.28  4271.55
                             4392.81  4516.31

 Zero-point correction=                           0.039913 (Hartree/Particle)
 Thermal correction to Energy=                    0.043860
 Thermal correction to Enthalpy=                  0.044804
 Thermal correction to Gibbs Free Energy=         0.014493
 Sum of electronic and zero-point Energies=           -153.133973
 Sum of electronic and thermal Energies=              -153.130027
 Sum of electronic and thermal Enthalpies=            -153.129083
 Sum of electronic and thermal Free Energies=         -153.159394

                     E (Thermal)             CV                S
                      KCal/Mol        Cal/Mol-Kelvin    Cal/Mol-Kelvin
 Total                   27.522             11.979             63.794
 Electronic               0.000              0.000              2.183
 Translational            0.889              2.981             37.204
 Rotational               0.889              2.981             20.917
 Vibrational             25.745              6.017              3.490
 Vibration     1          0.670              1.740              1.641
 Vibration     2          0.789              1.410              0.867
 Vibration     3          0.923              1.102              0.510

 Normal termination of Gaussian 09 at Thu Mar  7 08:18:30 2019.
