 Gaussian 09, Revision E.01,
 Gaussian 09:  EM64L-G09RevE.01 30-Nov-2015

 ------------------------------------------------------
 #p b3lyp/6-311++G(3df,2p) freq IOp(2/17=3) IOp(2/18=3)
 ------------------------------------------------------

 ---------
 b3lyp opt
 ---------
 Symbolic Z-matrix:
 Charge = -1 Multiplicity = 1

                         Standard orientation:
 ---------------------------------------------------------------------
 Center     Atomic      Atomic             Coordinates (Angstroms)
 Number     Number       Type             X           Y           Z
 ---------------------------------------------------------------------
      1          6           0        0.973884   -0.620011    0.000000
      2          6           0       -0.000000    0.617402    0.000000
      3          1           0        1.621844   -0.548805   -0.880372
      4          1           0        1.621844   -0.548805    0.880372
      5          1           0        0.427232   -1.581590   -0.000000
      6          8           0       -1.189176    0.336843   -0.000000
 ---------------------------------------------------------------------

 SCF Done:  E(RB3LYP) =  -153.256664083     A.U. after   16 cycles

 The electronic state is 1-A'.
 Alpha  occ. eigenvalues --  -18.91391 -10.01567  -9.97805  -0.82653  -0.52908
 Alpha  occ. eigenvalues --   -0.31504  -0.23850  -0.23810  -0.21644  -0.15934
 Alpha  occ. eigenvalues --   -0.13538   0.04164
 Alpha virt. eigenvalues --    0.11806   0.14206   0.14321   0.17828   0.18430
 Alpha virt. eigenvalues --    0.20764   0.21722   0.23083   0.23085   0.24010
 Alpha virt. eigenvalues --    0.25755   0.28262   0.32522   0.32710   0.37161

 Mulliken charges:
               1
     1  C    1.322827
     2  C   -0.903193
     3  H   -0.233804
     4  H   -0.233804
     5  H   -0.395145
     6  O   -0.556880
 Sum of Mulliken charges =  -1.00000

 Dipole moment (field-independent basis, Debye):
    X=              0.0926    Y=             -1.4058    Z=             -0.0000  Tot=              1.4088
 Quadrupole moment (field-independent basis, Debye-Ang):
   XX=            -32.5126   YY=            -34.4440   ZZ=            -25.2581
   XY=              1.0983   XZ=             -0.0000   YZ=              0.0000

  Exact polarizability: 134.965  -6.677 181.912  -0.000  -0.000 114.831
 Approx polarizability: 173.643 -39.258 215.473   0.000   0.000 114.166

                      1                      2                      3
                     A"                     A'                     A'
 Frequencies --    116.5547               500.1235               701.8348
 Red. masses --      1.3962                 2.8547                 4.6613
 Frc consts  --      0.0112                 0.4207                 1.3528
 IR Inten    --      1.0854                27.4897                22.0824

                      4                      5                      6
                     A"                     A'                     A'
 Frequencies --    859.8753               982.0370              1269.5595
 Red. masses --      1.2800                 1.6587                 1.2162
 Frc consts  --      0.5576                 0.9425                 1.1550
 IR Inten    --     71.5795                60.3813                73.8860

                      7                      8                      9
                     A"                     A'                     A'
 Frequencies --   1435.6239              1438.7728              1598.0111
 Red. masses --      1.0569                 1.0715                10.1058
 Frc consts  --      1.2834                 1.3069                15.2047
 IR Inten    --      2.3301                30.1531               987.9157

                     10                     11                     12
                     A'                     A'                     A"
 Frequencies --   2862.8497              3015.0138              3039.9155
 Red. masses --      1.0466                 1.0829                 1.1031
 Frc consts  --      5.0538                 5.7996                 6.0058
 IR Inten    --    136.2423                48.6308                 9.0457

 - Thermochemistry -
 -------------------
 Temperature   298.150 Kelvin.  Pressure   1.00000 Atm.
 Atom     1 has atomic number  6 and mass  12.00000

 Molecular mass:    43.01839 amu.
 Principal axes and moments of inertia in atomic units:
                           1         2         3
     Eigenvalues --    28.00037 172.94278 189.78544
           X            0.90033   0.43520   0.00000
           Y           -0.43520   0.90033   0.00000
           Z            0.00000  -0.00000   1.00000
 This molecule is an asymmetric top.
 Rotational symmetry number  1.
 Rotational temperatures (Kelvin)      3.09331     0.50082     0.45638
 Rotational constants (GHZ):          64.45419    10.43548     9.50938
 Zero-point vibrational energy     106588.3 (Joules/Mol)
                                   25.47521 (Kcal/Mol)
 Warning -- explicit consideration of   2 degrees of freedom as
           vibrations may cause significant error
 Vibrational temperatures:    167.70   719.57  1009.78  1237.17  1412.93
          (Kelvin)           1826.61  2065.54  2070.07  2299.18  4119.00
                             4337.93  4373.75

 Zero-point correction=                           0.040597 (Hartree/Particle)
 Thermal correction to Energy=                    0.044600
 Thermal correction to Enthalpy=                  0.045544
 Thermal correction to Gibbs Free Energy=         0.015563
 Sum of electronic and zero-point Energies=           -153.216067
 Sum of electronic and thermal Energies=              -153.212064
 Sum of electronic and thermal Enthalpies=            -153.211120
 Sum of electronic and thermal Free Energies=         -153.241101

                     E (Thermal)             CV                S
                      KCal/Mol        Cal/Mol-Kelvin    Cal/Mol-Kelvin
 Total                   27.987             11.331             63.102
 Electronic               0.000              0.000              0.000
 Translational            0.889              2.981             37.204
 Rotational               0.889              2.981             21.446
 Vibrational             26.210              5.369              4.452
 Vibration     1          0.608              1.936              3.157
 Vibration     2          0.856              1.250              0.658

 Optimization completed.
    -- Stationary point found.
 Normal termination of Gaussian 09 at Thu Mar  7 08:12:06 2019.
