 Gaussian 09, Revision E.01,
 Gaussian 09:  EM64L-G09RevE.01 30-Nov-2015

 ------------------------------------------------------
 #p b3lyp/6-311++G(3df,2p) freq IOp(2/17=3) IOp(2/18=3)
 ------------------------------------------------------

 ---------
 b3lyp opt
 ---------
 Symbolic Z-matrix:
 Charge = -1 Multiplicity = 1

                         Standard orientation:
 ---------------------------------------------------------------------
 Center     Atomic      Atomic             Coordinates (Angstroms)
 Number     Number       Type             X           Y           Z
 ---------------------------------------------------------------------
      1          6           0        0.000000    0.585621    0.000000
      2          6           0        1.194424   -0.044727    0.000000
      3          1           0        2.113199    0.530617    0.000000
      4          1           0        1.296070   -1.140013    0.000000
      5          1           0       -1.864172    0.201990   -0.000000
      6          8           0       -1.088955   -0.354744   -0.000000
 ---------------------------------------------------------------------

 SCF Done:  E(RB3LYP) =  -153.231460110     A.U. after   15 cycles

 The electronic state is 1-A'.
 Alpha  occ. eigenvalues --  -18.92937  -9.96350  -9.92274  -0.81512  -0.50642
 Alpha  occ. eigenvalues --   -0.34210  -0.25182  -0.20175  -0.17862  -0.15372
 Alpha  occ. eigenvalues --   -0.00833   0.01765
 Alpha virt. eigenvalues --    0.13151   0.13820   0.15035   0.20740   0.21109
 Alpha virt. eigenvalues --    0.22177   0.22649   0.23846   0.27328   0.28950
 Alpha virt. eigenvalues --    0.29369   0.29530   0.31887   0.33594   0.35939

 Mulliken charges:
               1
     1  C   -0.312570
     2  C   -0.309149
     3  H    0.051410
     4  H   -0.083466
     5  H    0.202570
     6  O   -0.548794
 Sum of Mulliken charges =  -1.00000

 Dipole moment (field-independent basis, Debye):
    X=             -1.3883    Y=             -1.6041    Z=             -0.0000  Tot=              2.1215
 Quadrupole moment (field-independent basis, Debye-Ang):
   XX=            -23.9577   YY=            -30.0299   ZZ=            -26.2689
   XY=             -0.7993   XZ=             -0.0000   YZ=             -0.0000

  Exact polarizability:  77.491 -13.563  79.427   0.000   0.000  51.781
 Approx polarizability:  96.960 -16.239  89.854  -0.000   0.000  63.069

                      1                      2                      3
                     A"                     A'                     A"
 Frequencies --    440.4088               485.7484               692.8149
 Red. masses --      1.1088                 2.4378                 1.1659
 Frc consts  --      0.1267                 0.3389                 0.3297
 IR Inten    --     95.2101                 4.7917                64.8903

                      4                      5                      6
                     A"                     A'                     A'
 Frequencies --    741.0609               830.2851              1030.7086
 Red. masses --      1.3943                 5.6050                 1.6191
 Frc consts  --      0.4511                 2.2766                 1.0134
 IR Inten    --     20.0516               193.9843                 7.9202

                      7                      8                      9
                     A'                     A'                     A'
 Frequencies --   1183.1328              1358.4584              1540.4556
 Red. masses --      1.2893                 1.2904                 3.1382
 Frc consts  --      1.0633                 1.4030                 4.3877
 IR Inten    --    156.0246                10.6081                77.7882

                     10                     11                     12
                     A'                     A'                     A'
 Frequencies --   2937.5556              3133.8976              3918.4263
 Red. masses --      1.0701                 1.0927                 1.0666
 Frc consts  --      5.4407                 6.3230                 9.6485
 IR Inten    --    280.5129                37.1610               118.2460

 - Thermochemistry -
 -------------------
 Temperature   298.150 Kelvin.  Pressure   1.00000 Atm.
 Atom     1 has atomic number  6 and mass  12.00000

 Molecular mass:    43.01839 amu.
 Principal axes and moments of inertia in atomic units:
                           1         2         3
     Eigenvalues --    25.64737 165.44607 191.09344
           X            0.99229  -0.12392  -0.00000
           Y            0.12392   0.99229  -0.00000
           Z            0.00000   0.00000   1.00000
 This molecule is an asymmetric top.
 Rotational symmetry number  1.
 Rotational temperatures (Kelvin)      3.37710     0.52352     0.45325
 Rotational constants (GHZ):          70.36749    10.90834     9.44429
 Zero-point vibrational energy     109416.2 (Joules/Mol)
                                   26.15109 (Kcal/Mol)
 Warning -- explicit consideration of   2 degrees of freedom as
           vibrations may cause significant error
 Vibrational temperatures:    633.65   698.88   996.80  1066.22  1194.59
          (Kelvin)           1482.96  1702.26  1954.52  2216.37  4226.48
                             4508.97  5637.73

 Zero-point correction=                           0.041674 (Hartree/Particle)
 Thermal correction to Energy=                    0.045360
 Thermal correction to Enthalpy=                  0.046305
 Thermal correction to Gibbs Free Energy=         0.017339
 Sum of electronic and zero-point Energies=           -153.189786
 Sum of electronic and thermal Energies=              -153.186100
 Sum of electronic and thermal Enthalpies=            -153.185156
 Sum of electronic and thermal Free Energies=         -153.214121

                     E (Thermal)             CV                S
                      KCal/Mol        Cal/Mol-Kelvin    Cal/Mol-Kelvin
 Total                   28.464             11.571             60.963
 Electronic               0.000              0.000              0.000
 Translational            0.889              2.981             37.204
 Rotational               0.889              2.981             21.322
 Vibrational             26.687              5.610              2.438
 Vibration     1          0.800              1.382              0.825
 Vibration     2          0.842              1.282              0.695

 Optimization completed.
    -- Stationary point found.
 Normal termination of Gaussian 09 at Fri Mar  8 05:47:22 2019.
