 Gaussian 09, Revision E.01,
 Gaussian 09:  EM64L-G09RevE.01 30-Nov-2015

 -------------------------------------------------
 #p b3lyp/6-311++G(3df,2p) opt freq symmetry=Loose
 -------------------------------------------------

 ---------
 b3lyp opt
 ---------
 Symbolic Z-matrix:
 Charge = -1 Multiplicity = 1

 SCF Done:  E(RB3LYP) =  -77.9402940444     A.U. after   17 cycles
 SCF Done:  E(RB3LYP) =  -77.9543084284     A.U. after   13 cycles
 SCF Done:  E(RB3LYP) =  -77.9584856514     A.U. after   12 cycles
 SCF Done:  E(RB3LYP) =  -77.9586055640     A.U. after   11 cycles
 SCF Done:  E(RB3LYP) =  -77.9586131701     A.U. after   10 cycles
 Optimization completed.
    -- Stationary point found.
 Normal termination of Gaussian 09 at Sun Feb  3 22:48:26 2019.

 ----------------------------------------------------------------------
 #P Geom=AllCheck Guess=TCheck SCRF=Check GenChk RB3LYP/6-311++G(3df,2p
 ) Freq
 ----------------------------------------------------------------------

 Structure from the checkpoint file:  "/scratch/sergio/H3C2.q-1.m1-1.com-4935934/Gau-466.chk"
 ---------
 b3lyp opt
 ---------
 Charge = -1 Multiplicity = 1

                         Standard orientation:
 ---------------------------------------------------------------------
 Center     Atomic      Atomic             Coordinates (Angstroms)
 Number     Number       Type             X           Y           Z
 ---------------------------------------------------------------------
      1          6           0        0.067684   -0.572324    0.000000
      2          1           0        0.998227   -1.152131    0.000000
      3          1           0       -0.828282   -1.227456    0.000000
      4          6           0        0.067684    0.777789    0.000000
      5          1           0       -0.982151    1.146796    0.000000
 ---------------------------------------------------------------------

 SCF Done:  E(RB3LYP) =  -77.9586131701     A.U. after    1 cycles

 The electronic state is 1-A'.
 Alpha  occ. eigenvalues --   -9.93538  -9.90666  -0.50165  -0.31637  -0.20633
 Alpha  occ. eigenvalues --   -0.13633  -0.03067   0.03865
 Alpha virt. eigenvalues --    0.13207   0.14885   0.15645   0.20142   0.22363
 Alpha virt. eigenvalues --    0.22657   0.23479   0.27133   0.27754   0.29837
 Alpha virt. eigenvalues --    0.29877   0.30246   0.33309   0.36254   0.40720

 Mulliken charges:
               1
     1  C   -0.409180
     2  H    0.070475
     3  H   -0.073553
     4  C   -0.663822
     5  H    0.076081
 Sum of Mulliken charges =  -1.00000

 Dipole moment (field-independent basis, Debye):
    X=             -1.6062    Y=             -2.8717    Z=              0.0000  Tot=              3.2904
 Quadrupole moment (field-independent basis, Debye-Ang):
   XX=            -19.8816   YY=            -25.0635   ZZ=            -20.2650
   XY=             -3.3662   XZ=              0.0000   YZ=              0.0000

  Exact polarizability:  58.996  19.563  87.286   0.000  -0.000  42.853
 Approx polarizability:  67.042  14.354 104.111  -0.000  -0.000  52.776

                      1                      2                      3
                     A"                     A'                     A"
 Frequencies --    862.9973               929.9604              1078.5921
 Red. masses --      1.3636                 1.0618                 1.0760
 Frc consts  --      0.5983                 0.5410                 0.7376
 IR Inten    --     56.7487                30.0355                 2.9931

                      4                      5                      6
                     A'                     A'                     A'
 Frequencies --   1204.4623              1383.6783              1530.2030
 Red. masses --      1.4535                 1.7688                 1.9909
 Frc consts  --      1.2424                 1.9952                 2.7466
 IR Inten    --      9.1290                 6.4801                26.6201

                      7                      8                      9
                     A'                     A'                     A'
 Frequencies --   2740.7146              2826.2766              2954.6258
 Red. masses --      1.0708                 1.0879                 1.0755
 Frc consts  --      4.7391                 5.1201                 5.5317
 IR Inten    --    397.0629               716.1557               121.7750

 - Thermochemistry -
 -------------------
 Temperature   298.150 Kelvin.  Pressure   1.00000 Atm.
 Atom     1 has atomic number  6 and mass  12.00000

 Molecular mass:    27.02348 amu.
 Principal axes and moments of inertia in atomic units:
                           1         2         3
     Eigenvalues --     9.46794  55.06187  64.52981
           X           -0.08959   0.99598   0.00000
           Y            0.99598   0.08959   0.00000
           Z           -0.00000   0.00000   1.00000
 This molecule is an asymmetric top.
 Rotational symmetry number  1.
 Rotational temperatures (Kelvin)      9.14812     1.57303     1.34223
 Rotational constants (GHZ):         190.61603    32.77661    27.96756
 Zero-point vibrational energy      92779.4 (Joules/Mol)
                                   22.17482 (Kcal/Mol)
 Vibrational temperatures:   1241.66  1338.00  1551.85  1732.95  1990.80
          (Kelvin)           2201.62  3943.27  4066.38  4251.04

 Zero-point correction=                           0.035338 (Hartree/Particle)
 Thermal correction to Energy=                    0.038337
 Thermal correction to Enthalpy=                  0.039281
 Thermal correction to Gibbs Free Energy=         0.013433
 Sum of electronic and zero-point Energies=            -77.923275
 Sum of electronic and thermal Energies=               -77.920277
 Sum of electronic and thermal Enthalpies=             -77.919332
 Sum of electronic and thermal Free Energies=          -77.945180

                     E (Thermal)             CV                S
                      KCal/Mol        Cal/Mol-Kelvin    Cal/Mol-Kelvin
 Total                   24.057              7.656             54.401
 Electronic               0.000              0.000              0.000
 Translational            0.889              2.981             35.818
 Rotational               0.889              2.981             18.160
 Vibrational             22.279              1.694              0.424

 Normal termination of Gaussian 09 at Sun Feb  3 22:49:32 2019.
