 Gaussian 09, Revision E.01,
 Gaussian 09:  EM64L-G09RevE.01 30-Nov-2015

 ------------------------------------------------------
 #p b3lyp/6-311++G(3df,2p) freq IOp(2/17=3) IOp(2/18=3)
 ------------------------------------------------------

 ---------
 b3lyp opt
 ---------
 Symbolic Z-matrix:
 Charge = -1 Multiplicity = 3

                         Standard orientation:
 ---------------------------------------------------------------------
 Center     Atomic      Atomic             Coordinates (Angstroms)
 Number     Number       Type             X           Y           Z
 ---------------------------------------------------------------------
      1          6           0       -0.000000    0.000000   -0.514655
      2          6           0        0.000000   -0.000000    0.993099
      3          1           0       -0.000000    1.020499   -0.956890
      4          1           0       -0.883778   -0.510249   -0.956890
      5          1           0        0.883778   -0.510249   -0.956890
 ---------------------------------------------------------------------

 SCF Done:  E(UB3LYP) =  -77.8773442888     A.U. after   28 cycles

 The electronic state is 3-A1.
 Alpha  occ. eigenvalues --   -9.96258  -9.92401  -0.52095  -0.30843  -0.20710
 Alpha  occ. eigenvalues --   -0.20709  -0.03757   0.06024   0.06024
 Alpha virt. eigenvalues --    0.12208   0.15319   0.15321   0.19233   0.23675
 Alpha virt. eigenvalues --    0.24490   0.24491   0.25618   0.25620   0.26700
 Alpha virt. eigenvalues --    0.29805   0.34068   0.34068   0.42769   0.46989

  Beta  occ. eigenvalues --   -9.96412  -9.90056  -0.50621  -0.25548  -0.19590
  Beta  occ. eigenvalues --   -0.19590   0.00042
  Beta virt. eigenvalues --    0.12281   0.15332   0.15332   0.18622   0.18622
  Beta virt. eigenvalues --    0.19493   0.23636   0.24607   0.24607   0.26756
  Beta virt. eigenvalues --    0.28964   0.28965   0.30670   0.34838   0.34838

 Mulliken charges and spin densities:
               1          2
     1  C    0.020511  -0.114393
     2  C   -1.094000   2.001122
     3  H    0.024508   0.037745
     4  H    0.024491   0.037762
     5  H    0.024491   0.037762
 Sum of Mulliken charges =  -1.00000   2.00000

 Dipole moment (field-independent basis, Debye):
    X=             -0.0000    Y=             -0.0003    Z=             -5.0612  Tot=              5.0612
 Quadrupole moment (field-independent basis, Debye-Ang):
   XX=            -20.1307   YY=            -20.1305   ZZ=            -29.6008
   XY=              0.0000   XZ=             -0.0000   YZ=              0.0002

  Exact polarizability:  54.424   0.000  54.440  -0.000  -0.018  86.548
 Approx polarizability:  61.319   0.000  61.319   0.000  -0.009  90.200

                      1                      2                      3
                      E                      E                     A1
 Frequencies --    885.7809               886.0838               893.7653
 Red. masses --      1.2777                 1.2778                 7.5342
 Frc consts  --      0.5906                 0.5911                 3.5460
 IR Inten    --      2.5174                 2.5446                15.8877

                      4                      5                      6
                     A1                      E                      E
 Frequencies --   1302.3002              1422.8013              1422.8794
 Red. masses --      1.1653                 1.0617                 1.0617
 Frc consts  --      1.1644                 1.2663                 1.2664
 IR Inten    --     27.3613                 0.0822                 0.0760

                      7                      8                      9
                      E                      E                     A1
 Frequencies --   2720.0187              2720.3035              2770.8869
 Red. masses --      1.0956                 1.0957                 1.0254
 Frc consts  --      4.7760                 4.7772                 4.6384
 IR Inten    --    235.7405               235.0765               580.1704

 - Thermochemistry -
 -------------------
 Temperature   298.150 Kelvin.  Pressure   1.00000 Atm.
 Atom     1 has atomic number  6 and mass  12.00000

 Molecular mass:    27.02348 amu.
 Principal axes and moments of inertia in atomic units:
                           1         2         3
     Eigenvalues --    11.24421  68.05005  68.05005
           X            0.00000   0.80000  -0.60000
           Y            0.00000   0.60000   0.80000
           Z            1.00000  -0.00000  -0.00000
 This molecule is a prolate symmetric top.
 Rotational symmetry number  3.
 Rotational temperatures (Kelvin)      7.70297     1.27280     1.27280
 Rotational constants (GHZ):         160.50404    26.52079    26.52079
 Zero-point vibrational energy      89868.4 (Joules/Mol)
                                   21.47906 (Kcal/Mol)
 Vibrational temperatures:   1274.44  1274.88  1285.93  1873.72  2047.09
          (Kelvin)           2047.20  3913.50  3913.91  3986.68

 Zero-point correction=                           0.034229 (Hartree/Particle)
 Thermal correction to Energy=                    0.037255
 Thermal correction to Enthalpy=                  0.038200
 Thermal correction to Gibbs Free Energy=         0.012110
 Sum of electronic and zero-point Energies=            -77.843115
 Sum of electronic and thermal Energies=               -77.840089
 Sum of electronic and thermal Enthalpies=             -77.839145
 Sum of electronic and thermal Free Energies=          -77.865234

                     E (Thermal)             CV                S
                      KCal/Mol        Cal/Mol-Kelvin    Cal/Mol-Kelvin
 Total                   23.378              7.854             54.910
 Electronic               0.000              0.000              2.183
 Translational            0.889              2.981             35.818
 Rotational               0.889              2.981             16.411
 Vibrational             21.601              1.892              0.498

 Optimization completed.
    -- Stationary point found.
 Normal termination of Gaussian 09 at Wed Mar  6 06:05:35 2019.
