 Gaussian 09, Revision E.01,
 Gaussian 09:  EM64L-G09RevE.01 30-Nov-2015

 ------------------------------------------------------
 #p b3lyp/6-311++G(3df,2p) freq IOp(2/17=3) IOp(2/18=3)
 ------------------------------------------------------

 ---------
 b3lyp opt
 ---------
 Symbolic Z-matrix:
 Charge = -1 Multiplicity = 3

                         Standard orientation:
 ---------------------------------------------------------------------
 Center     Atomic      Atomic             Coordinates (Angstroms)
 Number     Number       Type             X           Y           Z
 ---------------------------------------------------------------------
      1          6           0       -1.336579   -0.457376   -0.000236
      2          6           0       -0.205372    0.506229    0.000120
      3          1           0       -0.195447    1.166492    0.889647
      4          1           0       -0.194833    1.167673   -0.888456
      5          1           0        0.827983   -1.117636    0.001558
      6          8           0        1.101751   -0.188706   -0.000256
 ---------------------------------------------------------------------

 SCF Done:  E(UB3LYP) =  -153.140459904     A.U. after   16 cycles

 The electronic state is 3-A.
 Alpha  occ. eigenvalues --  -18.93605 -10.01528  -9.94574  -0.82297  -0.51632
 Alpha  occ. eigenvalues --   -0.36427  -0.25397  -0.25089  -0.21089  -0.09964
 Alpha  occ. eigenvalues --   -0.05693   0.02194   0.03936
 Alpha virt. eigenvalues --    0.12794   0.14866   0.15104   0.19188   0.21261
 Alpha virt. eigenvalues --    0.22956   0.24216   0.24441   0.26355   0.26683
 Alpha virt. eigenvalues --    0.28345   0.31955   0.33782   0.35386   0.37217

  Beta  occ. eigenvalues --  -18.93302 -10.01655  -9.92317  -0.81519  -0.49843
  Beta  occ. eigenvalues --   -0.33351  -0.24465  -0.23839  -0.18831  -0.09410
  Beta  occ. eigenvalues --   -0.02227
  Beta virt. eigenvalues --    0.12407   0.13283   0.15072   0.16508   0.17076
  Beta virt. eigenvalues --    0.20093   0.21298   0.22910   0.25673   0.26267
  Beta virt. eigenvalues --    0.26891   0.27834   0.29088   0.32799   0.34340

 Mulliken charges and spin densities:
               1          2
     1  C   -1.011101   1.936758
     2  C    0.454954  -0.102476
     3  H    0.023752   0.048881
     4  H    0.023844   0.048859
     5  H    0.164046   0.060104
     6  O   -0.655495   0.007875
 Sum of Mulliken charges =  -1.00000   2.00000

 Dipole moment (field-independent basis, Debye):
    X=              3.8619    Y=              2.1425    Z=              0.0029  Tot=              4.4164
 Quadrupole moment (field-independent basis, Debye-Ang):
   XX=            -38.4837   YY=            -25.5023   ZZ=            -25.1401
   XY=             -5.1805   XZ=              0.0011   YZ=             -0.0056

  Exact polarizability:  80.657  -1.243  69.356   0.017  -0.005  53.222
 Approx polarizability:  87.907  -1.358  80.075   0.015  -0.007  62.210

                      1                      2                      3
                      A                      A                      A
 Frequencies --    317.0401               412.0638               816.2656
 Red. masses --      1.1356                 4.9664                10.7569
 Frc consts  --      0.0673                 0.4968                 4.2228
 IR Inten    --     46.0131                46.8285               135.8663

                      4                      5                      6
                      A                      A                      A
 Frequencies --    885.5607               954.0623              1154.5486
 Red. masses --      1.4211                 5.6356                 1.0919
 Frc consts  --      0.6566                 3.0224                 0.8575
 IR Inten    --      5.2301                20.6817                 0.0100

                      7                      8                      9
                      A                      A                      A
 Frequencies --   1187.8257              1342.4966              1456.9665
 Red. masses --      1.1301                 1.2475                 1.0769
 Frc consts  --      0.9394                 1.3247                 1.3469
 IR Inten    --     15.3467                56.4690                 7.5993

                     10                     11                     12
                      A                      A                      A
 Frequencies --   2787.3180              2816.4931              3683.9150
 Red. masses --      1.1049                 1.0463                 1.0658
 Frc consts  --      5.0577                 4.8901                 8.5219
 IR Inten    --    168.5691               330.8466                49.1179

 - Thermochemistry -
 -------------------
 Temperature   298.150 Kelvin.  Pressure   1.00000 Atm.
 Atom     1 has atomic number  6 and mass  12.00000

 Molecular mass:    43.01839 amu.
 Principal axes and moments of inertia in atomic units:
                           1         2         3
     Eigenvalues --    41.64309 156.31606 186.58031
           X            0.99910  -0.04235   0.00002
           Y            0.04235   0.99910  -0.00016
           Z           -0.00001   0.00016   1.00000
 This molecule is an asymmetric top.
 Rotational symmetry number  1.
 Rotational temperatures (Kelvin)      2.07991     0.55409     0.46422
 Rotational constants (GHZ):          43.33831    11.54546     9.67273
 Zero-point vibrational energy     106554.7 (Joules/Mol)
                                   25.46719 (Kcal/Mol)
 Warning -- explicit consideration of   2 degrees of freedom as
           vibrations may cause significant error
 Vibrational temperatures:    456.15   592.87  1174.42  1274.12  1372.68
          (Kelvin)           1661.14  1709.01  1931.55  2096.25  4010.32
                             4052.30  5300.33

 Zero-point correction=                           0.040585 (Hartree/Particle)
 Thermal correction to Energy=                    0.044342
 Thermal correction to Enthalpy=                  0.045286
 Thermal correction to Gibbs Free Energy=         0.014906
 Sum of electronic and zero-point Energies=           -153.099875
 Sum of electronic and thermal Energies=              -153.096118
 Sum of electronic and thermal Enthalpies=            -153.095174
 Sum of electronic and thermal Free Energies=         -153.125554

                     E (Thermal)             CV                S
                      KCal/Mol        Cal/Mol-Kelvin    Cal/Mol-Kelvin
 Total                   27.825             11.287             63.940
 Electronic               0.000              0.000              2.183
 Translational            0.889              2.981             37.204
 Rotational               0.889              2.981             21.723
 Vibrational             26.048              5.326              2.830
 Vibration     1          0.704              1.641              1.325
 Vibration     2          0.776              1.444              0.919

 Normal termination of Gaussian 09 at Thu Mar  7 08:21:59 2019.
