 Gaussian 09, Revision E.01,
 Gaussian 09:  EM64L-G09RevE.01 30-Nov-2015

 ------------------------------------------------------
 #p b3lyp/6-311++G(3df,2p) freq IOp(2/17=3) IOp(2/18=3)
 ------------------------------------------------------

 ---------
 b3lyp opt
 ---------
 Symbolic Z-matrix:
 Charge = -1 Multiplicity = 3

                         Standard orientation:
 ---------------------------------------------------------------------
 Center     Atomic      Atomic             Coordinates (Angstroms)
 Number     Number       Type             X           Y           Z
 ---------------------------------------------------------------------
      1          6           0        1.256994   -0.084376    0.010399
      2          6           0        0.016568    0.364278   -0.009090
      3          1           0        1.475658   -1.144781    0.122956
      4          1           0        2.096656    0.598602   -0.056613
      5          1           0       -1.886377    0.398168    0.314753
      6          8           0       -1.165913   -0.191425   -0.048618
 ---------------------------------------------------------------------

 SCF Done:  E(UB3LYP) =  -153.173887056     A.U. after   22 cycles

 The electronic state is 3-A.
 Alpha  occ. eigenvalues --  -19.03457 -10.10061 -10.01979  -0.94289  -0.61826
 Alpha  occ. eigenvalues --   -0.46630  -0.35932  -0.32576  -0.29418  -0.26250
 Alpha  occ. eigenvalues --   -0.11177  -0.08012   0.06505
 Alpha virt. eigenvalues --    0.09579   0.11517   0.14865   0.16715   0.18177
 Alpha virt. eigenvalues --    0.18676   0.19458   0.22280   0.23292   0.24761
 Alpha virt. eigenvalues --    0.25059   0.27492   0.29370   0.32750   0.33340

  Beta  occ. eigenvalues --  -19.02902 -10.08609 -10.01941  -0.92884  -0.60244
  Beta  occ. eigenvalues --   -0.45545  -0.33599  -0.30139  -0.28502  -0.24802
  Beta  occ. eigenvalues --   -0.10352
  Beta virt. eigenvalues --    0.06082   0.10323   0.12033   0.12805   0.15852
  Beta virt. eigenvalues --    0.17695   0.18573   0.19409   0.20928   0.23010
  Beta virt. eigenvalues --    0.24004   0.25289   0.25622   0.28042   0.30880

 Mulliken charges and spin densities:
               1          2
     1  C    1.666590  -2.291568
     2  C   -0.089814   1.429274
     3  H    0.174896   0.003216
     4  H   -0.732207   0.882406
     5  H   -1.415742   1.775977
     6  O   -0.603724   0.200695
 Sum of Mulliken charges =  -1.00000   2.00000

 Dipole moment (field-independent basis, Debye):
    X=              5.2772    Y=             -2.8653    Z=             -1.6067  Tot=              6.2162
 Quadrupole moment (field-independent basis, Debye-Ang):
   XX=            -62.1436   YY=            -35.3407   ZZ=            -33.7201
   XY=              1.3760   XZ=              4.4686   YZ=             -0.9409

  Exact polarizability:1435.455 109.224 424.375-144.306 -56.904 133.699
 Approx polarizability:1565.046  91.582 269.215-155.014 -33.765 127.012

                      1                      2                      3
                      A                      A                      A
 Frequencies --    260.9362               427.5192               567.0638
 Red. masses --      1.1219                 2.3433                 1.5455
 Frc consts  --      0.0450                 0.2523                 0.2928
 IR Inten    --    902.1815               127.4430               181.1138

                      4                      5                      6
                      A                      A                      A
 Frequencies --    771.3906               957.2919              1097.1821
 Red. masses --      1.3386                 1.7365                 1.5397
 Frc consts  --      0.4693                 0.9376                 1.0920
 IR Inten    --      1.1404               960.3190               665.9492

                      7                      8                      9
                      A                      A                      A
 Frequencies --   1185.0897              1411.2517              1678.7197
 Red. masses --      2.3252                 1.1675                 7.4870
 Frc consts  --      1.9241                 1.3700                12.4312
 IR Inten    --   1120.5911                45.5722              1510.0819

                     10                     11                     12
                      A                      A                      A
 Frequencies --   2970.1904              3053.0334              3138.8651
 Red. masses --      1.0678                 1.0564                 1.1109
 Frc consts  --      5.5503                 5.8014                 6.4485
 IR Inten    --   8846.3380               143.2521               286.1061

 - Thermochemistry -
 -------------------
 Temperature   298.150 Kelvin.  Pressure   1.00000 Atm.
 Atom     1 has atomic number  6 and mass  12.00000

 Molecular mass:    43.01839 amu.
 Principal axes and moments of inertia in atomic units:
                           1         2         3
     Eigenvalues --    15.08848 182.25864 196.27903
           X            0.99963  -0.02533  -0.00987
           Y            0.02524   0.99963  -0.00974
           Z            0.01011   0.00949   0.99990
 This molecule is an asymmetric top.
 Rotational symmetry number  1.
 Rotational temperatures (Kelvin)      5.74039     0.47522     0.44128
 Rotational constants (GHZ):         119.61051     9.90209     9.19477
 Zero-point vibrational energy     104784.1 (Joules/Mol)
                                   25.04400 (Kcal/Mol)
 Warning -- explicit consideration of   3 degrees of freedom as
           vibrations may cause significant error
 Vibrational temperatures:    375.43   615.10   815.88  1109.86  1377.33
          (Kelvin)           1578.60  1705.08  2030.47  2415.30  4273.44
                             4392.63  4516.12

 Zero-point correction=                           0.039910 (Hartree/Particle)
 Thermal correction to Energy=                    0.043860
 Thermal correction to Enthalpy=                  0.044804
 Thermal correction to Gibbs Free Energy=         0.014486
 Sum of electronic and zero-point Energies=           -153.133977
 Sum of electronic and thermal Energies=              -153.130028
 Sum of electronic and thermal Enthalpies=            -153.129083
 Sum of electronic and thermal Free Energies=         -153.159401

                     E (Thermal)             CV                S
                      KCal/Mol        Cal/Mol-Kelvin    Cal/Mol-Kelvin
 Total                   27.522             11.983             63.809
 Electronic               0.000              0.000              2.183
 Translational            0.889              2.981             37.204
 Rotational               0.889              2.981             20.917
 Vibrational             25.745              6.022              3.505
 Vibration     1          0.669              1.744              1.656
 Vibration     2          0.789              1.410              0.867
 Vibration     3          0.923              1.103              0.510

 Optimization completed.
    -- Stationary point found.
 Normal termination of Gaussian 09 at Thu Mar  7 08:29:43 2019.
