 Gaussian 09, Revision E.01,
 Gaussian 09:  EM64L-G09RevE.01 30-Nov-2015

 -------------------------------------------------
 #p b3lyp/6-311++G(3df,2p) opt freq symmetry=Loose
 -------------------------------------------------

 ---------
 b3lyp opt
 ---------
 Symbolic Z-matrix:
 Charge = -1 Multiplicity = 3

 SCF Done:  E(UB3LYP) =  -77.8275077503     A.U. after   16 cycles
 SCF Done:  E(UB3LYP) =  -77.8549113624     A.U. after   14 cycles
 SCF Done:  E(UB3LYP) =  -77.8939843493     A.U. after   20 cycles
 SCF Done:  E(UB3LYP) =  -77.9007139672     A.U. after   18 cycles
 SCF Done:  E(UB3LYP) =  -77.9022767598     A.U. after   18 cycles
 SCF Done:  E(UB3LYP) =  -77.9032425462     A.U. after   17 cycles
 SCF Done:  E(UB3LYP) =  -77.9032795196     A.U. after   15 cycles
 SCF Done:  E(UB3LYP) =  -77.9032837442     A.U. after   15 cycles
 Optimization completed.
    -- Stationary point found.
 Normal termination of Gaussian 09 at Sun Feb  3 22:57:55 2019.

 ----------------------------------------------------------------------
 #P Geom=AllCheck Guess=TCheck SCRF=Check GenChk UB3LYP/6-311++G(3df,2p
 ) Freq
 ----------------------------------------------------------------------

 Structure from the checkpoint file:  "/scratch/sergio/H3C2.q-1.m3-6.com-4935945/Gau-2034.chk"
 ---------
 b3lyp opt
 ---------
 Charge = -1 Multiplicity = 3

                         Standard orientation:
 ---------------------------------------------------------------------
 Center     Atomic      Atomic             Coordinates (Angstroms)
 Number     Number       Type             X           Y           Z
 ---------------------------------------------------------------------
      1          6           0        0.047646    0.584620    0.000000
      2          1           0        0.950446    1.190608    0.000000
      3          1           0       -0.888645    1.152682    0.000000
      4          6           0        0.047646   -0.716796    0.000000
      5          1           0       -0.633552   -1.550231    0.000000
 ---------------------------------------------------------------------

 SCF Done:  E(UB3LYP) =  -77.9032837442     A.U. after    1 cycles

 The electronic state is 3-A'.
 Alpha  occ. eigenvalues --  -10.05613 -10.03530  -0.63149  -0.43996  -0.32561
 Alpha  occ. eigenvalues --   -0.29772  -0.15185  -0.09639   0.06883
 Alpha virt. eigenvalues --    0.09587   0.10838   0.12461   0.17610   0.17834
 Alpha virt. eigenvalues --    0.18719   0.22528   0.23004   0.23176   0.24943
 Alpha virt. eigenvalues --    0.25364   0.27671   0.28445   0.38724   0.41664

  Beta  occ. eigenvalues --  -10.04089 -10.03601  -0.61346  -0.41658  -0.31056
  Beta  occ. eigenvalues --   -0.28023  -0.14384
  Beta virt. eigenvalues --    0.05470   0.10835   0.11870   0.12926   0.13240
  Beta virt. eigenvalues --    0.17725   0.19240   0.20555   0.22789   0.23742
  Beta virt. eigenvalues --    0.24050   0.25805   0.26102   0.28313   0.29752

 Mulliken charges and spin densities:
               1          2
     1  C    1.930010  -2.340645
     2  H   -1.204051   1.391201
     3  H   -0.343165   0.552979
     4  C    0.208327   0.586758
     5  H   -1.591123   1.809707
 Sum of Mulliken charges =  -1.00000   2.00000

 Dipole moment (field-independent basis, Debye):
    X=              1.5446    Y=             -0.0002    Z=              0.0000  Tot=              1.5446
 Quadrupole moment (field-independent basis, Debye-Ang):
   XX=            -43.8501   YY=            -43.1039   ZZ=            -30.6597
   XY=             -5.2193   XZ=              0.0000   YZ=              0.0000

  Exact polarizability:1364.222 323.0921991.074   0.000  -0.000 174.862
 Approx polarizability:1163.958 527.3381597.689  -0.000  -0.000 148.407

                      1                      2                      3
                     A'                     A"                     A"
 Frequencies --    648.9032               821.6328               926.1404
 Red. masses --      1.0661                 1.1806                 1.3223
 Frc consts  --      0.2645                 0.4696                 0.6683
 IR Inten    --   1473.8958               672.7915               297.9653

                      4                      5                      6
                     A'                     A'                     A'
 Frequencies --    972.4348              1377.5309              1638.1248
 Red. masses --      1.5023                 1.0926                 5.5436
 Frc consts  --      0.8370                 1.2215                 8.7647
 IR Inten    --   2479.2301              1083.3528               129.9169

                      7                      8                      9
                     A'                     A'                     A'
 Frequencies --   2981.3363              3097.4907              3231.4936
 Red. masses --      1.0634                 1.1001                 1.1068
 Frc consts  --      5.5689                 6.2186                 6.8098
 IR Inten    --     68.8431               307.3097               288.7536

 - Thermochemistry -
 -------------------
 Temperature   298.150 Kelvin.  Pressure   1.00000 Atm.
 Atom     1 has atomic number  6 and mass  12.00000

 Molecular mass:    27.02348 amu.
 Principal axes and moments of inertia in atomic units:
                           1         2         3
     Eigenvalues --     7.40142  55.40338  62.80480
           X            0.07752   0.99699   0.00000
           Y            0.99699  -0.07752   0.00000
           Z            0.00000  -0.00000   1.00000
 This molecule is an asymmetric top.
 Rotational symmetry number  1.
 Rotational temperatures (Kelvin)     11.70233     1.56333     1.37910
 Rotational constants (GHZ):         243.83723    32.57457    28.73572
 Zero-point vibrational energy      93877.5 (Joules/Mol)
                                   22.43725 (Kcal/Mol)
 Vibrational temperatures:    933.63  1182.14  1332.51  1399.11  1981.96
          (Kelvin)           2356.89  4289.47  4456.59  4649.39

 Zero-point correction=                           0.035756 (Hartree/Particle)
 Thermal correction to Energy=                    0.038897
 Thermal correction to Enthalpy=                  0.039841
 Thermal correction to Gibbs Free Energy=         0.012894
 Sum of electronic and zero-point Energies=            -77.867528
 Sum of electronic and thermal Energies=               -77.864387
 Sum of electronic and thermal Enthalpies=             -77.863443
 Sum of electronic and thermal Free Energies=          -77.890390

                     E (Thermal)             CV                S
                      KCal/Mol        Cal/Mol-Kelvin    Cal/Mol-Kelvin
 Total                   24.408              8.542             56.715
 Electronic               0.000              0.000              2.183
 Translational            0.889              2.981             35.818
 Rotational               0.889              2.981             17.894
 Vibrational             22.631              2.580              0.820

 Optimization completed.
    -- Stationary point found.
 Normal termination of Gaussian 09 at Sun Feb  3 22:59:30 2019.
