 Gaussian 09, Revision E.01,
 Gaussian 09:  EM64L-G09RevE.01 30-Nov-2015

 ------------------------------------------------------
 #p b3lyp/6-311++G(3df,2p) freq IOp(2/17=3) IOp(2/18=3)
 ------------------------------------------------------

 ---------
 b3lyp opt
 ---------
 Symbolic Z-matrix:
 Charge = -1 Multiplicity = 3

                         Standard orientation:
 ---------------------------------------------------------------------
 Center     Atomic      Atomic             Coordinates (Angstroms)
 Number     Number       Type             X           Y           Z
 ---------------------------------------------------------------------
      1          6           0       -0.000000    0.000000   -0.514710
      2          6           0        0.000000   -0.000000    0.993340
      3          1           0       -0.000000    1.020298   -0.957259
      4          1           0       -0.883604   -0.510149   -0.957259
      5          1           0        0.883604   -0.510149   -0.957259
 ---------------------------------------------------------------------

 SCF Done:  E(UB3LYP) =  -77.8773443030     A.U. after   28 cycles

 The electronic state is 3-A1.
 Alpha  occ. eigenvalues --   -9.96256  -9.92404  -0.52091  -0.30846  -0.20705
 Alpha  occ. eigenvalues --   -0.20705  -0.03758   0.06022   0.06022
 Alpha virt. eigenvalues --    0.12208   0.15320   0.15321   0.19233   0.23675
 Alpha virt. eigenvalues --    0.24492   0.24493   0.25619   0.25621   0.26699
 Alpha virt. eigenvalues --    0.29805   0.34069   0.34069   0.42775   0.46979

  Beta  occ. eigenvalues --   -9.96411  -9.90059  -0.50618  -0.25549  -0.19587
  Beta  occ. eigenvalues --   -0.19586   0.00041
  Beta virt. eigenvalues --    0.12280   0.15332   0.15332   0.18621   0.18622
  Beta virt. eigenvalues --    0.19493   0.23636   0.24610   0.24610   0.26755
  Beta virt. eigenvalues --    0.28965   0.28966   0.30670   0.34839   0.34839

 Mulliken charges and spin densities:
               1          2
     1  C    0.019975  -0.114437
     2  C   -1.093686   2.001254
     3  H    0.024581   0.037716
     4  H    0.024565   0.037733
     5  H    0.024565   0.037733
 Sum of Mulliken charges =  -1.00000   2.00000

 Dipole moment (field-independent basis, Debye):
    X=             -0.0000    Y=             -0.0003    Z=             -5.0619  Tot=              5.0619
 Quadrupole moment (field-independent basis, Debye-Ang):
   XX=            -20.1304   YY=            -20.1302   ZZ=            -29.5995
   XY=              0.0000   XZ=              0.0000   YZ=              0.0002

  Exact polarizability:  54.408   0.000  54.423   0.000  -0.018  86.521
 Approx polarizability:  61.303  -0.000  61.303  -0.000  -0.009  90.187

                      1                      2                      3
                      E                      E                     A1
 Frequencies --    885.4361               885.7377               892.9509
 Red. masses --      1.2777                 1.2778                 7.5341
 Frc consts  --      0.5902                 0.5906                 3.5394
 IR Inten    --      2.5021                 2.5293                15.7434

                      4                      5                      6
                     A1                      E                      E
 Frequencies --   1302.3826              1422.8569              1422.9348
 Red. masses --      1.1653                 1.0617                 1.0617
 Frc consts  --      1.1645                 1.2664                 1.2665
 IR Inten    --     27.3631                 0.0807                 0.0745

                      7                      8                      9
                      E                      E                     A1
 Frequencies --   2720.6970              2720.9848              2771.5822
 Red. masses --      1.0956                 1.0957                 1.0254
 Frc consts  --      4.7783                 4.7796                 4.6410
 IR Inten    --    235.3012               234.6399               579.7023

 - Thermochemistry -
 -------------------
 Temperature   298.150 Kelvin.  Pressure   1.00000 Atm.
 Atom     1 has atomic number  6 and mass  12.00000

 Molecular mass:    27.02348 amu.
 Principal axes and moments of inertia in atomic units:
                           1         2         3
     Eigenvalues --    11.23979  68.07753  68.07753
           X            0.00000  -0.00000   1.00000
           Y            0.00000   1.00000   0.00000
           Z            1.00000   0.00000   0.00000
 This molecule is a prolate symmetric top.
 Rotational symmetry number  3.
 Rotational temperatures (Kelvin)      7.70600     1.27228     1.27228
 Rotational constants (GHZ):         160.56714    26.51009    26.51009
 Zero-point vibrational energy      89872.8 (Joules/Mol)
                                   21.48012 (Kcal/Mol)
 Vibrational temperatures:   1273.94  1274.38  1284.76  1873.84  2047.17
          (Kelvin)           2047.28  3914.47  3914.89  3987.68

 Zero-point correction=                           0.034231 (Hartree/Particle)
 Thermal correction to Energy=                    0.037257
 Thermal correction to Enthalpy=                  0.038202
 Thermal correction to Gibbs Free Energy=         0.012112
 Sum of electronic and zero-point Energies=            -77.843114
 Sum of electronic and thermal Energies=               -77.840087
 Sum of electronic and thermal Enthalpies=             -77.839143
 Sum of electronic and thermal Free Energies=          -77.865233

                     E (Thermal)             CV                S
                      KCal/Mol        Cal/Mol-Kelvin    Cal/Mol-Kelvin
 Total                   23.379              7.856             54.911
 Electronic               0.000              0.000              2.183
 Translational            0.889              2.981             35.818
 Rotational               0.889              2.981             16.411
 Vibrational             21.602              1.894              0.499

 Optimization completed.
    -- Stationary point found.
 Normal termination of Gaussian 09 at Wed Mar  6 06:05:34 2019.
