 Gaussian 09, Revision E.01,
 Gaussian 09:  EM64L-G09RevE.01 30-Nov-2015

 -------------------------------------------------
 #p b3lyp/6-311++G(3df,2p) opt freq symmetry=Loose
 -------------------------------------------------

 ---------
 b3lyp opt
 ---------
 Symbolic Z-matrix:
 Charge = -1 Multiplicity = 1

 SCF Done:  E(RB3LYP) =  -77.9037251188     A.U. after   15 cycles
 SCF Done:  E(RB3LYP) =  -77.9358167075     A.U. after   13 cycles
 SCF Done:  E(RB3LYP) =  -77.9557426916     A.U. after   13 cycles
 SCF Done:  E(RB3LYP) =  -77.9585021565     A.U. after   11 cycles
 SCF Done:  E(RB3LYP) =  -77.9586021553     A.U. after   11 cycles
 SCF Done:  E(RB3LYP) =  -77.9586138070     A.U. after   10 cycles
 Optimization completed.
    -- Stationary point found.
 Normal termination of Gaussian 09 at Sun Feb  3 22:51:38 2019.

 ----------------------------------------------------------------------
 #P Geom=AllCheck Guess=TCheck SCRF=Check GenChk RB3LYP/6-311++G(3df,2p
 ) Freq
 ----------------------------------------------------------------------

 Structure from the checkpoint file:  "/scratch/sergio/H3C2.q-1.m1-6.com-4935939/Gau-1113.chk"
 ---------
 b3lyp opt
 ---------
 Charge = -1 Multiplicity = 1

                         Standard orientation:
 ---------------------------------------------------------------------
 Center     Atomic      Atomic             Coordinates (Angstroms)
 Number     Number       Type             X           Y           Z
 ---------------------------------------------------------------------
      1          6           0        0.067599    0.572662    0.000000
      2          1           0        0.998976    1.151072    0.000000
      3          1           0       -0.828409    1.226468    0.000000
      4          6           0        0.067599   -0.777646    0.000000
      5          1           0       -0.981756   -1.147632    0.000000
 ---------------------------------------------------------------------

 SCF Done:  E(RB3LYP) =  -77.9586138070     A.U. after    1 cycles

 The electronic state is 1-A'.
 Alpha  occ. eigenvalues --   -9.93531  -9.90664  -0.50164  -0.31631  -0.20655
 Alpha  occ. eigenvalues --   -0.13638  -0.03064   0.03874
 Alpha virt. eigenvalues --    0.13208   0.14884   0.15643   0.20141   0.22363
 Alpha virt. eigenvalues --    0.22656   0.23480   0.27134   0.27756   0.29835
 Alpha virt. eigenvalues --    0.29880   0.30244   0.33312   0.36258   0.40734

 Mulliken charges:
               1
     1  C   -0.409975
     2  H    0.070501
     3  H   -0.072678
     4  C   -0.663922
     5  H    0.076074
 Sum of Mulliken charges =  -1.00000

 Dipole moment (field-independent basis, Debye):
    X=             -1.6089    Y=              2.8738    Z=              0.0000  Tot=              3.2935
 Quadrupole moment (field-independent basis, Debye-Ang):
   XX=            -19.8802   YY=            -25.0630   ZZ=            -20.2669
   XY=              3.3660   XZ=              0.0000   YZ=              0.0000

  Exact polarizability:  59.021 -19.550  87.268   0.000   0.000  42.872
 Approx polarizability:  67.054 -14.326 104.066  -0.000  -0.000  52.796

                      1                      2                      3
                     A"                     A'                     A"
 Frequencies --    860.9857               929.2379              1078.2159
 Red. masses --      1.3633                 1.0616                 1.0760
 Frc consts  --      0.5954                 0.5401                 0.7370
 IR Inten    --     56.9815                29.9855                 3.0560

                      4                      5                      6
                     A'                     A'                     A'
 Frequencies --   1204.1219              1383.1285              1529.0137
 Red. masses --      1.4534                 1.7656                 1.9950
 Frc consts  --      1.2416                 1.9901                 2.7479
 IR Inten    --      9.1152                 6.4677                26.0536

                      7                      8                      9
                     A'                     A'                     A'
 Frequencies --   2744.3761              2830.6739              2955.0246
 Red. masses --      1.0712                 1.0875                 1.0756
 Frc consts  --      4.7533                 5.1342                 5.5339
 IR Inten    --    384.7160               725.9085               121.1293

 - Thermochemistry -
 -------------------
 Temperature   298.150 Kelvin.  Pressure   1.00000 Atm.
 Atom     1 has atomic number  6 and mass  12.00000

 Molecular mass:    27.02348 amu.
 Principal axes and moments of inertia in atomic units:
                           1         2         3
     Eigenvalues --     9.46964  55.06012  64.52976
           X            0.08970   0.99597   0.00000
           Y            0.99597  -0.08970   0.00000
           Z            0.00000  -0.00000   1.00000
 This molecule is an asymmetric top.
 Rotational symmetry number  1.
 Rotational temperatures (Kelvin)      9.14647     1.57308     1.34223
 Rotational constants (GHZ):         190.58179    32.77765    27.96758
 Zero-point vibrational energy      92799.0 (Joules/Mol)
                                   22.17949 (Kcal/Mol)
 Vibrational temperatures:   1238.76  1336.96  1551.31  1732.46  1990.01
          (Kelvin)           2199.91  3948.54  4072.70  4251.62

 Zero-point correction=                           0.035345 (Hartree/Particle)
 Thermal correction to Energy=                    0.038345
 Thermal correction to Enthalpy=                  0.039289
 Thermal correction to Gibbs Free Energy=         0.013440
 Sum of electronic and zero-point Energies=            -77.923269
 Sum of electronic and thermal Energies=               -77.920269
 Sum of electronic and thermal Enthalpies=             -77.919325
 Sum of electronic and thermal Free Energies=          -77.945174

                     E (Thermal)             CV                S
                      KCal/Mol        Cal/Mol-Kelvin    Cal/Mol-Kelvin
 Total                   24.062              7.661             54.404
 Electronic               0.000              0.000              0.000
 Translational            0.889              2.981             35.818
 Rotational               0.889              2.981             18.160
 Vibrational             22.284              1.699              0.426

 Optimization completed.
    -- Stationary point found.
 Normal termination of Gaussian 09 at Sun Feb  3 22:52:44 2019.
