 Gaussian 09, Revision E.01,
 Gaussian 09:  EM64L-G09RevE.01 30-Nov-2015

 -------------------------------------------------
 #p b3lyp/6-311++G(3df,2p) opt freq symmetry=Loose
 -------------------------------------------------

 ---------
 b3lyp opt
 ---------
 Symbolic Z-matrix:
 Charge = -1 Multiplicity = 1

 SCF Done:  E(RB3LYP) =  -77.9087388571     A.U. after   19 cycles
 SCF Done:  E(RB3LYP) =  -77.9161441104     A.U. after   16 cycles
 SCF Done:  E(RB3LYP) =  -77.9173219487     A.U. after   16 cycles
 SCF Done:  E(RB3LYP) =  -77.9421750606     A.U. after   15 cycles
 SCF Done:  E(RB3LYP) =  -77.9572258790     A.U. after   13 cycles
 SCF Done:  E(RB3LYP) =  -77.9584718506     A.U. after   11 cycles
 SCF Done:  E(RB3LYP) =  -77.9583617421     A.U. after   12 cycles
 SCF Done:  E(RB3LYP) =  -77.9585650944     A.U. after    8 cycles
 SCF Done:  E(RB3LYP) =  -77.9586110724     A.U. after   11 cycles
 SCF Done:  E(RB3LYP) =  -77.9586138440     A.U. after   10 cycles
 SCF Done:  E(RB3LYP) =  -77.9586140663     A.U. after    9 cycles
 Optimization completed.
    -- Stationary point found.
 Normal termination of Gaussian 09 at Sun Feb  3 22:49:50 2019.

 ----------------------------------------------------------------------
 #P Geom=AllCheck Guess=TCheck SCRF=Check GenChk RB3LYP/6-311++G(3df,2p
 ) Freq
 ----------------------------------------------------------------------

 Structure from the checkpoint file:  "/scratch/sergio/H3C2.q-1.m1-3.com-4935936/Gau-497.chk"
 ---------
 b3lyp opt
 ---------
 Charge = -1 Multiplicity = 1

                         Standard orientation:
 ---------------------------------------------------------------------
 Center     Atomic      Atomic             Coordinates (Angstroms)
 Number     Number       Type             X           Y           Z
 ---------------------------------------------------------------------
      1          6           0       -0.067655   -0.572523   -0.000000
      2          1           0        0.828506   -1.226353   -0.000000
      3          1           0       -0.998967   -1.150587   -0.000000
      4          6           0       -0.067655    0.777596    0.000000
      5          1           0        0.982318    1.146504    0.000000
 ---------------------------------------------------------------------

 SCF Done:  E(RB3LYP) =  -77.9586140663     A.U. after    1 cycles

 The electronic state is 1-A'.
 Alpha  occ. eigenvalues --   -9.93525  -9.90661  -0.50170  -0.31626  -0.20657
 Alpha  occ. eigenvalues --   -0.13625  -0.03066   0.03869
 Alpha virt. eigenvalues --    0.13209   0.14885   0.15645   0.20144   0.22364
 Alpha virt. eigenvalues --    0.22656   0.23480   0.27134   0.27755   0.29834
 Alpha virt. eigenvalues --    0.29880   0.30248   0.33310   0.36268   0.40731

 Mulliken charges:
               1
     1  C   -0.409550
     2  H   -0.072788
     3  H    0.070596
     4  C   -0.664110
     5  H    0.075853
 Sum of Mulliken charges =  -1.00000

 Dipole moment (field-independent basis, Debye):
    X=              1.6072    Y=             -2.8748    Z=             -0.0000  Tot=              3.2936
 Quadrupole moment (field-independent basis, Debye-Ang):
   XX=            -19.8771   YY=            -25.0650   ZZ=            -20.2657
   XY=              3.3625   XZ=              0.0000   YZ=             -0.0000

  Exact polarizability:  58.992 -19.527  87.225  -0.000  -0.000  42.865
 Approx polarizability:  67.036 -14.311 104.013  -0.000  -0.000  52.789

                      1                      2                      3
                     A"                     A'                     A"
 Frequencies --    860.8007               929.9785              1078.4935
 Red. masses --      1.3629                 1.0619                 1.0761
 Frc consts  --      0.5950                 0.5411                 0.7374
 IR Inten    --     57.0177                29.8294                 2.9902

                      4                      5                      6
                     A'                     A'                     A'
 Frequencies --   1204.6946              1383.5519              1529.3643
 Red. masses --      1.4527                 1.7570                 2.0066
 Frc consts  --      1.2422                 1.9816                 2.7653
 IR Inten    --      9.1908                 6.5736                25.9676

                      7                      8                      9
                     A'                     A'                     A'
 Frequencies --   2742.5848              2829.2047              2957.1656
 Red. masses --      1.0711                 1.0874                 1.0757
 Frc consts  --      4.7470                 5.1282                 5.5425
 IR Inten    --    383.4170               726.8945               121.1577

 - Thermochemistry -
 -------------------
 Temperature   298.150 Kelvin.  Pressure   1.00000 Atm.
 Atom     1 has atomic number  6 and mass  12.00000

 Molecular mass:    27.02348 amu.
 Principal axes and moments of inertia in atomic units:
                           1         2         3
     Eigenvalues --     9.47513  55.03497  64.51010
           X            0.08967   0.99597   0.00000
           Y            0.99597  -0.08967   0.00000
           Z           -0.00000  -0.00000   1.00000
 This molecule is an asymmetric top.
 Rotational symmetry number  1.
 Rotational temperatures (Kelvin)      9.14117     1.57380     1.34264
 Rotational constants (GHZ):         190.47138    32.79263    27.97610
 Zero-point vibrational energy      92805.3 (Joules/Mol)
                                   22.18100 (Kcal/Mol)
 Vibrational temperatures:   1238.50  1338.03  1551.71  1733.28  1990.62
          (Kelvin)           2200.41  3945.96  4070.59  4254.70

 Zero-point correction=                           0.035348 (Hartree/Particle)
 Thermal correction to Energy=                    0.038347
 Thermal correction to Enthalpy=                  0.039291
 Thermal correction to Gibbs Free Energy=         0.013443
 Sum of electronic and zero-point Energies=            -77.923266
 Sum of electronic and thermal Energies=               -77.920267
 Sum of electronic and thermal Enthalpies=             -77.919323
 Sum of electronic and thermal Free Energies=          -77.945172

                     E (Thermal)             CV                S
                      KCal/Mol        Cal/Mol-Kelvin    Cal/Mol-Kelvin
 Total                   24.063              7.659             54.403
 Electronic               0.000              0.000              0.000
 Translational            0.889              2.981             35.818
 Rotational               0.889              2.981             18.160
 Vibrational             22.286              1.698              0.425

 Optimization completed.
    -- Stationary point found.
 Normal termination of Gaussian 09 at Sun Feb  3 22:50:56 2019.
