 Gaussian 09, Revision E.01,
 Gaussian 09:  EM64L-G09RevE.01 30-Nov-2015

 ------------------------------------------------------
 #p b3lyp/6-311++G(3df,2p) freq IOp(2/17=3) IOp(2/18=3)
 ------------------------------------------------------

 ---------
 b3lyp opt
 ---------
 Symbolic Z-matrix:
 Charge = -1 Multiplicity = 1

                         Standard orientation:
 ---------------------------------------------------------------------
 Center     Atomic      Atomic             Coordinates (Angstroms)
 Number     Number       Type             X           Y           Z
 ---------------------------------------------------------------------
      1          6           0       -0.694506   -1.170160    0.153612
      2          6           0       -0.947962    1.043088   -0.063214
      3          6           0       -0.047747    0.004823   -0.139151
      4          1           0       -1.653314   -1.242220   -0.360324
      5          1           0        1.625609   -0.782912    0.181386
      6          1           0       -0.574160    1.787894    0.669261
      7          8           0        1.342894    0.121342   -0.024726
 ---------------------------------------------------------------------

 SCF Done:  E(RB3LYP) =  -191.258945406     A.U. after   14 cycles

 The electronic state is 1-A.
 Alpha  occ. eigenvalues --  -18.96765 -10.03111  -9.97105  -9.96927  -0.86591
 Alpha  occ. eigenvalues --   -0.58966  -0.44142  -0.36694  -0.28192  -0.23757
 Alpha  occ. eigenvalues --   -0.20926  -0.16923  -0.07029  -0.03519  -0.00873
 Alpha virt. eigenvalues --    0.11929   0.12570   0.14417   0.15024   0.18123
 Alpha virt. eigenvalues --    0.20040   0.20873   0.22346   0.23216   0.23616
 Alpha virt. eigenvalues --    0.24839   0.25747   0.25977   0.26558   0.28484

 Mulliken charges:
               1
     1  C   -0.818599
     2  C   -0.679976
     3  C    0.724495
     4  H    0.130266
     5  H    0.182579
     6  H    0.093791
     7  O   -0.632555
 Sum of Mulliken charges =  -1.00000

 Dipole moment (field-independent basis, Debye):
    X=              3.1965    Y=             -0.0292    Z=             -0.2885  Tot=              3.2096
 Quadrupole moment (field-independent basis, Debye-Ang):
   XX=            -36.7562   YY=            -38.1738   ZZ=            -30.9166
   XY=              0.6628   XZ=             -0.0070   YZ=              3.9576

  Exact polarizability:  77.769 -10.778  99.191   3.098  -6.849  51.516
 Approx polarizability: 102.868 -13.850 164.822   0.860  -7.208  69.164

                      1                      2                      3
                      A                      A                      A
 Frequencies --    248.2524               468.3332               473.1492
 Red. masses --      3.3751                 2.6192                 1.5441
 Frc consts  --      0.1226                 0.3385                 0.2037
 IR Inten    --      9.5452                47.4097                23.9684

                      4                      5                      6
                      A                      A                      A
 Frequencies --    579.0199               676.9578               766.0160
 Red. masses --      2.2715                 1.4503                 1.2158
 Frc consts  --      0.4487                 0.3916                 0.4203
 IR Inten    --     41.5062                31.6468                54.9386

                      7                      8                      9
                      A                      A                      A
 Frequencies --    849.9126               987.0155              1044.9043
 Red. masses --      3.7270                 1.3185                 1.5221
 Frc consts  --      1.5862                 0.7568                 0.9792
 IR Inten    --     97.6201                23.8102                53.8104

                     10                     11                     12
                      A                      A                      A
 Frequencies --   1190.6484              1377.9664              1489.0874
 Red. masses --      1.4052                 7.2868                 3.6013
 Frc consts  --      1.1737                 8.1520                 4.7049
 IR Inten    --    108.7394               163.3231                23.4316

                     13                     14                     15
                      A                      A                      A
 Frequencies --   2857.5268              3076.3545              3685.0427
 Red. masses --      1.0826                 1.0850                 1.0636
 Frc consts  --      5.2081                 6.0498                 8.5094
 IR Inten    --    198.2285                30.5149                27.9286

 - Thermochemistry -
 -------------------
 Temperature   298.150 Kelvin.  Pressure   1.00000 Atm.
 Atom     1 has atomic number  6 and mass  12.00000

 Molecular mass:    55.01839 amu.
 Principal axes and moments of inertia in atomic units:
                           1         2         3
     Eigenvalues --   129.60233 186.80656 308.44899
           X            0.99982  -0.01634   0.00971
           Y            0.01590   0.99892   0.04366
           Z           -0.01041  -0.04350   0.99900
 This molecule is an asymmetric top.
 Rotational symmetry number  1.
 Rotational temperatures (Kelvin)      0.66830     0.46366     0.28080
 Rotational constants (GHZ):          13.92522     9.66102     5.85102
 Zero-point vibrational energy     118252.0 (Joules/Mol)
                                   28.26290 (Kcal/Mol)
 Warning -- explicit consideration of   4 degrees of freedom as
           vibrations may cause significant error
 Vibrational temperatures:    357.18   673.83   680.76   833.08   973.99
          (Kelvin)           1102.12  1222.83  1420.09  1503.38  1713.08
                             1982.58  2142.46  4111.34  4426.18  5301.95

 Zero-point correction=                           0.045040 (Hartree/Particle)
 Thermal correction to Energy=                    0.049403
 Thermal correction to Enthalpy=                  0.050347
 Thermal correction to Gibbs Free Energy=         0.018913
 Sum of electronic and zero-point Energies=           -191.213906
 Sum of electronic and thermal Energies=              -191.209542
 Sum of electronic and thermal Enthalpies=            -191.208598
 Sum of electronic and thermal Free Energies=         -191.240033

                     E (Thermal)             CV                S
                      KCal/Mol        Cal/Mol-Kelvin    Cal/Mol-Kelvin
 Total                   31.001             14.714             66.159
 Electronic               0.000              0.000              0.000
 Translational            0.889              2.981             37.937
 Rotational               0.889              2.981             23.528
 Vibrational             29.223              8.752              4.694
 Vibration     1          0.662              1.766              1.743
 Vibration     2          0.826              1.320              0.742
 Vibration     3          0.830              1.310              0.729
 Vibration     4          0.936              1.077              0.487

 Normal termination of Gaussian 09 at Thu Mar  7 08:38:34 2019.
