 Gaussian 09, Revision E.01,
 Gaussian 09:  EM64L-G09RevE.01 30-Nov-2015

 ------------------------------------------------------
 #p b3lyp/6-311++G(3df,2p) freq IOp(2/17=3) IOp(2/18=3)
 ------------------------------------------------------

 ---------
 b3lyp opt
 ---------
 Symbolic Z-matrix:
 Charge = -1 Multiplicity = 1

                         Standard orientation:
 ---------------------------------------------------------------------
 Center     Atomic      Atomic             Coordinates (Angstroms)
 Number     Number       Type             X           Y           Z
 ---------------------------------------------------------------------
      1          6           0       -0.000000    1.211964   -0.000000
      2          6           0        1.109015    0.181893    0.000000
      3          6           0       -0.111395   -0.334547   -0.000000
      4          1           0       -0.248570    1.779546    0.910614
      5          1           0       -0.248570    1.779546   -0.910614
      6          1           0        2.184321    0.082242    0.000000
      7          8           0       -0.959130   -1.249684   -0.000000
 ---------------------------------------------------------------------

 SCF Done:  E(RB3LYP) =  -191.356795463     A.U. after   15 cycles

 The electronic state is 1-A'.
 Alpha  occ. eigenvalues --  -18.87055 -10.02049  -9.97446  -9.94702  -0.78375
 Alpha  occ. eigenvalues --   -0.63097  -0.39405  -0.32454  -0.23913  -0.23484
 Alpha  occ. eigenvalues --   -0.18496  -0.13685  -0.11257  -0.01164   0.00435
 Alpha virt. eigenvalues --    0.11993   0.13095   0.14460   0.17613   0.20813
 Alpha virt. eigenvalues --    0.21137   0.21630   0.22077   0.23356   0.25353
 Alpha virt. eigenvalues --    0.25583   0.26948   0.28506   0.28570   0.29329

 Mulliken charges:
               1
     1  C   -0.377676
     2  C   -0.143383
     3  C    0.234817
     4  H    0.017906
     5  H    0.017906
     6  H    0.134227
     7  O   -0.883796
 Sum of Mulliken charges =  -1.00000

 Dipole moment (field-independent basis, Debye):
    X=              1.3053    Y=              1.7256    Z=              0.0000  Tot=              2.1637
 Quadrupole moment (field-independent basis, Debye-Ang):
   XX=            -33.0374   YY=            -36.3394   ZZ=            -28.6918
   XY=             -4.1914   XZ=             -0.0000   YZ=              0.0000

  Exact polarizability:  64.913  -0.136  67.262  -0.000   0.000  47.258
 Approx polarizability:  96.262   7.666  90.417   0.000   0.000  61.546

                      1                      2                      3
                     A"                     A'                     A"
 Frequencies --    186.8085               456.3915               581.1075
 Red. masses --      1.2463                 3.4664                 4.0338
 Frc consts  --      0.0256                 0.4254                 0.8026
 IR Inten    --     76.0790                 0.5472                33.2054

                      4                      5                      6
                     A'                     A'                     A"
 Frequencies --    702.2753               893.5630               941.3392
 Red. masses --      5.4184                 1.6927                 1.1907
 Frc consts  --      1.5745                 0.7963                 0.6216
 IR Inten    --     32.9511                57.4879                10.1282

                      7                      8                      9
                     A'                     A"                     A'
 Frequencies --    967.1696              1063.4799              1080.0922
 Red. masses --      1.5077                 1.2812                 2.7507
 Frc consts  --      0.8310                 0.8537                 1.8907
 IR Inten    --     21.1951                 1.0322                 0.5353

                     10                     11                     12
                     A'                     A'                     A'
 Frequencies --   1160.8905              1483.8475              1826.3193
 Red. masses --      6.4510                 1.1091                 8.4171
 Frc consts  --      5.1222                 1.4388                16.5412
 IR Inten    --    113.9999                56.4126               901.3537

                     13                     14                     15
                     A'                     A"                     A'
 Frequencies --   2877.8108              2886.8445              3160.0518
 Red. masses --      1.0417                 1.1134                 1.1065
 Frc consts  --      5.0828                 5.4668                 6.5100
 IR Inten    --    348.8858               254.7562                69.7340

 - Thermochemistry -
 -------------------
 Temperature   298.150 Kelvin.  Pressure   1.00000 Atm.
 Atom     1 has atomic number  6 and mass  12.00000

 Molecular mass:    55.01839 amu.
 Principal axes and moments of inertia in atomic units:
                           1         2         3
     Eigenvalues --    76.76642 238.72516 303.55414
           X            0.56892   0.82240  -0.00000
           Y            0.82240  -0.56892   0.00000
           Z            0.00000   0.00000   1.00000
 This molecule is an asymmetric top.
 Rotational symmetry number  1.
 Rotational temperatures (Kelvin)      1.12828     0.36282     0.28533
 Rotational constants (GHZ):          23.50951     7.55991     5.94537
 Zero-point vibrational energy     121229.5 (Joules/Mol)
                                   28.97455 (Kcal/Mol)
 Warning -- explicit consideration of   3 degrees of freedom as
           vibrations may cause significant error
 Vibrational temperatures:    268.78   656.64   836.08  1010.42  1285.64
          (Kelvin)           1354.38  1391.54  1530.11  1554.01  1670.26
                             2134.92  2627.66  4140.52  4153.52  4546.60

 Zero-point correction=                           0.046174 (Hartree/Particle)
 Thermal correction to Energy=                    0.050354
 Thermal correction to Enthalpy=                  0.051298
 Thermal correction to Gibbs Free Energy=         0.020145
 Sum of electronic and zero-point Energies=           -191.310622
 Sum of electronic and thermal Energies=              -191.306441
 Sum of electronic and thermal Enthalpies=            -191.305497
 Sum of electronic and thermal Free Energies=         -191.336650

                     E (Thermal)             CV                S
                      KCal/Mol        Cal/Mol-Kelvin    Cal/Mol-Kelvin
 Total                   31.598             13.378             65.567
 Electronic               0.000              0.000              0.000
 Translational            0.889              2.981             37.937
 Rotational               0.889              2.981             23.235
 Vibrational             29.820              7.416              4.395
 Vibration     1          0.632              1.858              2.259
 Vibration     2          0.815              1.347              0.777
 Vibration     3          0.938              1.072              0.483

 Optimization completed.
    -- Stationary point found.
 Normal termination of Gaussian 09 at Thu Mar  7 08:33:37 2019.
