 Gaussian 09, Revision E.01,
 Gaussian 09:  EM64L-G09RevE.01 30-Nov-2015

 ------------------------------------------------------
 #p b3lyp/6-311++G(3df,2p) freq IOp(2/17=3) IOp(2/18=3)
 ------------------------------------------------------

 ---------
 b3lyp opt
 ---------
 Symbolic Z-matrix:
 Charge = -1 Multiplicity = 3

                         Standard orientation:
 ---------------------------------------------------------------------
 Center     Atomic      Atomic             Coordinates (Angstroms)
 Number     Number       Type             X           Y           Z
 ---------------------------------------------------------------------
      1          6           0       -0.086915   -0.716235    0.434862
      2          6           0       -0.504503    0.734213    0.260344
      3          8           0       -1.196605   -0.286781   -0.532335
      4          6           0        0.884258    0.975499   -0.148333
      5          6           0        1.258174   -0.424355   -0.058506
      6          1           0       -0.458604   -1.435204    1.160748
      7          1           0       -1.164109    1.349649    0.863592
      8          1           0        1.889469   -1.034933   -0.695869
 ---------------------------------------------------------------------

 SCF Done:  E(UB3LYP) =  -229.292180826     A.U. after   22 cycles

 The electronic state is 3-A.
 Alpha  occ. eigenvalues --  -18.93190 -10.04095 -10.03994  -9.97277  -9.96375
 Alpha  occ. eigenvalues --   -0.85027  -0.62017  -0.46102  -0.41903  -0.33606
 Alpha  occ. eigenvalues --   -0.29080  -0.23674  -0.21672  -0.19747  -0.14216
 Alpha  occ. eigenvalues --   -0.07937  -0.06117  -0.01630   0.07142
 Alpha virt. eigenvalues --    0.11794   0.12873   0.13766   0.18132   0.18293
 Alpha virt. eigenvalues --    0.20665   0.21018   0.21232   0.23293   0.23400
 Alpha virt. eigenvalues --    0.23937   0.25187   0.25746   0.26068   0.27501

  Beta  occ. eigenvalues --  -18.92768 -10.03788 -10.03761  -9.95742  -9.95474
  Beta  occ. eigenvalues --   -0.84186  -0.59938  -0.44660  -0.40492  -0.32773
  Beta  occ. eigenvalues --   -0.27022  -0.21850  -0.19514  -0.18092  -0.12493
  Beta  occ. eigenvalues --   -0.06487  -0.01698
  Beta virt. eigenvalues --    0.10154   0.11794   0.12899   0.14024   0.16541
  Beta virt. eigenvalues --    0.18375   0.19029   0.20837   0.21172   0.22045
  Beta virt. eigenvalues --    0.23282   0.23713   0.24125   0.25760   0.25983

 Mulliken charges and spin densities:
               1          2
     1  C    0.194493   0.182557
     2  C   -0.173687   0.044382
     3  O   -0.684851   0.102612
     4  C   -0.123085   1.271040
     5  C   -0.475582   0.374500
     6  H    0.112322   0.011968
     7  H    0.076302   0.010309
     8  H    0.074089   0.002632
 Sum of Mulliken charges =  -1.00000   2.00000

 Dipole moment (field-independent basis, Debye):
    X=             -2.0908    Y=             -1.2627    Z=              1.0751  Tot=              2.6686
 Quadrupole moment (field-independent basis, Debye-Ang):
   XX=            -43.9161   YY=            -38.4881   ZZ=            -36.9423
   XY=             -3.7072   XZ=             -3.8337   YZ=              0.1140

  Exact polarizability:  95.338   6.345 102.995   5.435   1.784  70.358
 Approx polarizability: 129.067   6.417 132.454   2.778  -1.502  88.520

                      1                      2                      3
                      A                      A                      A
 Frequencies --    167.3716               413.9806               519.3998
 Red. masses --      4.1635                 2.2128                 6.8791
 Frc consts  --      0.0687                 0.2234                 1.0934
 IR Inten    --     53.1870                88.2643                52.3136

                      4                      5                      6
                      A                      A                      A
 Frequencies --    584.8326               633.2200               776.4259
 Red. masses --      5.1107                 2.7558                 1.9215
 Frc consts  --      1.0299                 0.6510                 0.6825
 IR Inten    --      5.1922               103.2496                33.6688

                      7                      8                      9
                      A                      A                      A
 Frequencies --    812.4808               875.8359               992.1892
 Red. masses --      2.4400                 1.9370                 1.8485
 Frc consts  --      0.9490                 0.8755                 1.0721
 IR Inten    --     41.0815                56.0673                44.7347

                     10                     11                     12
                      A                      A                      A
 Frequencies --   1010.7472              1085.0963              1140.0719
 Red. masses --      2.8087                 2.8542                 1.7330
 Frc consts  --      1.6906                 1.9800                 1.3271
 IR Inten    --     24.2598                15.7947                 6.6735

                     13                     14                     15
                      A                      A                      A
 Frequencies --   1186.2191              1211.9346              1245.5665
 Red. masses --      2.7258                 1.4519                 1.4851
 Frc consts  --      2.2598                 1.2565                 1.3575
 IR Inten    --     11.9088                 3.8935                42.9216

                     16                     17                     18
                      A                      A                      A
 Frequencies --   3059.3722              3099.4710              3108.6597
 Red. masses --      1.0852                 1.0897                 1.0922
 Frc consts  --      5.9844                 6.1676                 6.2187
 IR Inten    --    136.3595               235.5049                61.5114

 - Thermochemistry -
 -------------------
 Temperature   298.150 Kelvin.  Pressure   1.00000 Atm.
 Atom     1 has atomic number  6 and mass  12.00000

 Molecular mass:    67.01839 amu.
 Principal axes and moments of inertia in atomic units:
                           1         2         3
     Eigenvalues --   151.88572 251.32626 329.47244
           X            0.99317  -0.10114  -0.05811
           Y            0.10225   0.99462   0.01634
           Z            0.05614  -0.02217   0.99818
 This molecule is an asymmetric top.
 Rotational symmetry number  1.
 Rotational temperatures (Kelvin)      0.57026     0.34463     0.26289
 Rotational constants (GHZ):          11.88223     7.18087     5.47767
 Zero-point vibrational energy     131127.9 (Joules/Mol)
                                   31.34032 (Kcal/Mol)
 Warning -- explicit consideration of   4 degrees of freedom as
           vibrations may cause significant error
 Vibrational temperatures:    240.81   595.62   747.30   841.44   911.06
          (Kelvin)           1117.10  1168.98  1260.13  1427.54  1454.24
                             1561.21  1640.31  1706.70  1743.70  1792.09
                             4401.75  4459.44  4472.66

 Zero-point correction=                           0.049944 (Hartree/Particle)
 Thermal correction to Energy=                    0.054596
 Thermal correction to Enthalpy=                  0.055540
 Thermal correction to Gibbs Free Energy=         0.021988
 Sum of electronic and zero-point Energies=           -229.242237
 Sum of electronic and thermal Energies=              -229.237585
 Sum of electronic and thermal Enthalpies=            -229.236641
 Sum of electronic and thermal Free Energies=         -229.270193

                     E (Thermal)             CV                S
                      KCal/Mol        Cal/Mol-Kelvin    Cal/Mol-Kelvin
 Total                   34.259             16.253             70.616
 Electronic               0.000              0.000              2.183
 Translational            0.889              2.981             38.525
 Rotational               0.889              2.981             24.046
 Vibrational             32.482             10.291              5.862
 Vibration     1          0.624              1.883              2.465
 Vibration     2          0.778              1.440              0.913
 Vibration     3          0.874              1.207              0.611
 Vibration     4          0.942              1.064              0.476

 Optimization completed.
    -- Stationary point found.
 Normal termination of Gaussian 09 at Thu Mar  7 10:14:40 2019.
