 Gaussian 09, Revision E.01,
 Gaussian 09:  EM64L-G09RevE.01 30-Nov-2015

 ------------------------------------------------------
 #p b3lyp/6-311++G(3df,2p) freq IOp(2/17=3) IOp(2/18=3)
 ------------------------------------------------------

 ---------
 b3lyp opt
 ---------
 Symbolic Z-matrix:
 Charge = -1 Multiplicity = 3

                         Standard orientation:
 ---------------------------------------------------------------------
 Center     Atomic      Atomic             Coordinates (Angstroms)
 Number     Number       Type             X           Y           Z
 ---------------------------------------------------------------------
      1          6           0       -0.814333   -1.006750    0.000000
      2          6           0        0.000000    1.097455    0.000000
      3          8           0       -1.126856    0.356137    0.000000
      4          6           0        1.129070    0.286033   -0.000000
      5          6           0        0.641654   -1.002024   -0.000000
      6          1           0       -0.106134    2.174177    0.000000
      7          1           0        2.150675    0.635795   -0.000000
      8          1           0        1.231960   -1.907345   -0.000000
 ---------------------------------------------------------------------

 SCF Done:  E(UB3LYP) =  -229.363940377     A.U. after   26 cycles

 The electronic state is 3-A".
 Alpha  occ. eigenvalues --  -19.08249 -10.15333 -10.10697 -10.07985 -10.07907
 Alpha  occ. eigenvalues --   -1.00357  -0.70863  -0.63769  -0.49117  -0.46197
 Alpha  occ. eigenvalues --   -0.42557  -0.35553  -0.32368  -0.30396  -0.26878
 Alpha  occ. eigenvalues --   -0.19651  -0.14192  -0.11946   0.05453
 Alpha virt. eigenvalues --    0.08367   0.08436   0.09921   0.14115   0.14446
 Alpha virt. eigenvalues --    0.14981   0.15662   0.17127   0.18502   0.19345
 Alpha virt. eigenvalues --    0.19539   0.20155   0.20892   0.21154   0.22140

  Beta  occ. eigenvalues --  -19.08378 -10.14514 -10.10160 -10.07942 -10.07595
  Beta  occ. eigenvalues --   -1.00093  -0.70177  -0.61811  -0.48432  -0.45389
  Beta  occ. eigenvalues --   -0.41912  -0.33678  -0.32021  -0.29856  -0.26714
  Beta  occ. eigenvalues --   -0.18557  -0.11048
  Beta virt. eigenvalues --   -0.04047   0.09061   0.10291   0.11397   0.11672
  Beta virt. eigenvalues --    0.14963   0.15717   0.15965   0.16484   0.17535
  Beta virt. eigenvalues --    0.19258   0.19859   0.20095   0.20752   0.21487

 Mulliken charges and spin densities:
               1          2
     1  C   -0.582425   0.601948
     2  C    2.242170  -1.662904
     3  O   -0.523401  -0.044902
     4  C    0.212870  -0.206871
     5  C    1.619383  -1.223146
     6  H   -1.646965   1.844486
     7  H   -2.148170   2.381748
     8  H   -0.173462   0.309641
 Sum of Mulliken charges =  -1.00000   2.00000

 Dipole moment (field-independent basis, Debye):
    X=             -4.5277    Y=             -4.7116    Z=              0.0000  Tot=              6.5345
 Quadrupole moment (field-independent basis, Debye-Ang):
   XX=            -71.4638   YY=            -73.8779   ZZ=            -47.5374
   XY=             -9.9250   XZ=              0.0000   YZ=              0.0000

  Exact polarizability: 937.739-493.3721762.066   0.000   0.000 250.642
 Approx polarizability: 922.000-611.3711520.603  -0.000   0.000 202.965

                      1                      2                      3
                     A"                     A'                     A"
 Frequencies --    410.3161               716.1344               744.2044
 Red. masses --      2.6330                10.6766                 1.3851
 Frc consts  --      0.2612                 3.2261                 0.4520
 IR Inten    --    305.2691                13.3553               821.5159

                      4                      5                      6
                     A"                     A'                     A'
 Frequencies --    848.3864               869.9929               905.9060
 Red. masses --      1.6133                 5.8344                 7.7985
 Frc consts  --      0.6842                 2.6018                 3.7707
 IR Inten    --      0.5568                94.7074               247.7944

                      7                      8                      9
                     A"                     A'                     A'
 Frequencies --    984.0845              1018.8745              1027.2471
 Red. masses --      1.3725                 2.2114                 1.9830
 Frc consts  --      0.7831                 1.3525                 1.2329
 IR Inten    --    908.4674               106.2610               370.9849

                     10                     11                     12
                     A'                     A'                     A"
 Frequencies --   1100.2487              1136.6362              1212.1885
 Red. masses --      1.6044                 2.4707                 2.6538
 Frc consts  --      1.1443                 1.8807                 2.2975
 IR Inten    --    110.0766               192.5686               540.3843

                     13                     14                     15
                     A'                     A'                     A'
 Frequencies --   1340.7061              1408.4052              1482.4937
 Red. masses --      1.7191                 3.4027                 3.2593
 Frc consts  --      1.8206                 3.9768                 4.2205
 IR Inten    --     58.0897               641.0984               100.5641

                     16                     17                     18
                     A'                     A'                     A'
 Frequencies --   3161.9959              3180.8587              3187.2746
 Red. masses --      1.0972                 1.0987                 1.0962
 Frc consts  --      6.4631                 6.5497                 6.5614
 IR Inten    --     52.4340                 4.1924               179.5834

 - Thermochemistry -
 -------------------
 Temperature   298.150 Kelvin.  Pressure   1.00000 Atm.
 Atom     1 has atomic number  6 and mass  12.00000

 Molecular mass:    67.01839 amu.
 Principal axes and moments of inertia in atomic units:
                           1         2         3
     Eigenvalues --   178.15965 196.98815 375.14781
           X            0.94032   0.34030   0.00000
           Y           -0.34030   0.94032   0.00000
           Z           -0.00000   0.00000   1.00000
 This molecule is an asymmetric top.
 Rotational symmetry number  1.
 Rotational temperatures (Kelvin)      0.48616     0.43969     0.23088
 Rotational constants (GHZ):          10.12991     9.16167     4.81075
 Zero-point vibrational energy     147953.9 (Joules/Mol)
                                   35.36182 (Kcal/Mol)
 Warning -- explicit consideration of   1 degrees of freedom as
           vibrations may cause significant error
 Vibrational temperatures:    590.35  1030.36  1070.74  1220.64  1251.72
          (Kelvin)           1303.40  1415.88  1465.93  1477.98  1583.01
                             1635.36  1744.07  1928.97  2026.38  2132.98
                             4549.40  4576.54  4585.77

 Zero-point correction=                           0.056353 (Hartree/Particle)
 Thermal correction to Energy=                    0.060057
 Thermal correction to Enthalpy=                  0.061001
 Thermal correction to Gibbs Free Energy=         0.029066
 Sum of electronic and zero-point Energies=           -229.307588
 Sum of electronic and thermal Energies=              -229.303884
 Sum of electronic and thermal Enthalpies=            -229.302939
 Sum of electronic and thermal Free Energies=         -229.334875

                     E (Thermal)             CV                S
                      KCal/Mol        Cal/Mol-Kelvin    Cal/Mol-Kelvin
 Total                   37.686             12.703             67.214
 Electronic               0.000              0.000              2.183
 Translational            0.889              2.981             38.525
 Rotational               0.889              2.981             24.091
 Vibrational             35.909              6.741              2.414
 Vibration     1          0.774              1.448              0.926

 Normal termination of Gaussian 09 at Thu Mar  7 09:38:51 2019.
