 Gaussian 09, Revision E.01,
 Gaussian 09:  EM64L-G09RevE.01 30-Nov-2015

 ------------------------------------------------------
 #p b3lyp/6-311++G(3df,2p) freq IOp(2/17=3) IOp(2/18=3)
 ------------------------------------------------------

 ---------
 b3lyp opt
 ---------
 Symbolic Z-matrix:
 Charge = -1 Multiplicity = 1

                         Standard orientation:
 ---------------------------------------------------------------------
 Center     Atomic      Atomic             Coordinates (Angstroms)
 Number     Number       Type             X           Y           Z
 ---------------------------------------------------------------------
      1          6           0       -0.265504   -0.725202    0.392976
      2          6           0       -0.419194    0.714764    0.351116
      3          8           0       -1.185201   -0.110530   -0.587669
      4          6           0        1.081932    0.871815   -0.158606
      5          6           0        1.155849   -0.495964   -0.072725
      6          1           0       -0.731025   -1.465160    1.044118
      7          1           0       -1.015971    1.365734    0.982485
      8          1           0        1.910106   -1.208805   -0.401812
 ---------------------------------------------------------------------

 SCF Done:  E(RB3LYP) =  -229.358771025     A.U. after   15 cycles

 The electronic state is 1-A.
 Alpha  occ. eigenvalues --  -18.95027 -10.04110 -10.03120  -9.96429  -9.94408
 Alpha  occ. eigenvalues --   -0.87299  -0.60573  -0.44249  -0.43374  -0.33721
 Alpha  occ. eigenvalues --   -0.29270  -0.24186  -0.20086  -0.18773  -0.12776
 Alpha  occ. eigenvalues --   -0.08139  -0.03670   0.00882
 Alpha virt. eigenvalues --    0.11171   0.12667   0.13501   0.16808   0.17673
 Alpha virt. eigenvalues --    0.18986   0.20541   0.21891   0.22283   0.22759
 Alpha virt. eigenvalues --    0.23599   0.23987   0.25390   0.25720   0.26236

 Mulliken charges:
               1
     1  C    0.119194
     2  C   -0.170510
     3  O   -0.641864
     4  C   -0.139227
     5  C   -0.379236
     6  H    0.101586
     7  H    0.043101
     8  H    0.066957
 Sum of Mulliken charges =  -1.00000

 Dipole moment (field-independent basis, Debye):
    X=             -3.1727    Y=             -3.1252    Z=              2.2371  Tot=              4.9838
 Quadrupole moment (field-independent basis, Debye-Ang):
   XX=            -45.2879   YY=            -38.9355   ZZ=            -36.6005
   XY=             -6.8988   XZ=             -1.0519   YZ=              1.5924

  Exact polarizability:  80.677   9.552  84.600  -6.089  -5.087  63.108
 Approx polarizability: 104.190   4.827 119.991  -2.351  -4.940  86.989

                      1                      2                      3
                      A                      A                      A
 Frequencies --    403.0226               491.7252               648.5036
 Red. masses --      5.9117                 3.9310                 8.1144
 Frc consts  --      0.5657                 0.5600                 2.0106
 IR Inten    --     16.3051                 5.6146                 4.0820

                      4                      5                      6
                      A                      A                      A
 Frequencies --    723.4749               747.1498               827.0432
 Red. masses --      3.5097                 1.5196                 2.6472
 Frc consts  --      1.0823                 0.4998                 1.0668
 IR Inten    --      4.7766                18.7745                97.0418

                      7                      8                      9
                      A                      A                      A
 Frequencies --    846.0112               887.4796               946.2954
 Red. masses --      6.2031                 1.4928                 2.5098
 Frc consts  --      2.6158                 0.6927                 1.3242
 IR Inten    --     20.9100                35.0548                 1.0763

                     10                     11                     12
                      A                      A                      A
 Frequencies --   1052.2168              1140.3110              1182.3661
 Red. masses --      1.2933                 1.3038                 1.2686
 Frc consts  --      0.8437                 0.9989                 1.0449
 IR Inten    --      1.1716                 4.1945                11.0476

                     13                     14                     15
                      A                      A                      A
 Frequencies --   1238.2344              1346.7654              1424.8558
 Red. masses --      1.6323                 6.0482                 5.3605
 Frc consts  --      1.4745                 6.4634                 6.4121
 IR Inten    --     19.6453                22.4629                 7.7906

                     16                     17                     18
                      A                      A                      A
 Frequencies --   3038.1199              3074.3687              3109.5897
 Red. masses --      1.0863                 1.0918                 1.0936
 Frc consts  --      5.9074                 6.0801                 6.2301
 IR Inten    --    262.1576               157.7701                85.8359

 - Thermochemistry -
 -------------------
 Temperature   298.150 Kelvin.  Pressure   1.00000 Atm.
 Atom     1 has atomic number  6 and mass  12.00000

 Molecular mass:    67.01839 amu.
 Principal axes and moments of inertia in atomic units:
                           1         2         3
     Eigenvalues --   147.39239 258.48533 325.29625
           X            0.99526  -0.08237  -0.05160
           Y            0.08355   0.99628   0.02107
           Z            0.04967  -0.02529   0.99845
 This molecule is an asymmetric top.
 Rotational symmetry number  1.
 Rotational temperatures (Kelvin)      0.58764     0.33508     0.26626
 Rotational constants (GHZ):          12.24447     6.98199     5.54799
 Zero-point vibrational energy     138333.4 (Joules/Mol)
                                   33.06247 (Kcal/Mol)
 Warning -- explicit consideration of   2 degrees of freedom as
           vibrations may cause significant error
 Vibrational temperatures:    579.86   707.48   933.05  1040.92  1074.98
          (Kelvin)           1189.93  1217.22  1276.88  1361.51  1513.90
                             1640.65  1701.16  1781.54  1937.69  2050.05
                             4371.17  4423.33  4474.00

 Zero-point correction=                           0.052688 (Hartree/Particle)
 Thermal correction to Energy=                    0.056730
 Thermal correction to Enthalpy=                  0.057674
 Thermal correction to Gibbs Free Energy=         0.026333
 Sum of electronic and zero-point Energies=           -229.306083
 Sum of electronic and thermal Energies=              -229.302041
 Sum of electronic and thermal Enthalpies=            -229.301097
 Sum of electronic and thermal Free Energies=         -229.332438

                     E (Thermal)             CV                S
                      KCal/Mol        Cal/Mol-Kelvin    Cal/Mol-Kelvin
 Total                   35.599             14.486             65.964
 Electronic               0.000              0.000              0.000
 Translational            0.889              2.981             38.525
 Rotational               0.889              2.981             24.031
 Vibrational             33.821              8.525              3.408
 Vibration     1          0.768              1.464              0.952
 Vibration     2          0.847              1.268              0.679

 Optimization completed.
    -- Stationary point found.
 Normal termination of Gaussian 09 at Thu Mar  7 09:15:49 2019.
