 Gaussian 09, Revision E.01,
 Gaussian 09:  EM64L-G09RevE.01 30-Nov-2015

 ------------------------------------------------------
 #p b3lyp/6-311++G(3df,2p) freq IOp(2/17=3) IOp(2/18=3)
 ------------------------------------------------------

 ---------
 b3lyp opt
 ---------
 Symbolic Z-matrix:
 Charge = -1 Multiplicity = 1

                         Standard orientation:
 ---------------------------------------------------------------------
 Center     Atomic      Atomic             Coordinates (Angstroms)
 Number     Number       Type             X           Y           Z
 ---------------------------------------------------------------------
      1          6           0       -1.494447    0.643180   -0.064619
      2          6           0        1.038399   -0.001091   -0.527121
      3          8           0        2.109243    0.000413    0.081520
      4          6           0       -0.201615   -0.000704    0.400067
      5          6           0       -1.495578   -0.642313   -0.064833
      6          1           0       -1.990320    1.568239   -0.297553
      7          1           0        0.031320   -0.000588    1.481468
      8          1           0       -1.995493   -1.565388   -0.297040
 ---------------------------------------------------------------------

 SCF Done:  E(RB3LYP) =  -229.388515678     A.U. after   19 cycles

 The electronic state is 1-A.
 Alpha  occ. eigenvalues --  -18.89983 -10.03903 -10.03785 -10.01301  -9.99988
 Alpha  occ. eigenvalues --   -0.81002  -0.71734  -0.45403  -0.42316  -0.36791
 Alpha  occ. eigenvalues --   -0.31014  -0.24052  -0.20566  -0.18088  -0.12896
 Alpha  occ. eigenvalues --   -0.12193  -0.11162   0.04811
 Alpha virt. eigenvalues --    0.09963   0.10795   0.12475   0.12669   0.16801
 Alpha virt. eigenvalues --    0.18819   0.18942   0.19605   0.20467   0.21096
 Alpha virt. eigenvalues --    0.21843   0.22316   0.23764   0.23833   0.24840

 Mulliken charges:
               1
     1  C   -0.405668
     2  C   -0.695949
     3  O   -0.557905
     4  C    1.161749
     5  C   -0.400298
     6  H    0.075759
     7  H   -0.254440
     8  H    0.076753
 Sum of Mulliken charges =  -1.00000

 Dipole moment (field-independent basis, Debye):
    X=             -5.7105    Y=              0.0041    Z=              1.4227  Tot=              5.8851
 Quadrupole moment (field-independent basis, Debye-Ang):
   XX=            -47.9887   YY=            -33.2801   ZZ=            -44.5330
   XY=              0.0033   XZ=              1.7552   YZ=             -0.0108

  Exact polarizability: 119.772  -0.038 133.534   4.016   0.010 207.799
 Approx polarizability: 154.099  -0.023 151.452  -5.802   0.057 221.795

                      1                      2                      3
                      A                      A                      A
 Frequencies --    111.4137               293.9654               323.8895
 Red. masses --      6.1114                 4.5713                 3.6137
 Frc consts  --      0.0447                 0.2327                 0.2234
 IR Inten    --     11.8746                41.9820                46.8978

                      4                      5                      6
                      A                      A                      A
 Frequencies --    482.6570               573.8740               692.5357
 Red. masses --      5.6925                 1.3615                 3.2139
 Frc consts  --      0.7813                 0.2642                 0.9082
 IR Inten    --      2.5699                 8.6178                 3.4219

                      7                      8                      9
                      A                      A                      A
 Frequencies --    829.2591               859.2194               912.2085
 Red. masses --      1.4050                 4.5554                 1.2971
 Frc consts  --      0.5693                 1.9815                 0.6359
 IR Inten    --     14.5184                25.2633                24.7352

                     10                     11                     12
                      A                      A                      A
 Frequencies --    998.8535              1040.8550              1127.4219
 Red. masses --      1.4762                 1.2616                 4.2783
 Frc consts  --      0.8678                 0.8053                 3.2040
 IR Inten    --      2.3295                20.5600                11.1305

                     13                     14                     15
                      A                      A                      A
 Frequencies --   1242.5382              1554.9748              1719.6847
 Red. masses --      1.2141                13.2851                 5.3964
 Frc consts  --      1.1044                18.9262                 9.4026
 IR Inten    --     28.7424               462.7985                19.3913

                     16                     17                     18
                      A                      A                      A
 Frequencies --   2848.1600              3221.8489              3268.2608
 Red. masses --      1.0843                 1.0820                 1.1434
 Frc consts  --      5.1824                 6.6171                 7.1958
 IR Inten    --    543.5485                 0.0969                 0.2764

 - Thermochemistry -
 -------------------
 Temperature   298.150 Kelvin.  Pressure   1.00000 Atm.
 Atom     1 has atomic number  6 and mass  12.00000

 Molecular mass:    67.01839 amu.
 Principal axes and moments of inertia in atomic units:
                           1         2         3
     Eigenvalues --    81.04012 549.39664 574.51149
           X            0.99996   0.00002   0.00848
           Y           -0.00002   1.00000  -0.00035
           Z           -0.00848   0.00035   0.99996
 This molecule is an asymmetric top.
 Rotational symmetry number  1.
 Rotational temperatures (Kelvin)      1.06878     0.15765     0.15076
 Rotational constants (GHZ):          22.26973     3.28495     3.14135
 Zero-point vibrational energy     132197.0 (Joules/Mol)
                                   31.59585 (Kcal/Mol)
 Warning -- explicit consideration of   5 degrees of freedom as
           vibrations may cause significant error
 Vibrational temperatures:    160.30   422.95   466.00   694.43   825.68
          (Kelvin)            996.40  1193.12  1236.22  1312.46  1437.13
                             1497.56  1622.11  1787.73  2237.26  2474.24
                             4097.86  4635.52  4702.29

 Zero-point correction=                           0.050351 (Hartree/Particle)
 Thermal correction to Energy=                    0.055539
 Thermal correction to Enthalpy=                  0.056483
 Thermal correction to Gibbs Free Energy=         0.022494
 Sum of electronic and zero-point Energies=           -229.338164
 Sum of electronic and thermal Energies=              -229.332976
 Sum of electronic and thermal Enthalpies=            -229.332032
 Sum of electronic and thermal Free Energies=         -229.366021

                     E (Thermal)             CV                S
                      KCal/Mol        Cal/Mol-Kelvin    Cal/Mol-Kelvin
 Total                   34.851             17.325             71.536
 Electronic               0.000              0.000              0.000
 Translational            0.889              2.981             38.525
 Rotational               0.889              2.981             24.751
 Vibrational             33.074             11.363              8.260
 Vibration     1          0.607              1.940              3.244
 Vibration     2          0.689              1.685              1.451
 Vibration     3          0.708              1.628              1.290
 Vibration     4          0.839              1.289              0.703
 Vibration     5          0.930              1.088              0.497

 Normal termination of Gaussian 09 at Thu Mar  7 09:25:24 2019.
