 Gaussian 09, Revision E.01,
 Gaussian 09:  EM64L-G09RevE.01 30-Nov-2015

 ------------------------------------------------------
 #p b3lyp/6-311++G(3df,2p) freq IOp(2/17=3) IOp(2/18=3)
 ------------------------------------------------------

 ---------
 b3lyp opt
 ---------
 Symbolic Z-matrix:
 Charge = -1 Multiplicity = 1

                         Standard orientation:
 ---------------------------------------------------------------------
 Center     Atomic      Atomic             Coordinates (Angstroms)
 Number     Number       Type             X           Y           Z
 ---------------------------------------------------------------------
      1          6           0       -0.769829   -1.040495   -0.000000
      2          6           0       -0.000000    1.116230    0.000000
      3          8           0       -1.120323    0.341238    0.000000
      4          6           0        1.107656    0.330005    0.000000
      5          6           0        0.617785   -1.020119   -0.000000
      6          1           0       -0.136366    2.187514    0.000000
      7          1           0        2.131639    0.678238    0.000000
      8          1           0        1.233639   -1.909375   -0.000000
 ---------------------------------------------------------------------

 SCF Done:  E(RB3LYP) =  -229.470083205     A.U. after   17 cycles

 The electronic state is 1-A'.
 Alpha  occ. eigenvalues --  -18.96891 -10.02062  -9.98143  -9.96576  -9.95027
 Alpha  occ. eigenvalues --   -0.87494  -0.58897  -0.51838  -0.38216  -0.35162
 Alpha  occ. eigenvalues --   -0.32191  -0.23101  -0.22085  -0.20081  -0.15746
 Alpha  occ. eigenvalues --   -0.08151  -0.01714  -0.00333
 Alpha virt. eigenvalues --    0.10930   0.12324   0.13489   0.18075   0.18962
 Alpha virt. eigenvalues --    0.19716   0.19988   0.22245   0.22770   0.23161
 Alpha virt. eigenvalues --    0.23537   0.23537   0.24454   0.25041   0.25442

 Mulliken charges:
               1
     1  C   -0.211125
     2  C   -0.187258
     3  O   -0.567159
     4  C    0.091099
     5  C   -0.406574
     6  H    0.120676
     7  H    0.139869
     8  H    0.020472
 Sum of Mulliken charges =  -1.00000

 Dipole moment (field-independent basis, Debye):
    X=              3.3160    Y=              3.6911    Z=              0.0000  Tot=              4.9619
 Quadrupole moment (field-independent basis, Debye-Ang):
   XX=            -40.6179   YY=            -40.8682   ZZ=            -36.6087
   XY=             -5.2735   XZ=              0.0000   YZ=             -0.0000

  Exact polarizability:  78.034  10.553  89.902   0.000   0.000  55.668
 Approx polarizability: 114.439   5.350 126.420   0.000   0.000  76.120

                      1                      2                      3
                     A"                     A"                     A"
 Frequencies --    599.6997               617.3587               655.2419
 Red. masses --      5.6041                 2.6285                 1.5880
 Frc consts  --      1.1875                 0.5902                 0.4017
 IR Inten    --      1.4749                12.5884                55.5459

                      4                      5                      6
                     A"                     A"                     A'
 Frequencies --    750.7380               801.6376               811.0488
 Red. masses --      1.1773                 1.2659                 6.7869
 Frc consts  --      0.3909                 0.4793                 2.6304
 IR Inten    --     39.0831                 0.0314                13.5249

                      7                      8                      9
                     A'                     A'                     A'
 Frequencies --    855.2491               898.8268               985.5246
 Red. masses --      5.6976                 6.3488                 1.7663
 Frc consts  --      2.4554                 3.0220                 1.0107
 IR Inten    --      0.5969                 3.8148                34.5393

                     10                     11                     12
                     A'                     A'                     A'
 Frequencies --   1076.8575              1110.8790              1166.4734
 Red. masses --      3.9936                 1.3211                 1.8157
 Frc consts  --      2.7286                 0.9606                 1.4556
 IR Inten    --      1.9799                 3.3520                 0.7314

                     13                     14                     15
                     A'                     A'                     A'
 Frequencies --   1354.9807              1370.6556              1541.3107
 Red. masses --      2.1356                 3.9978                 4.3964
 Frc consts  --      2.3102                 4.4251                 6.1536
 IR Inten    --      4.1377                32.9275                26.2582

                     16                     17                     18
                     A'                     A'                     A'
 Frequencies --   3157.1856              3172.5084              3200.3792
 Red. masses --      1.0862                 1.0914                 1.1037
 Frc consts  --      6.3790                 6.4718                 6.6603
 IR Inten    --     27.5752                65.8559                55.7959

 - Thermochemistry -
 -------------------
 Temperature   298.150 Kelvin.  Pressure   1.00000 Atm.
 Atom     1 has atomic number  6 and mass  12.00000

 Molecular mass:    67.01839 amu.
 Principal axes and moments of inertia in atomic units:
                           1         2         3
     Eigenvalues --   184.14453 190.87658 375.02111
           X           -0.69234   0.72157   0.00000
           Y            0.72157   0.69234   0.00000
           Z           -0.00000  -0.00000   1.00000
 This molecule is an asymmetric top.
 Rotational symmetry number  1.
 Rotational temperatures (Kelvin)      0.47036     0.45377     0.23096
 Rotational constants (GHZ):           9.80068     9.45502     4.81237
 Zero-point vibrational energy     144308.8 (Joules/Mol)
                                   34.49064 (Kcal/Mol)
 Warning -- explicit consideration of   2 degrees of freedom as
           vibrations may cause significant error
 Vibrational temperatures:    862.83   888.24   942.75  1080.14  1153.38
          (Kelvin)           1166.92  1230.51  1293.21  1417.95  1549.36
                             1598.31  1678.29  1949.51  1972.07  2217.60
                             4542.48  4564.53  4604.63

 Zero-point correction=                           0.054964 (Hartree/Particle)
 Thermal correction to Energy=                    0.058736
 Thermal correction to Enthalpy=                  0.059680
 Thermal correction to Gibbs Free Energy=         0.028729
 Sum of electronic and zero-point Energies=           -229.415119
 Sum of electronic and thermal Energies=              -229.411348
 Sum of electronic and thermal Enthalpies=            -229.410403
 Sum of electronic and thermal Free Energies=         -229.441354

                     E (Thermal)             CV                S
                      KCal/Mol        Cal/Mol-Kelvin    Cal/Mol-Kelvin
 Total                   36.857             13.486             65.142
 Electronic               0.000              0.000              0.000
 Translational            0.889              2.981             38.525
 Rotational               0.889              2.981             24.092
 Vibrational             35.080              7.524              2.524
 Vibration     1          0.958              1.032              0.450
 Vibration     2          0.977              0.995              0.421

 Optimization completed.
    -- Stationary point found.
 Normal termination of Gaussian 09 at Thu Mar  7 08:55:42 2019.
