 Gaussian 09, Revision E.01,
 Gaussian 09:  EM64L-G09RevE.01 30-Nov-2015

 ------------------------------------------------------
 #p b3lyp/6-311++G(3df,2p) freq IOp(2/17=3) IOp(2/18=3)
 ------------------------------------------------------

 ---------
 b3lyp opt
 ---------
 Symbolic Z-matrix:
 Charge = -1 Multiplicity = 3

                         Standard orientation:
 ---------------------------------------------------------------------
 Center     Atomic      Atomic             Coordinates (Angstroms)
 Number     Number       Type             X           Y           Z
 ---------------------------------------------------------------------
      1          6           0       -0.000000    1.085744   -0.000000
      2          6           0       -0.591314   -1.036760    0.000000
      3          8           0       -1.075023    0.249365   -0.000000
      4          6           0        0.751601   -0.961455    0.000000
      5          6           0        1.169527    0.393629    0.000000
      6          1           0       -0.223462    2.139319   -0.000000
      7          1           0       -1.320666   -1.826532    0.000000
      8          1           0        2.165422    0.805349    0.000000
 ---------------------------------------------------------------------

 SCF Done:  E(UB3LYP) =  -229.379603879     A.U. after   26 cycles

 The electronic state is 3-A'.
 Alpha  occ. eigenvalues --  -19.08044 -10.10872 -10.10567 -10.08832 -10.06118
 Alpha  occ. eigenvalues --   -1.00027  -0.69673  -0.63530  -0.48103  -0.45753
 Alpha  occ. eigenvalues --   -0.41121  -0.34153  -0.32972  -0.30786  -0.26743
 Alpha  occ. eigenvalues --   -0.17846  -0.16843  -0.12378   0.05809
 Alpha virt. eigenvalues --    0.07780   0.09198   0.10782   0.13682   0.14444
 Alpha virt. eigenvalues --    0.15403   0.16482   0.17759   0.18836   0.19085
 Alpha virt. eigenvalues --    0.20022   0.20422   0.20874   0.21522   0.21971

  Beta  occ. eigenvalues --  -19.07897 -10.10739 -10.10541 -10.07229 -10.06037
  Beta  occ. eigenvalues --   -0.99577  -0.68160  -0.62933  -0.47303  -0.45167
  Beta  occ. eigenvalues --   -0.39339  -0.34033  -0.32568  -0.30052  -0.26035
  Beta  occ. eigenvalues --   -0.17002  -0.12121
  Beta virt. eigenvalues --   -0.00207   0.09170   0.10025   0.10947   0.10966
  Beta virt. eigenvalues --    0.14941   0.15436   0.15648   0.17388   0.18097
  Beta virt. eigenvalues --    0.18780   0.20055   0.20140   0.21046   0.21367

 Mulliken charges and spin densities:
               1          2
     1  C    2.435175  -2.330106
     2  C   -0.211691   0.162379
     3  O   -0.595204   0.071253
     4  C    2.563544  -1.462292
     5  C   -1.104537   0.863813
     6  H   -1.229365   1.435063
     7  H   -1.500574   1.710782
     8  H   -1.357348   1.549109
 Sum of Mulliken charges =  -1.00000   2.00000

 Dipole moment (field-independent basis, Debye):
    X=             -0.9819    Y=             -1.6699    Z=              0.0000  Tot=              1.9372
 Quadrupole moment (field-independent basis, Debye-Ang):
   XX=            -64.9390   YY=            -76.9805   ZZ=            -49.0141
   XY=            -11.6580   XZ=              0.0000   YZ=              0.0000

  Exact polarizability:2154.578 573.2402616.041  -0.089  -0.168 241.365
 Approx polarizability:2017.5171388.1453403.810   0.000  -0.000 205.768

                      1                      2                      3
                     A"                     A"                     A"
 Frequencies --    535.0094               612.2279               715.7150
 Red. masses --      2.9793                 3.5829                 1.3654
 Frc consts  --      0.5024                 0.7912                 0.4121
 IR Inten    --     72.5789                96.9756               144.8543

                      4                      5                      6
                     A"                     A"                     A"
 Frequencies --    821.2059               853.5408               864.2132
 Red. masses --      1.3376                 6.2679                 6.4992
 Frc consts  --      0.5315                 2.6904                 2.8599
 IR Inten    --   1750.9868               968.9602               112.8270

                      7                      8                      9
                     A"                     A'                     A'
 Frequencies --    877.6999              1005.4749              1038.6519
 Red. masses --      1.3595                 2.1622                 2.0724
 Frc consts  --      0.6171                 1.2879                 1.3173
 IR Inten    --    110.1941               246.9200                10.9707

                     10                     11                     12
                     A'                     A'                     A'
 Frequencies --   1132.3382              1168.9329              1238.1807
 Red. masses --      6.5797                 1.9763                 1.2299
 Frc consts  --      4.9706                 1.5910                 1.1110
 IR Inten    --    161.2050               120.5521                16.3583

                     13                     14                     15
                     A'                     A'                     A'
 Frequencies --   1372.4359              1484.7387              1539.1659
 Red. masses --      2.6520                 3.6071                 5.6259
 Frc consts  --      2.9431                 4.6850                 7.8526
 IR Inten    --    229.1749                 3.5085                 7.8309

                     16                     17                     18
                     A'                     A'                     A'
 Frequencies --   3209.2051              3226.9956              3243.8255
 Red. masses --      1.0916                 1.1048                 1.1004
 Frc consts  --      6.6239                 6.7787                 6.8220
 IR Inten    --    206.2115                29.2915               110.8098

 - Thermochemistry -
 -------------------
 Temperature   298.150 Kelvin.  Pressure   1.00000 Atm.
 Atom     1 has atomic number  6 and mass  12.00000

 Molecular mass:    67.01839 amu.
 Principal axes and moments of inertia in atomic units:
                           1         2         3
     Eigenvalues --   168.27435 195.98393 364.25828
           X            0.82488  -0.56530   0.00000
           Y            0.56530   0.82488   0.00000
           Z            0.00000  -0.00000   1.00000
 This molecule is an asymmetric top.
 Rotational symmetry number  1.
 Rotational temperatures (Kelvin)      0.51472     0.44194     0.23778
 Rotational constants (GHZ):          10.72499     9.20862     4.95456
 Zero-point vibrational energy     149171.7 (Joules/Mol)
                                   35.65289 (Kcal/Mol)
 Warning -- explicit consideration of   2 degrees of freedom as
           vibrations may cause significant error
 Vibrational temperatures:    769.76   880.86  1029.75  1181.53  1228.05
          (Kelvin)           1243.41  1262.81  1446.65  1494.39  1629.18
                             1681.83  1781.46  1974.63  2136.21  2214.51
                             4617.32  4642.92  4667.14

 Zero-point correction=                           0.056816 (Hartree/Particle)
 Thermal correction to Energy=                    0.060506
 Thermal correction to Enthalpy=                  0.061451
 Thermal correction to Gibbs Free Energy=         0.029605
 Sum of electronic and zero-point Energies=           -229.322787
 Sum of electronic and thermal Energies=              -229.319097
 Sum of electronic and thermal Enthalpies=            -229.318153
 Sum of electronic and thermal Free Energies=         -229.349999

                     E (Thermal)             CV                S
                      KCal/Mol        Cal/Mol-Kelvin    Cal/Mol-Kelvin
 Total                   37.968             12.834             67.025
 Electronic               0.000              0.000              2.183
 Translational            0.889              2.981             38.525
 Rotational               0.889              2.981             24.000
 Vibrational             36.191              6.872              2.317
 Vibration     1          0.890              1.173              0.576
 Vibration     2          0.971              1.006              0.429

 Optimization completed.
    -- Stationary point found.
 Normal termination of Gaussian 09 at Fri Mar  8 06:44:22 2019.
