 Gaussian 09, Revision E.01,
 Gaussian 09:  EM64L-G09RevE.01 30-Nov-2015

 ------------------------------------------------------
 #p b3lyp/6-311++G(3df,2p) freq IOp(2/17=3) IOp(2/18=3)
 ------------------------------------------------------

 ---------
 b3lyp opt
 ---------
 Symbolic Z-matrix:
 Charge = -1 Multiplicity = 3

                         Standard orientation:
 ---------------------------------------------------------------------
 Center     Atomic      Atomic             Coordinates (Angstroms)
 Number     Number       Type             X           Y           Z
 ---------------------------------------------------------------------
      1          6           0        0.000000    1.107134   -0.000000
      2          6           0       -0.716406   -0.929187    0.000000
      3          8           0       -1.147388    0.326796    0.000000
      4          6           0        0.627488   -1.060125   -0.000000
      5          6           0        1.088919    0.306456   -0.000000
      6          1           0       -0.157265    2.170798   -0.000000
      7          1           0        1.217649   -1.960700   -0.000000
      8          1           0        2.118716    0.629866   -0.000000
 ---------------------------------------------------------------------

 SCF Done:  E(UB3LYP) =  -229.379662460     A.U. after   26 cycles

 The electronic state is 3-A'.
 Alpha  occ. eigenvalues --  -19.08878 -10.13747 -10.10459 -10.06223 -10.05958
 Alpha  occ. eigenvalues --   -1.01326  -0.69639  -0.63099  -0.49280  -0.44694
 Alpha  occ. eigenvalues --   -0.41438  -0.35038  -0.31615  -0.29444  -0.28510
 Alpha  occ. eigenvalues --   -0.17852  -0.17433  -0.12606   0.05888
 Alpha virt. eigenvalues --    0.08218   0.09783   0.10934   0.13358   0.15213
 Alpha virt. eigenvalues --    0.15470   0.16267   0.17744   0.19049   0.19173
 Alpha virt. eigenvalues --    0.19989   0.20271   0.21288   0.21835   0.22228

  Beta  occ. eigenvalues --  -19.08718 -10.12067 -10.10371 -10.06101 -10.05827
  Beta  occ. eigenvalues --   -1.00688  -0.69000  -0.61637  -0.48558  -0.43938
  Beta  occ. eigenvalues --   -0.39825  -0.34565  -0.30873  -0.28831  -0.28006
  Beta  occ. eigenvalues --   -0.17454  -0.11660
  Beta virt. eigenvalues --   -0.01102   0.09418   0.10420   0.11561   0.11846
  Beta virt. eigenvalues --    0.14569   0.15823   0.15828   0.16675   0.18079
  Beta virt. eigenvalues --    0.18973   0.19777   0.20325   0.20979   0.21840

 Mulliken charges and spin densities:
               1          2
     1  C   -0.158404   0.134556
     2  C    2.006235  -0.802952
     3  O   -0.571988  -0.014052
     4  C   -1.421730   1.169505
     5  C    3.260084  -3.199439
     6  H   -1.752001   1.965884
     7  H   -1.447344   1.642691
     8  H   -0.914851   1.103806
 Sum of Mulliken charges =  -1.00000   2.00000

 Dipole moment (field-independent basis, Debye):
    X=             -5.4329    Y=             -2.1350    Z=              0.0000  Tot=              5.8373
 Quadrupole moment (field-independent basis, Debye-Ang):
   XX=            -64.5136   YY=            -76.9899   ZZ=            -49.2850
   XY=              3.0943   XZ=              0.0000   YZ=              0.0000

  Exact polarizability:1262.269-416.8572497.540  -0.446   0.030 208.949
 Approx polarizability:1011.983-712.1763075.196  -0.000   0.000 193.810

                      1                      2                      3
                     A"                     A"                     A"
 Frequencies --    451.9843               604.4458               760.8379
 Red. masses --      4.7066                 3.1043                 1.3541
 Frc consts  --      0.5665                 0.6682                 0.4618
 IR Inten    --     89.1677                68.7042               965.8625

                      4                      5                      6
                     A"                     A"                     A"
 Frequencies --    812.2684               848.2371               865.2036
 Red. masses --      1.2228                 6.9684                 6.9950
 Frc consts  --      0.4753                 2.9540                 3.0851
 IR Inten    --    829.9727               499.9906               239.3296

                      7                      8                      9
                     A"                     A'                     A'
 Frequencies --    903.4592               988.1127              1004.0969
 Red. masses --      1.3665                 1.5461                 3.7200
 Frc consts  --      0.6572                 0.8894                 2.2097
 IR Inten    --    293.2423               344.3515               164.6476

                     10                     11                     12
                     A'                     A'                     A'
 Frequencies --   1086.5067              1162.8416              1233.4959
 Red. masses --      1.8903                 2.5372                 1.5175
 Frc consts  --      1.3147                 2.0214                 1.3604
 IR Inten    --    155.6157                73.3106               198.0219

                     13                     14                     15
                     A'                     A'                     A'
 Frequencies --   1351.1859              1449.4596              1574.7377
 Red. masses --      2.7019                 5.0651                 4.8602
 Frc consts  --      2.9064                 6.2698                 7.1010
 IR Inten    --    370.9911               115.6170                42.4891

                     16                     17                     18
                     A'                     A'                     A'
 Frequencies --   3191.0792              3224.0014              3245.6555
 Red. masses --      1.0934                 1.0972                 1.1021
 Frc consts  --      6.5602                 6.7194                 6.8402
 IR Inten    --     50.0207               135.8161                72.0825

 - Thermochemistry -
 -------------------
 Temperature   298.150 Kelvin.  Pressure   1.00000 Atm.
 Atom     1 has atomic number  6 and mass  12.00000

 Molecular mass:    67.01839 amu.
 Principal axes and moments of inertia in atomic units:
                           1         2         3
     Eigenvalues --   170.35321 195.57236 365.92557
           X            0.78588   0.61838   0.00000
           Y           -0.61838   0.78588   0.00000
           Z           -0.00000  -0.00000   1.00000
 This molecule is an asymmetric top.
 Rotational symmetry number  1.
 Rotational temperatures (Kelvin)      0.50844     0.44287     0.23670
 Rotational constants (GHZ):          10.59411     9.22800     4.93199
 Zero-point vibrational energy     148083.4 (Joules/Mol)
                                   35.39278 (Kcal/Mol)
 Warning -- explicit consideration of   2 degrees of freedom as
           vibrations may cause significant error
 Vibrational temperatures:    650.30   869.66  1094.67  1168.67  1220.42
          (Kelvin)           1244.83  1299.87  1421.67  1444.67  1563.24
                             1673.07  1774.72  1944.05  2085.45  2265.69
                             4591.25  4638.61  4669.77

 Zero-point correction=                           0.056402 (Hartree/Particle)
 Thermal correction to Energy=                    0.060154
 Thermal correction to Enthalpy=                  0.061098
 Thermal correction to Gibbs Free Energy=         0.029146
 Sum of electronic and zero-point Energies=           -229.323260
 Sum of electronic and thermal Energies=              -229.319508
 Sum of electronic and thermal Enthalpies=            -229.318564
 Sum of electronic and thermal Free Energies=         -229.350516

                     E (Thermal)             CV                S
                      KCal/Mol        Cal/Mol-Kelvin    Cal/Mol-Kelvin
 Total                   37.747             13.049             67.249
 Electronic               0.000              0.000              2.183
 Translational            0.889              2.981             38.525
 Rotational               0.889              2.981             24.015
 Vibrational             35.970              7.087              2.526
 Vibration     1          0.811              1.357              0.790
 Vibration     2          0.963              1.022              0.442

 Optimization completed.
    -- Stationary point found.
 Normal termination of Gaussian 09 at Fri Mar  8 06:13:55 2019.
