 Gaussian 09, Revision E.01,
 Gaussian 09:  EM64L-G09RevE.01 30-Nov-2015

 ------------------------------------------------------
 #p b3lyp/6-311++G(3df,2p) freq IOp(2/17=3) IOp(2/18=3)
 ------------------------------------------------------

 ---------
 b3lyp opt
 ---------
 Symbolic Z-matrix:
 Charge = -1 Multiplicity = 1

                         Standard orientation:
 ---------------------------------------------------------------------
 Center     Atomic      Atomic             Coordinates (Angstroms)
 Number     Number       Type             X           Y           Z
 ---------------------------------------------------------------------
      1          6           0       -0.980232    0.533492    0.000370
      2          6           0        0.545747   -1.173401    0.000254
      3          8           0       -0.835319   -0.820927   -0.000111
      4          6           0        1.191292    0.055025   -0.000554
      5          6           0        0.239703    1.130621   -0.000059
      6          1           0       -1.986206    0.926301   -0.000860
      7          1           0        2.266821    0.170120    0.001208
      8          1           0        0.422876    2.196570    0.000476
 ---------------------------------------------------------------------

 SCF Done:  E(RB3LYP) =  -229.470094014     A.U. after   16 cycles

 The electronic state is 1-A.
 Alpha  occ. eigenvalues --  -18.96893 -10.02060  -9.98141  -9.96572  -9.95024
 Alpha  occ. eigenvalues --   -0.87502  -0.58902  -0.51839  -0.38218  -0.35160
 Alpha  occ. eigenvalues --   -0.32194  -0.23106  -0.22087  -0.20081  -0.15750
 Alpha  occ. eigenvalues --   -0.08154  -0.01713  -0.00329
 Alpha virt. eigenvalues --    0.10929   0.12326   0.13490   0.18074   0.18961
 Alpha virt. eigenvalues --    0.19715   0.19991   0.22250   0.22773   0.23162
 Alpha virt. eigenvalues --    0.23535   0.23541   0.24453   0.25042   0.25442

 Mulliken charges:
               1
     1  C   -0.187557
     2  C   -0.214918
     3  O   -0.566868
     4  C   -0.402892
     5  C    0.090824
     6  H    0.120626
     7  H    0.020874
     8  H    0.139911
 Sum of Mulliken charges =  -1.00000

 Dipole moment (field-independent basis, Debye):
    X=             -1.6567    Y=              4.6771    Z=              0.0003  Tot=              4.9619
 Quadrupole moment (field-independent basis, Debye-Ang):
   XX=            -36.3834   YY=            -45.1038   ZZ=            -36.6070
   XY=              2.9687   XZ=              0.0064   YZ=              0.0024

  Exact polarizability:  78.261 -10.751  89.674   0.002  -0.018  55.625
 Approx polarizability: 119.179  -7.946 121.680  -0.028  -0.015  76.108

                      1                      2                      3
                      A                      A                      A
 Frequencies --    599.8258               616.4670               653.1467
 Red. masses --      5.3587                 2.5015                 1.6664
 Frc consts  --      1.1359                 0.5601                 0.4188
 IR Inten    --      1.7756                14.6231                52.8212

                      4                      5                      6
                      A                      A                      A
 Frequencies --    755.0403               802.9139               811.9870
 Red. masses --      1.1776                 1.2622                 6.7503
 Frc consts  --      0.3955                 0.4794                 2.6222
 IR Inten    --     39.9084                 0.0055                13.3941

                      7                      8                      9
                      A                      A                      A
 Frequencies --    855.7859               899.2640               985.9667
 Red. masses --      5.7394                 6.3647                 1.7631
 Frc consts  --      2.4766                 3.0325                 1.0098
 IR Inten    --      0.5660                 3.7292                34.6686

                     10                     11                     12
                      A                      A                      A
 Frequencies --   1077.0589              1111.1944              1167.2325
 Red. masses --      3.9925                 1.3209                 1.8139
 Frc consts  --      2.7288                 0.9609                 1.4561
 IR Inten    --      1.9595                 3.3458                 0.7319

                     13                     14                     15
                      A                      A                      A
 Frequencies --   1355.6730              1371.2107              1541.5730
 Red. masses --      2.1390                 3.9969                 4.3984
 Frc consts  --      2.3162                 4.4277                 6.1585
 IR Inten    --      4.1335                33.0474                26.3102

                     16                     17                     18
                      A                      A                      A
 Frequencies --   3157.8679              3173.4222              3200.3489
 Red. masses --      1.0861                 1.0915                 1.1037
 Frc consts  --      6.3811                 6.4764                 6.6604
 IR Inten    --     26.3065                66.7720                58.9704

 - Thermochemistry -
 -------------------
 Temperature   298.150 Kelvin.  Pressure   1.00000 Atm.
 Atom     1 has atomic number  6 and mass  12.00000

 Molecular mass:    67.01839 amu.
 Principal axes and moments of inertia in atomic units:
                           1         2         3
     Eigenvalues --   184.11467 190.85769 374.97229
           X            0.96401  -0.26586   0.00009
           Y            0.26586   0.96401   0.00001
           Z           -0.00009   0.00001   1.00000
 This molecule is an asymmetric top.
 Rotational symmetry number  1.
 Rotational temperatures (Kelvin)      0.47043     0.45381     0.23099
 Rotational constants (GHZ):           9.80227     9.45595     4.81300
 Zero-point vibrational energy     144365.2 (Joules/Mol)
                                   34.50411 (Kcal/Mol)
 Warning -- explicit consideration of   2 degrees of freedom as
           vibrations may cause significant error
 Vibrational temperatures:    863.01   886.96   939.73  1086.33  1155.21
          (Kelvin)           1168.27  1231.28  1293.84  1418.58  1549.65
                             1598.76  1679.39  1950.51  1972.86  2217.98
                             4543.46  4565.84  4604.58

 Zero-point correction=                           0.054986 (Hartree/Particle)
 Thermal correction to Energy=                    0.058756
 Thermal correction to Enthalpy=                  0.059700
 Thermal correction to Gibbs Free Energy=         0.028751
 Sum of electronic and zero-point Energies=           -229.415108
 Sum of electronic and thermal Energies=              -229.411338
 Sum of electronic and thermal Enthalpies=            -229.410394
 Sum of electronic and thermal Free Energies=         -229.441343

                     E (Thermal)             CV                S
                      KCal/Mol        Cal/Mol-Kelvin    Cal/Mol-Kelvin
 Total                   36.870             13.477             65.138
 Electronic               0.000              0.000              0.000
 Translational            0.889              2.981             38.525
 Rotational               0.889              2.981             24.092
 Vibrational             35.092              7.515              2.521
 Vibration     1          0.958              1.032              0.450
 Vibration     2          0.976              0.997              0.422

 Normal termination of Gaussian 09 at Thu Mar  7 09:05:44 2019.
