 Gaussian 09, Revision E.01,
 Gaussian 09:  EM64L-G09RevE.01 30-Nov-2015

 ------------------------------------------------------
 #p b3lyp/6-311++G(3df,2p) freq IOp(2/17=3) IOp(2/18=3)
 ------------------------------------------------------

 ---------
 b3lyp opt
 ---------
 Symbolic Z-matrix:
 Charge = -1 Multiplicity = 3

                         Standard orientation:
 ---------------------------------------------------------------------
 Center     Atomic      Atomic             Coordinates (Angstroms)
 Number     Number       Type             X           Y           Z
 ---------------------------------------------------------------------
      1          6           0        0.000000    1.234179   -0.000000
      2          1           0       -1.309536   -1.834518    0.000000
      3          6           0        1.028774    0.346433    0.000000
      4          6           0       -0.793749   -0.891220    0.000000
      5          6           0       -1.150930    0.405581   -0.000000
      6          1           0        0.070897    2.309547   -0.000000
      7          1           0        2.098672    0.470331    0.000000
      8          8           0        0.579424   -0.939400    0.000000
 ---------------------------------------------------------------------

 SCF Done:  E(UB3LYP) =  -229.379594623     A.U. after   28 cycles

 The electronic state is 3-A'.
 Alpha  occ. eigenvalues --  -19.08046 -10.10873 -10.10565 -10.08830 -10.06121
 Alpha  occ. eigenvalues --   -1.00029  -0.69675  -0.63527  -0.48103  -0.45748
 Alpha  occ. eigenvalues --   -0.41127  -0.34153  -0.32963  -0.30783  -0.26749
 Alpha  occ. eigenvalues --   -0.17846  -0.16842  -0.12378   0.05810
 Alpha virt. eigenvalues --    0.07781   0.09196   0.10781   0.13683   0.14446
 Alpha virt. eigenvalues --    0.15407   0.16481   0.17762   0.18831   0.19083
 Alpha virt. eigenvalues --    0.20023   0.20423   0.20875   0.21521   0.21969

  Beta  occ. eigenvalues --  -19.07899 -10.10740 -10.10540 -10.07227 -10.06039
  Beta  occ. eigenvalues --   -0.99579  -0.68163  -0.62930  -0.47304  -0.45161
  Beta  occ. eigenvalues --   -0.39346  -0.34034  -0.32559  -0.30049  -0.26041
  Beta  occ. eigenvalues --   -0.17003  -0.12120
  Beta virt. eigenvalues --   -0.00206   0.09171   0.10026   0.10947   0.10965
  Beta virt. eigenvalues --    0.14943   0.15439   0.15652   0.17387   0.18101
  Beta virt. eigenvalues --    0.18775   0.20055   0.20142   0.21049   0.21367

 Mulliken charges and spin densities:
               1          2
     1  C   -1.091103   0.850865
     2  H   -1.500543   1.710713
     3  C    2.427018  -2.321812
     4  C   -0.211863   0.162461
     5  C    2.556224  -1.455572
     6  H   -1.353916   1.545740
     7  H   -1.230594   1.436299
     8  O   -0.595222   0.071305
 Sum of Mulliken charges =  -1.00000   2.00000

 Dipole moment (field-independent basis, Debye):
    X=             -1.2669    Y=             -1.4575    Z=             -0.0000  Tot=              1.9311
 Quadrupole moment (field-independent basis, Debye-Ang):
   XX=            -68.7038   YY=            -73.2119   ZZ=            -49.0078
   XY=            -12.9111   XZ=             -0.0000   YZ=             -0.0000

  Exact polarizability:2201.412 575.2142557.469  -0.122  -0.134 240.365
 Approx polarizability:2422.6801523.0962998.720  -0.000  -0.000 205.753

                      1                      2                      3
                     A"                     A"                     A"
 Frequencies --    537.1416               612.1636               719.8981
 Red. masses --      2.9463                 3.5402                 1.3816
 Frc consts  --      0.5009                 0.7817                 0.4219
 IR Inten    --     70.6089               100.6305               133.9849

                      4                      5                      6
                     A"                     A"                     A"
 Frequencies --    821.0991               852.7072               863.7204
 Red. masses --      1.3309                 6.2918                 6.4390
 Frc consts  --      0.5287                 2.6954                 2.8302
 IR Inten    --   1793.0878              1017.1842               118.1266

                      7                      8                      9
                     A"                     A'                     A'
 Frequencies --    879.3104              1003.9701              1039.0308
 Red. masses --      1.3639                 2.1409                 2.0934
 Frc consts  --      0.6213                 1.2714                 1.3316
 IR Inten    --     97.5618               257.0579                 6.3733

                     10                     11                     12
                     A'                     A'                     A'
 Frequencies --   1131.7726              1168.7929              1238.5203
 Red. masses --      6.7820                 1.9711                 1.2299
 Frc consts  --      5.1183                 1.5865                 1.1116
 IR Inten    --    149.5251               151.4169                15.6314

                     13                     14                     15
                     A'                     A'                     A'
 Frequencies --   1372.1081              1485.1326              1538.8298
 Red. masses --      2.6407                 3.5890                 5.6405
 Frc consts  --      2.9292                 4.6640                 7.8695
 IR Inten    --    234.7040                 2.7280                 3.4969

                     16                     17                     18
                     A'                     A'                     A'
 Frequencies --   3208.3730              3227.0524              3244.4245
 Red. masses --      1.0917                 1.1048                 1.1002
 Frc consts  --      6.6209                 6.7788                 6.8235
 IR Inten    --    158.6630                30.5761               140.4194

 - Thermochemistry -
 -------------------
 Temperature   298.150 Kelvin.  Pressure   1.00000 Atm.
 Atom     1 has atomic number  6 and mass  12.00000

 Molecular mass:    67.01839 amu.
 Principal axes and moments of inertia in atomic units:
                           1         2         3
     Eigenvalues --   168.25886 196.00522 364.26408
           X            0.27102   0.96257   0.00000
           Y            0.96257  -0.27102   0.00000
           Z           -0.00000   0.00000   1.00000
 This molecule is an asymmetric top.
 Rotational symmetry number  1.
 Rotational temperatures (Kelvin)      0.51477     0.44190     0.23778
 Rotational constants (GHZ):          10.72598     9.20762     4.95449
 Zero-point vibrational energy     149198.5 (Joules/Mol)
                                   35.65931 (Kcal/Mol)
 Warning -- explicit consideration of   2 degrees of freedom as
           vibrations may cause significant error
 Vibrational temperatures:    772.83   880.77  1035.77  1181.38  1226.85
          (Kelvin)           1242.70  1265.13  1444.49  1494.93  1628.37
                             1681.63  1781.95  1974.16  2136.77  2214.03
                             4616.13  4643.00  4668.00

 Zero-point correction=                           0.056827 (Hartree/Particle)
 Thermal correction to Energy=                    0.060514
 Thermal correction to Enthalpy=                  0.061458
 Thermal correction to Gibbs Free Energy=         0.029617
 Sum of electronic and zero-point Energies=           -229.322768
 Sum of electronic and thermal Energies=              -229.319081
 Sum of electronic and thermal Enthalpies=            -229.318137
 Sum of electronic and thermal Free Energies=         -229.349978

                     E (Thermal)             CV                S
                      KCal/Mol        Cal/Mol-Kelvin    Cal/Mol-Kelvin
 Total                   37.973             12.823             67.016
 Electronic               0.000              0.000              2.183
 Translational            0.889              2.981             38.525
 Rotational               0.889              2.981             24.000
 Vibrational             36.196              6.862              2.308
 Vibration     1          0.892              1.168              0.571
 Vibration     2          0.971              1.006              0.429

 Optimization completed.
    -- Stationary point found.
 Normal termination of Gaussian 09 at Thu Mar  7 09:39:39 2019.
