 Gaussian 09, Revision E.01,
 Gaussian 09:  EM64L-G09RevE.01 30-Nov-2015

 ------------------------------------------------------
 #p b3lyp/6-311++G(3df,2p) freq IOp(2/17=3) IOp(2/18=3)
 ------------------------------------------------------

 ---------
 b3lyp opt
 ---------
 Symbolic Z-matrix:
 Charge = -1 Multiplicity = 1

                         Standard orientation:
 ---------------------------------------------------------------------
 Center     Atomic      Atomic             Coordinates (Angstroms)
 Number     Number       Type             X           Y           Z
 ---------------------------------------------------------------------
      1          6           0       -0.000000    1.107409    0.000000
      2          6           0       -0.560825   -1.005717    0.000000
      3          8           0       -1.100287    0.311148    0.000000
      4          6           0        0.795004   -1.068724   -0.000000
      5          6           0        1.133804    0.353132   -0.000000
      6          1           0       -0.193296    2.170667    0.000000
      7          1           0       -1.346064   -1.748538    0.000000
      8          1           0        2.133752    0.772089   -0.000000
 ---------------------------------------------------------------------

 SCF Done:  E(RB3LYP) =  -229.462586019     A.U. after   16 cycles

 The electronic state is 1-A'.
 Alpha  occ. eigenvalues --  -18.98364 -10.02583  -9.99762  -9.97047  -9.91778
 Alpha  occ. eigenvalues --   -0.89317  -0.57851  -0.52980  -0.37636  -0.36469
 Alpha  occ. eigenvalues --   -0.30933  -0.24442  -0.23908  -0.18952  -0.16226
 Alpha  occ. eigenvalues --   -0.07046  -0.02617   0.00665
 Alpha virt. eigenvalues --    0.11167   0.12852   0.13334   0.17531   0.18308
 Alpha virt. eigenvalues --    0.19013   0.20640   0.22279   0.22709   0.23358
 Alpha virt. eigenvalues --    0.23833   0.24003   0.25282   0.25382   0.25608

 Mulliken charges:
               1
     1  C    0.147205
     2  C   -0.405365
     3  O   -0.623702
     4  C    0.037342
     5  C   -0.456264
     6  H    0.131701
     7  H    0.107256
     8  H    0.061829
 Sum of Mulliken charges =  -1.00000

 Dipole moment (field-independent basis, Debye):
    X=             -2.4577    Y=              4.1410    Z=              0.0000  Tot=              4.8154
 Quadrupole moment (field-independent basis, Debye-Ang):
   XX=            -40.3342   YY=            -42.3285   ZZ=            -36.4206
   XY=              7.0305   XZ=              0.0000   YZ=              0.0000

  Exact polarizability:  79.526  -9.971  94.232  -0.000   0.000  55.054
 Approx polarizability: 119.730  -9.217 126.955  -0.000  -0.000  75.614

                      1                      2                      3
                     A"                     A"                     A"
 Frequencies --    605.5430               614.0512               670.5707
 Red. masses --      2.8920                 4.6651                 1.2765
 Frc consts  --      0.6248                 1.0364                 0.3382
 IR Inten    --     12.5358                 9.0885                 0.7272

                      4                      5                      6
                     A"                     A'                     A"
 Frequencies --    720.0431               794.2822               849.0637
 Red. masses --      1.3644                 6.6626                 1.3205
 Frc consts  --      0.4168                 2.4765                 0.5609
 IR Inten    --     70.8988                40.2274                 2.4518

                      7                      8                      9
                     A'                     A'                     A'
 Frequencies --    863.4778               918.8665              1030.3233
 Red. masses --      6.6174                 8.7667                 2.0861
 Frc consts  --      2.9070                 4.3610                 1.3047
 IR Inten    --     30.3125                 0.7262                24.1759

                     10                     11                     12
                     A'                     A'                     A'
 Frequencies --   1072.7486              1139.5122              1247.5969
 Red. masses --      4.4002                 1.4817                 1.2609
 Frc consts  --      2.9834                 1.1336                 1.1563
 IR Inten    --     27.9677                13.1990                 1.0234

                     13                     14                     15
                     A'                     A'                     A'
 Frequencies --   1323.3524              1435.8776              1494.4900
 Red. masses --      2.3246                 3.3109                 4.3692
 Frc consts  --      2.3986                 4.0219                 5.7496
 IR Inten    --      7.4570                51.3826                16.6285

                     16                     17                     18
                     A'                     A'                     A'
 Frequencies --   3128.5152              3180.1860              3187.8630
 Red. masses --      1.0873                 1.0914                 1.0984
 Frc consts  --      6.2704                 6.5034                 6.5765
 IR Inten    --     50.4650                67.1312                64.5533

 - Thermochemistry -
 -------------------
 Temperature   298.150 Kelvin.  Pressure   1.00000 Atm.
 Atom     1 has atomic number  6 and mass  12.00000

 Molecular mass:    67.01839 amu.
 Principal axes and moments of inertia in atomic units:
                           1         2         3
     Eigenvalues --   184.72194 188.84905 373.57099
           X            0.86689   0.49850   0.00000
           Y           -0.49850   0.86689   0.00000
           Z           -0.00000   0.00000   1.00000
 This molecule is an asymmetric top.
 Rotational symmetry number  1.
 Rotational temperatures (Kelvin)      0.46889     0.45864     0.23185
 Rotational constants (GHZ):           9.77004     9.55653     4.83105
 Zero-point vibrational energy     145204.9 (Joules/Mol)
                                   34.70480 (Kcal/Mol)
 Warning -- explicit consideration of   2 degrees of freedom as
           vibrations may cause significant error
 Vibrational temperatures:    871.24   883.48   964.80  1035.98  1142.79
          (Kelvin)           1221.61  1242.35  1322.04  1482.40  1543.44
                             1639.50  1795.01  1904.01  2065.91  2150.24
                             4501.23  4575.57  4586.62

 Zero-point correction=                           0.055306 (Hartree/Particle)
 Thermal correction to Energy=                    0.059052
 Thermal correction to Enthalpy=                  0.059997
 Thermal correction to Gibbs Free Energy=         0.029082
 Sum of electronic and zero-point Energies=           -229.407280
 Sum of electronic and thermal Energies=              -229.403534
 Sum of electronic and thermal Enthalpies=            -229.402589
 Sum of electronic and thermal Free Energies=         -229.433504

                     E (Thermal)             CV                S
                      KCal/Mol        Cal/Mol-Kelvin    Cal/Mol-Kelvin
 Total                   37.056             13.302             65.064
 Electronic               0.000              0.000              0.000
 Translational            0.889              2.981             38.525
 Rotational               0.889              2.981             24.081
 Vibrational             35.278              7.340              2.458
 Vibration     1          0.964              1.020              0.440
 Vibration     2          0.973              1.002              0.426

 Optimization completed.
    -- Stationary point found.
 Normal termination of Gaussian 09 at Fri Mar  8 06:01:42 2019.
