 Gaussian 09, Revision E.01,
 Gaussian 09:  EM64L-G09RevE.01 30-Nov-2015

 ------------------------------------------------------
 #p b3lyp/6-311++G(3df,2p) freq IOp(2/17=3) IOp(2/18=3)
 ------------------------------------------------------

 ---------
 b3lyp opt
 ---------
 Symbolic Z-matrix:
 Charge = -1 Multiplicity = 3

                         Standard orientation:
 ---------------------------------------------------------------------
 Center     Atomic      Atomic             Coordinates (Angstroms)
 Number     Number       Type             X           Y           Z
 ---------------------------------------------------------------------
      1          6           0        1.661168   -0.578321   -0.057938
      2          6           0       -1.036700   -0.450529   -0.008657
      3          8           0       -2.014534    0.346132    0.047893
      4          6           0        0.320293   -0.114337   -0.104189
      5          6           0        1.334968    0.853789   -0.098586
      6          1           0        2.152096   -1.204890    0.688207
      7          1           0       -1.235051   -1.542954    0.008858
      8          1           0        1.520858    1.715182    0.536022
 ---------------------------------------------------------------------

 SCF Done:  E(UB3LYP) =  -229.396579694     A.U. after   17 cycles

 The electronic state is 3-A.
 Alpha  occ. eigenvalues --  -18.90673 -10.04040 -10.00349  -9.99834  -9.99745
 Alpha  occ. eigenvalues --   -0.81756  -0.69126  -0.49467  -0.39670  -0.34482
 Alpha  occ. eigenvalues --   -0.30677  -0.24439  -0.21936  -0.17409  -0.14336
 Alpha  occ. eigenvalues --   -0.13863  -0.06626   0.01052   0.02060
 Alpha virt. eigenvalues --    0.11612   0.12801   0.13620   0.16810   0.18203
 Alpha virt. eigenvalues --    0.19090   0.20926   0.21590   0.22063   0.23064
 Alpha virt. eigenvalues --    0.23275   0.25025   0.25600   0.26078   0.27138

  Beta  occ. eigenvalues --  -18.89799 -10.03790 -10.00073  -9.98873  -9.98808
  Beta  occ. eigenvalues --   -0.80152  -0.67833  -0.47611  -0.37419  -0.33240
  Beta  occ. eigenvalues --   -0.29985  -0.23477  -0.17751  -0.14317  -0.13410
  Beta  occ. eigenvalues --   -0.10285  -0.05789
  Beta virt. eigenvalues --    0.10897   0.11676   0.12795   0.13437   0.13961
  Beta virt. eigenvalues --    0.17377   0.18207   0.19218   0.21801   0.22203
  Beta virt. eigenvalues --    0.22454   0.23367   0.24399   0.25274   0.26305

 Mulliken charges and spin densities:
               1          2
     1  C   -0.457857   0.729458
     2  C   -0.029729   0.177569
     3  O   -0.758977   0.298725
     4  C    0.333602   0.110786
     5  C   -0.301187   0.660839
     6  H    0.087783   0.022061
     7  H    0.025858  -0.015420
     8  H    0.100507   0.015981
 Sum of Mulliken charges =  -1.00000   2.00000

 Dipole moment (field-independent basis, Debye):
    X=              1.0369    Y=             -1.0083    Z=              1.3600  Tot=              1.9854
 Quadrupole moment (field-independent basis, Debye-Ang):
   XX=            -52.1564   YY=            -36.3285   ZZ=            -34.9553
   XY=              2.7312   XZ=              3.3044   YZ=              0.2599

  Exact polarizability: 100.813   0.570  79.549  -3.135  -0.815  57.399
 Approx polarizability: 134.192  -1.642 107.933  -4.354  -1.475  72.386

                      1                      2                      3
                      A                      A                      A
 Frequencies --    216.8538               229.0407               348.5247
 Red. masses --      3.9284                 4.2860                 2.2461
 Frc consts  --      0.1088                 0.1325                 0.1607
 IR Inten    --      7.8475                 8.2820                18.7836

                      4                      5                      6
                      A                      A                      A
 Frequencies --    573.1671               656.7567               756.3787
 Red. masses --      5.6229                 1.5907                 1.2010
 Frc consts  --      1.0884                 0.4043                 0.4048
 IR Inten    --      0.5821                81.9838                56.0814

                      7                      8                      9
                      A                      A                      A
 Frequencies --    812.0383               851.5430               946.7247
 Red. masses --      2.4862                 1.7341                 1.4226
 Frc consts  --      0.9659                 0.7409                 0.7512
 IR Inten    --     13.1507                 9.8262                13.7752

                     10                     11                     12
                      A                      A                      A
 Frequencies --    986.3390              1099.9022              1145.9004
 Red. masses --      1.6267                 4.0025                 5.8952
 Frc consts  --      0.9324                 2.8529                 4.5608
 IR Inten    --     17.3586                 4.2881                 3.0545

                     13                     14                     15
                      A                      A                      A
 Frequencies --   1356.2391              1482.6329              1676.4240
 Red. masses --      1.4772                 3.6499                 9.8763
 Frc consts  --      1.6009                 4.7271                16.3536
 IR Inten    --     86.3517               306.3892                34.5559

                     16                     17                     18
                      A                      A                      A
 Frequencies --   2825.4219              3006.5804              3085.3538
 Red. masses --      1.0762                 1.0887                 1.0968
 Frc consts  --      5.0616                 5.7983                 6.1516
 IR Inten    --    238.5354               193.8902               118.2564

 - Thermochemistry -
 -------------------
 Temperature   298.150 Kelvin.  Pressure   1.00000 Atm.
 Atom     1 has atomic number  6 and mass  12.00000

 Molecular mass:    67.01839 amu.
 Principal axes and moments of inertia in atomic units:
                           1         2         3
     Eigenvalues --    89.57514 510.97835 593.18866
           X            0.99974   0.01574   0.01644
           Y           -0.01580   0.99987   0.00382
           Z           -0.01638  -0.00408   0.99986
 This molecule is an asymmetric top.
 Rotational symmetry number  1.
 Rotational temperatures (Kelvin)      0.96694     0.16951     0.14601
 Rotational constants (GHZ):          20.14779     3.53193     3.04244
 Zero-point vibrational energy     131923.1 (Joules/Mol)
                                   31.53038 (Kcal/Mol)
 Warning -- explicit consideration of   4 degrees of freedom as
           vibrations may cause significant error
 Vibrational temperatures:    312.00   329.54   501.45   824.66   944.93
          (Kelvin)           1088.26  1168.34  1225.18  1362.12  1419.12
                             1582.51  1648.69  1951.32  2133.18  2412.00
                             4065.15  4325.79  4439.13

 Zero-point correction=                           0.050247 (Hartree/Particle)
 Thermal correction to Energy=                    0.055178
 Thermal correction to Enthalpy=                  0.056123
 Thermal correction to Gibbs Free Energy=         0.021721
 Sum of electronic and zero-point Energies=           -229.346333
 Sum of electronic and thermal Energies=              -229.341401
 Sum of electronic and thermal Enthalpies=            -229.340457
 Sum of electronic and thermal Free Energies=         -229.374859

                     E (Thermal)             CV                S
                      KCal/Mol        Cal/Mol-Kelvin    Cal/Mol-Kelvin
 Total                   34.625             16.679             72.404
 Electronic               0.000              0.000              2.183
 Translational            0.889              2.981             38.525
 Rotational               0.889              2.981             24.810
 Vibrational             32.848             10.718              6.886
 Vibration     1          0.646              1.815              1.985
 Vibration     2          0.652              1.797              1.886
 Vibration     3          0.726              1.578              1.173
 Vibration     4          0.929              1.089              0.498

 Normal termination of Gaussian 09 at Thu Mar  7 10:12:16 2019.
