 Gaussian 09, Revision E.01,
 Gaussian 09:  EM64L-G09RevE.01 30-Nov-2015

 ------------------------------------------------------
 #p b3lyp/6-311++G(3df,2p) freq IOp(2/17=3) IOp(2/18=3)
 ------------------------------------------------------

 ---------
 b3lyp opt
 ---------
 Symbolic Z-matrix:
 Charge = -1 Multiplicity = 1

                         Standard orientation:
 ---------------------------------------------------------------------
 Center     Atomic      Atomic             Coordinates (Angstroms)
 Number     Number       Type             X           Y           Z
 ---------------------------------------------------------------------
      1          6           0       -0.000000   -0.000000   -0.538343
      2          1           0       -0.000000    1.024668   -1.033926
      3          1           0        0.887388   -0.512334   -1.033926
      4          1           0       -0.887388   -0.512334   -1.033926
      5          8           0        0.000000    0.000000    0.791391
 ---------------------------------------------------------------------

 SCF Done:  E(RB3LYP) =  -115.154271072     A.U. after   15 cycles

 The electronic state is 1-A1.
 Alpha  occ. eigenvalues --  -18.78901  -9.97783  -0.68643  -0.39597  -0.18267
 Alpha  occ. eigenvalues --   -0.18267  -0.12755   0.03216   0.03216
 Alpha virt. eigenvalues --    0.12713   0.16057   0.16057   0.19916   0.25150
 Alpha virt. eigenvalues --    0.25150   0.26357   0.35889   0.35890   0.36121
 Alpha virt. eigenvalues --    0.41348   0.41936   0.41936   0.43935   0.53720

 Mulliken charges:
               1
     1  C    0.055373
     2  H   -0.050997
     3  H   -0.051045
     4  H   -0.051045
     5  O   -0.902287
 Sum of Mulliken charges =  -1.00000

 Dipole moment (field-independent basis, Debye):
    X=             -0.0000    Y=              0.0000    Z=             -1.9379  Tot=              1.9379
 Quadrupole moment (field-independent basis, Debye-Ang):
   XX=            -18.0810   YY=            -18.0805   ZZ=            -22.6363
   XY=              0.0000   XZ=              0.0000   YZ=             -0.0002

  Exact polarizability:  41.689   0.000  41.666   0.000   0.023  47.452
 Approx polarizability:  45.247  -0.000  45.244  -0.000   0.002  59.480

                      1                      2                      3
                     ?A                     ?A                     ?A
 Frequencies --   1160.9909              1168.2974              1168.3781
 Red. masses --      8.1336                 1.3336                 1.3336
 Frc consts  --      6.4594                 1.0724                 1.0726
 IR Inten    --    458.2118                 1.3568                 1.3618

                      4                      5                      6
                      E                      E                     A1
 Frequencies --   1423.1184              1423.4253              1469.7874
 Red. masses --      1.0650                 1.0651                 1.1521
 Frc consts  --      1.2709                 1.2715                 1.4663
 IR Inten    --     74.2084                74.1085               136.1881

                      7                      8                      9
                      E                      E                     A1
 Frequencies --   2418.6438              2418.9607              2577.7216
 Red. masses --      1.0844                 1.0844                 1.0223
 Frc consts  --      3.7376                 3.7385                 4.0022
 IR Inten    --   1122.4977              1123.2430               638.7052

 - Thermochemistry -
 -------------------
 Temperature   298.150 Kelvin.  Pressure   1.00000 Atm.
 Atom     1 has atomic number  6 and mass  12.00000

 Molecular mass:    31.01839 amu.
 Principal axes and moments of inertia in atomic units:
                           1         2         3
     Eigenvalues --    11.33627  64.31655  64.31655
           X            0.00000   0.99217   0.12486
           Y            0.00000  -0.12486   0.99217
           Z            1.00000   0.00000  -0.00000
 This molecule is a prolate symmetric top.
 Rotational symmetry number  3.
 Rotational temperatures (Kelvin)      7.64041     1.34668     1.34668
 Rotational constants (GHZ):         159.20057    28.06029    28.06029
 Zero-point vibrational energy      91091.6 (Joules/Mol)
                                   21.77141 (Kcal/Mol)
 Vibrational temperatures:   1670.40  1680.92  1681.03  2047.55  2047.99
          (Kelvin)           2114.69  3479.88  3480.34  3708.76

 Zero-point correction=                           0.034695 (Hartree/Particle)
 Thermal correction to Energy=                    0.037604
 Thermal correction to Enthalpy=                  0.038549
 Thermal correction to Gibbs Free Energy=         0.013497
 Sum of electronic and zero-point Energies=           -115.119576
 Sum of electronic and thermal Energies=              -115.116667
 Sum of electronic and thermal Enthalpies=            -115.115722
 Sum of electronic and thermal Free Energies=         -115.140774

                     E (Thermal)             CV                S
                      KCal/Mol        Cal/Mol-Kelvin    Cal/Mol-Kelvin
 Total                   23.597              6.931             52.725
 Electronic               0.000              0.000              0.000
 Translational            0.889              2.981             36.229
 Rotational               0.889              2.981             16.307
 Vibrational             21.820              0.969              0.189

 Optimization completed.
    -- Stationary point found.
 Normal termination of Gaussian 09 at Thu Mar  7 10:15:13 2019.
