 Gaussian 09, Revision E.01,
 Gaussian 09:  EM64L-G09RevE.01 30-Nov-2015

 ------------------------------------------------------
 #p b3lyp/6-311++G(3df,2p) freq IOp(2/17=3) IOp(2/18=3)
 ------------------------------------------------------

 ---------
 b3lyp opt
 ---------
 Symbolic Z-matrix:
 Charge = -1 Multiplicity = 3

                         Standard orientation:
 ---------------------------------------------------------------------
 Center     Atomic      Atomic             Coordinates (Angstroms)
 Number     Number       Type             X           Y           Z
 ---------------------------------------------------------------------
      1          6           0        0.680085    0.026482   -0.060013
      2          1           0       -1.096310    0.748731    0.013188
      3          1           0        1.243639   -0.873586    0.137378
      4          1           0        1.098493    1.006948    0.129223
      5          8           0       -0.665791   -0.130123    0.010036
 ---------------------------------------------------------------------

 SCF Done:  E(UB3LYP) =  -115.086670139     A.U. after   18 cycles

 The electronic state is 3-A.
 Alpha  occ. eigenvalues --  -19.00477 -10.05967  -0.90618  -0.51938  -0.37863
 Alpha  occ. eigenvalues --   -0.30667  -0.24991  -0.20915  -0.02611   0.06941
 Alpha virt. eigenvalues --    0.10517   0.12306   0.17666   0.18093   0.21013
 Alpha virt. eigenvalues --    0.22700   0.27074   0.28261   0.31610   0.32945
 Alpha virt. eigenvalues --    0.33828   0.37762   0.38244   0.46115   0.47014

  Beta  occ. eigenvalues --  -18.99785 -10.04660  -0.89142  -0.49193  -0.36607
  Beta  occ. eigenvalues --   -0.29698  -0.20603  -0.20047
  Beta virt. eigenvalues --    0.10622   0.10909   0.12635   0.14149   0.18700
  Beta virt. eigenvalues --    0.20187   0.22172   0.23449   0.28124   0.29666
  Beta virt. eigenvalues --    0.32068   0.33330   0.34106   0.38458   0.39117

 Mulliken charges and spin densities:
               1          2
     1  C    1.948601  -1.133681
     2  H   -0.800874   1.078206
     3  H   -0.254398   0.349530
     4  H   -1.282841   1.413426
     5  O   -0.610489   0.292519
 Sum of Mulliken charges =  -1.00000   2.00000

 Dipole moment (field-independent basis, Debye):
    X=              0.8627    Y=             -4.9016    Z=             -0.3463  Tot=              4.9890
 Quadrupole moment (field-independent basis, Debye-Ang):
   XX=            -38.0841   YY=            -39.4333   ZZ=            -28.3386
   XY=              0.9646   XZ=             -0.1138   YZ=             -1.3329

  Exact polarizability:1002.490-264.914 838.200  38.478  24.184 133.739
 Approx polarizability: 850.492-125.199 453.163  37.361  11.729 115.392

                      1                      2                      3
                      A                      A                      A
 Frequencies --    487.5569               501.8406              1062.3088
 Red. masses --      1.0892                 1.2821                 1.0865
 Frc consts  --      0.1525                 0.1902                 0.7224
 IR Inten    --    164.9588               280.0540               243.7555

                      4                      5                      6
                      A                      A                      A
 Frequencies --   1199.1601              1355.8033              1462.4313
 Red. masses --      5.1055                 1.2619                 1.1710
 Frc consts  --      4.3256                 1.3666                 1.4756
 IR Inten    --    906.1290               561.9695                86.9382

                      7                      8                      9
                      A                      A                      A
 Frequencies --   3079.7865              3229.2335              3414.9051
 Red. masses --      1.0465                 1.1227                 1.0653
 Frc consts  --      5.8483                 6.8980                 7.3196
 IR Inten    --     16.8781                63.1266             11203.1028

 - Thermochemistry -
 -------------------
 Temperature   298.150 Kelvin.  Pressure   1.00000 Atm.
 Atom     1 has atomic number  6 and mass  12.00000

 Molecular mass:    31.01839 amu.
 Principal axes and moments of inertia in atomic units:
                           1         2         3
     Eigenvalues --     9.43478  59.62638  68.54274
           X            0.99836  -0.05425   0.01835
           Y            0.05416   0.99852   0.00540
           Z           -0.01861  -0.00440   0.99982
 This molecule is an asymmetric top.
 Rotational symmetry number  1.
 Rotational temperatures (Kelvin)      9.18026     1.45261     1.26365
 Rotational constants (GHZ):         191.28590    30.26750    26.33016
 Zero-point vibrational energy      94463.3 (Joules/Mol)
                                   22.57726 (Kcal/Mol)
 Warning -- explicit consideration of   2 degrees of freedom as
           vibrations may cause significant error
 Vibrational temperatures:    701.48   722.04  1528.42  1725.32  1950.70
          (Kelvin)           2104.11  4431.12  4646.14  4913.28

 Zero-point correction=                           0.035979 (Hartree/Particle)
 Thermal correction to Energy=                    0.039328
 Thermal correction to Enthalpy=                  0.040273
 Thermal correction to Gibbs Free Energy=         0.012620
 Sum of electronic and zero-point Energies=           -115.050691
 Sum of electronic and thermal Energies=              -115.047342
 Sum of electronic and thermal Enthalpies=            -115.046398
 Sum of electronic and thermal Free Energies=         -115.074051

                     E (Thermal)             CV                S
                      KCal/Mol        Cal/Mol-Kelvin    Cal/Mol-Kelvin
 Total                   24.679              9.213             58.200
 Electronic               0.000              0.000              2.183
 Translational            0.889              2.981             36.229
 Rotational               0.889              2.981             18.295
 Vibrational             22.901              3.251              1.493
 Vibration     1          0.844              1.278              0.690
 Vibration     2          0.857              1.246              0.654

 Optimization completed.
    -- Stationary point found.
 Normal termination of Gaussian 09 at Thu Mar  7 10:33:41 2019.
