 Gaussian 09, Revision E.01,
 Gaussian 09:  EM64L-G09RevE.01 30-Nov-2015

 ------------------------------------------------------
 #p b3lyp/6-311++G(3df,2p) freq IOp(2/17=3) IOp(2/18=3)
 ------------------------------------------------------

 ---------
 b3lyp opt
 ---------
 Symbolic Z-matrix:
 Charge = -1 Multiplicity = 1

                         Standard orientation:
 ---------------------------------------------------------------------
 Center     Atomic      Atomic             Coordinates (Angstroms)
 Number     Number       Type             X           Y           Z
 ---------------------------------------------------------------------
      1          6           0        1.566521   -0.181477   -0.000154
      2          1           0       -1.486407   -0.802138    0.001169
      3          1           0       -0.156864    0.059302   -0.000480
      4          1           0        2.004275    0.855202    0.001051
      5          8           0       -1.220016    0.122062   -0.000102
 ---------------------------------------------------------------------

 SCF Done:  E(RB3LYP) =  -114.997621008     A.U. after   16 cycles

 The electronic state is 1-A.
 Alpha  occ. eigenvalues --  -18.89802  -9.97928  -0.77080  -0.37255  -0.28337
 Alpha  occ. eigenvalues --   -0.17980  -0.09721  -0.06328   0.03909
 Alpha virt. eigenvalues --    0.10054   0.13028   0.14440   0.19499   0.22489
 Alpha virt. eigenvalues --    0.23978   0.24111   0.27657   0.31348   0.33730
 Alpha virt. eigenvalues --    0.34226   0.36224   0.37546   0.43893   0.50653

 Mulliken charges:
               1
     1  C   -0.974622
     2  H    0.137389
     3  H    0.447256
     4  H    0.066841
     5  O   -0.676863
 Sum of Mulliken charges =  -1.00000

 Dipole moment (field-independent basis, Debye):
    X=             -3.5935    Y=              0.4056    Z=              0.0023  Tot=              3.6163
 Quadrupole moment (field-independent basis, Debye-Ang):
   XX=            -37.3771   YY=            -19.9237   ZZ=            -17.6666
   XY=              7.1964   XZ=             -0.0050   YZ=             -0.0044

  Exact polarizability: 125.772  -5.055  51.471   0.017  -0.006  34.316
 Approx polarizability: 121.798  -1.877  60.043   0.009  -0.008  41.139

                      1                      2                      3
                      A                      A                      A
 Frequencies --    213.3779               214.2470               285.8777
 Red. masses --      1.0594                 3.8534                 1.1984
 Frc consts  --      0.0284                 0.1042                 0.0577
 IR Inten    --     77.4574                94.2665                88.6664

                      4                      5                      6
                      A                      A                      A
 Frequencies --    586.5294               623.7493              1644.7734
 Red. masses --      1.0653                 1.0553                 1.0805
 Frc consts  --      0.2159                 0.2419                 1.7222
 IR Inten    --     13.0940               356.8661               107.6578

                      7                      8                      9
                      A                      A                      A
 Frequencies --   1958.3451              2744.7411              3829.3366
 Red. masses --      1.0921                 1.0839                 1.0649
 Frc consts  --      2.4677                 4.8110                 9.2002
 IR Inten    --   2704.9186               338.1218                29.6850

 - Thermochemistry -
 -------------------
 Temperature   298.150 Kelvin.  Pressure   1.00000 Atm.
 Atom     1 has atomic number  6 and mass  12.00000

 Molecular mass:    31.01839 amu.
 Principal axes and moments of inertia in atomic units:
                           1         2         3
     Eigenvalues --     6.70967 213.17366 219.88331
           X            0.99876   0.04979   0.00001
           Y           -0.04979   0.99876  -0.00002
           Z           -0.00001   0.00002   1.00000
 This molecule is an asymmetric top.
 Rotational symmetry number  1.
 Rotational temperatures (Kelvin)     12.90880     0.40631     0.39391
 Rotational constants (GHZ):         268.97605     8.46606     8.20772
 Zero-point vibrational energy      72379.9 (Joules/Mol)
                                   17.29922 (Kcal/Mol)
 Warning -- explicit consideration of   4 degrees of freedom as
           vibrations may cause significant error
 Vibrational temperatures:    307.00   308.25   411.31   843.88   897.44
          (Kelvin)           2366.46  2817.62  3949.07  5509.55

 Zero-point correction=                           0.027568 (Hartree/Particle)
 Thermal correction to Energy=                    0.032236
 Thermal correction to Enthalpy=                  0.033180
 Thermal correction to Gibbs Free Energy=         0.003236
 Sum of electronic and zero-point Energies=           -114.970053
 Sum of electronic and thermal Energies=              -114.965385
 Sum of electronic and thermal Enthalpies=            -114.964441
 Sum of electronic and thermal Free Energies=         -114.994385

                     E (Thermal)             CV                S
                      KCal/Mol        Cal/Mol-Kelvin    Cal/Mol-Kelvin
 Total                   20.228             13.403             63.021
 Electronic               0.000              0.000              0.000
 Translational            0.889              2.981             36.229
 Rotational               0.889              2.981             20.381
 Vibrational             18.451              7.441              6.412
 Vibration     1          0.644              1.821              2.015
 Vibration     2          0.644              1.819              2.007
 Vibration     3          0.684              1.700              1.498
 Vibration     4          0.944              1.061              0.473

 Optimization completed.
    -- Stationary point found.
 Normal termination of Gaussian 09 at Thu Mar  7 10:30:36 2019.
