 Gaussian 09, Revision E.01,
 Gaussian 09:  EM64L-G09RevE.01 30-Nov-2015

 ------------------------------------------------------
 #p b3lyp/6-311++G(3df,2p) freq IOp(2/17=3) IOp(2/18=3)
 ------------------------------------------------------

 ---------
 b3lyp opt
 ---------
 Symbolic Z-matrix:
 Charge = -1 Multiplicity = 1

                         Standard orientation:
 ---------------------------------------------------------------------
 Center     Atomic      Atomic             Coordinates (Angstroms)
 Number     Number       Type             X           Y           Z
 ---------------------------------------------------------------------
      1          6           0       -0.756439   -0.000509    0.182095
      2          1           0        1.113486   -0.003315    0.727179
      3          1           0       -1.168507   -0.877157   -0.353822
      4          1           0       -1.168399    0.878904   -0.349009
      5          8           0        0.720256    0.000578   -0.139615
 ---------------------------------------------------------------------

 SCF Done:  E(RB3LYP) =  -115.100976596     A.U. after   15 cycles

 The electronic state is 1-A.
 Alpha  occ. eigenvalues --  -18.89163  -9.93078  -0.76602  -0.39582  -0.22270
 Alpha  occ. eigenvalues --   -0.16948  -0.15828  -0.04599   0.05975
 Alpha virt. eigenvalues --    0.13705   0.15158   0.16969   0.21176   0.24073
 Alpha virt. eigenvalues --    0.25000   0.28110   0.32623   0.34374   0.36627
 Alpha virt. eigenvalues --    0.37190   0.37773   0.42036   0.43757   0.48987

 Mulliken charges:
               1
     1  C   -0.618547
     2  H    0.172306
     3  H    0.020090
     4  H    0.020136
     5  O   -0.593985
 Sum of Mulliken charges =  -1.00000

 Dipole moment (field-independent basis, Debye):
    X=              2.5738    Y=              0.0021    Z=             -1.3417  Tot=              2.9025
 Quadrupole moment (field-independent basis, Debye-Ang):
   XX=            -21.8120   YY=            -18.6699   ZZ=            -22.9143
   XY=             -0.0175   XZ=              4.8665   YZ=              0.0088

  Exact polarizability:  54.907  -0.025  44.612   5.371  -0.081  75.189
 Approx polarizability:  57.943  -0.021  52.111   5.594  -0.058  73.535

                      1                      2                      3
                      A                      A                      A
 Frequencies --    356.0467               771.0907               978.3256
 Red. masses --      1.0669                 8.5517                 1.1704
 Frc consts  --      0.0797                 2.9958                 0.6600
 IR Inten    --    119.4256                95.9546                98.2558

                      4                      5                      6
                      A                      A                      A
 Frequencies --   1176.3668              1190.3799              1450.6962
 Red. masses --      1.1264                 1.2074                 1.0545
 Frc consts  --      0.9184                 1.0080                 1.3076
 IR Inten    --      0.8011                49.1689                 4.5715

                      7                      8                      9
                      A                      A                      A
 Frequencies --   2821.9321              2856.7554              3938.2550
 Red. masses --      1.0472                 1.1069                 1.0676
 Frc consts  --      4.9132                 5.3224                 9.7555
 IR Inten    --    697.9090               235.3951               234.5504

 - Thermochemistry -
 -------------------
 Temperature   298.150 Kelvin.  Pressure   1.00000 Atm.
 Atom     1 has atomic number  6 and mass  12.00000

 Molecular mass:    31.01839 amu.
 Principal axes and moments of inertia in atomic units:
                           1         2         3
     Eigenvalues --    10.35044  73.59913  74.34728
           X            0.99589  -0.00061   0.09059
           Y            0.00032   0.99999   0.00327
           Z           -0.09059  -0.00322   0.99588
 This molecule is an asymmetric top.
 Rotational symmetry number  1.
 Rotational temperatures (Kelvin)      8.36813     1.17683     1.16499
 Rotational constants (GHZ):         174.36375    24.52123    24.27447
 Zero-point vibrational energy      92948.9 (Joules/Mol)
                                   22.21533 (Kcal/Mol)
 Warning -- explicit consideration of   1 degrees of freedom as
           vibrations may cause significant error
 Vibrational temperatures:    512.27  1109.43  1407.59  1692.53  1712.69
          (Kelvin)           2087.23  4060.13  4110.23  5666.26

 Zero-point correction=                           0.035402 (Hartree/Particle)
 Thermal correction to Energy=                    0.038759
 Thermal correction to Enthalpy=                  0.039703
 Thermal correction to Gibbs Free Energy=         0.012866
 Sum of electronic and zero-point Energies=           -115.065574
 Sum of electronic and thermal Energies=              -115.062218
 Sum of electronic and thermal Enthalpies=            -115.061274
 Sum of electronic and thermal Free Energies=         -115.088111

                     E (Thermal)             CV                S
                      KCal/Mol        Cal/Mol-Kelvin    Cal/Mol-Kelvin
 Total                   24.321              9.147             56.483
 Electronic               0.000              0.000              0.000
 Translational            0.889              2.981             36.229
 Rotational               0.889              2.981             18.677
 Vibrational             22.544              3.186              1.577
 Vibration     1          0.732              1.563              1.139

 Optimization completed.
    -- Stationary point found.
 Normal termination of Gaussian 09 at Thu Mar  7 10:29:53 2019.
