 Gaussian 09, Revision E.01,
 Gaussian 09:  EM64L-G09RevE.01 30-Nov-2015

 ------------------------------------------------------
 #p b3lyp/6-311++G(3df,2p) freq IOp(2/17=3) IOp(2/18=3)
 ------------------------------------------------------

 ---------
 b3lyp opt
 ---------
 Symbolic Z-matrix:
 Charge = -1 Multiplicity = 2

                         Standard orientation:
 ---------------------------------------------------------------------
 Center     Atomic      Atomic             Coordinates (Angstroms)
 Number     Number       Type             X           Y           Z
 ---------------------------------------------------------------------
      1          6           0        0.000000    0.000000    0.000000
      2          1           0        0.629940    0.629940    0.629940
      3          1           0       -0.629940   -0.629940    0.629940
      4          1           0       -0.629940    0.629940   -0.629940
      5          1           0        0.629940   -0.629940   -0.629940
 ---------------------------------------------------------------------

 SCF Done:  E(UB3LYP) =  -40.5089077609     A.U. after   12 cycles

 The electronic state is 2-A1.
 Alpha  occ. eigenvalues --   -9.99448  -0.54152  -0.24032  -0.24032  -0.24032
 Alpha  occ. eigenvalues --    0.06728
 Alpha virt. eigenvalues --    0.12207   0.12207   0.12207   0.20503   0.20503
 Alpha virt. eigenvalues --    0.20503   0.23430   0.31677   0.31677   0.31677
 Alpha virt. eigenvalues --    0.39356   0.42827   0.42827   0.47455   0.47455

  Beta  occ. eigenvalues --   -9.99331  -0.53962  -0.23919  -0.23919  -0.23919
  Beta virt. eigenvalues --    0.10399   0.14128   0.14128   0.14128   0.20874
  Beta virt. eigenvalues --    0.20874   0.20874   0.23736   0.32114   0.32114
  Beta virt. eigenvalues --    0.32114   0.39748   0.42730   0.42730   0.47879

 Mulliken charges and spin densities:
               1          2
     1  C    3.113417  -3.607263
     2  H   -1.028354   1.151816
     3  H   -1.028354   1.151816
     4  H   -1.028354   1.151816
     5  H   -1.028354   1.151816
 Sum of Mulliken charges =  -1.00000   1.00000

 Dipole moment (field-independent basis, Debye):
    X=              0.0000    Y=             -0.0000    Z=              0.0000  Tot=              0.0000
 Quadrupole moment (field-independent basis, Debye-Ang):
   XX=            -31.7751   YY=            -31.7751   ZZ=            -31.7751
   XY=             -0.0000   XZ=             -0.0000   YZ=              0.0000

  Exact polarizability: 786.722  -0.000 786.722   0.000   0.000 786.722
 Approx polarizability: 549.288   0.000 549.288   0.000   0.000 549.288

                      1                      2                      3
                     T2                     T2                     T2
 Frequencies --   1319.2864              1319.2864              1319.2864
 Red. masses --      1.1791                 1.1791                 1.1791
 Frc consts  --      1.2091                 1.2091                 1.2091
 IR Inten    --    592.6172               592.6172               592.6172

                      4                      5                      6
                      E                      E                     A1
 Frequencies --   1563.9168              1563.9168              2964.8135
 Red. masses --      1.0078                 1.0078                 1.0078
 Frc consts  --      1.4523                 1.4523                 5.2195
 IR Inten    --      0.0000                 0.0000                 0.0000

                      7                      8                      9
                     T2                     T2                     T2
 Frequencies --   3083.3019              3083.3020              3083.3020
 Red. masses --      1.1016                 1.1016                 1.1016
 Frc consts  --      6.1703                 6.1703                 6.1703
 IR Inten    --     32.1650                32.1649                32.1646

 - Thermochemistry -
 -------------------
 Temperature   298.150 Kelvin.  Pressure   1.00000 Atm.
 Atom     1 has atomic number  6 and mass  12.00000

 Molecular mass:    16.03130 amu.
 Principal axes and moments of inertia in atomic units:
                           1         2         3
     Eigenvalues --    11.42539  11.42539  11.42539
           X            0.52795   0.83713  -0.14313
           Y            0.70263  -0.52521  -0.48008
           Z            0.47706  -0.15288   0.86547
 This molecule is a spherical top.
 Rotational symmetry number 12.
 Rotational temperatures (Kelvin)      7.58082     7.58082     7.58082
 Rotational constants (GHZ):         157.95882   157.95882   157.95882
 Zero-point vibrational energy     115442.1 (Joules/Mol)
                                   27.59132 (Kcal/Mol)
 Vibrational temperatures:   1898.16  1898.16  1898.16  2250.12  2250.12
          (Kelvin)           4265.70  4436.18  4436.18  4436.18

 Zero-point correction=                           0.043970 (Hartree/Particle)
 Thermal correction to Energy=                    0.046841
 Thermal correction to Enthalpy=                  0.047785
 Thermal correction to Gibbs Free Energy=         0.025996
 Sum of electronic and zero-point Energies=            -40.464938
 Sum of electronic and thermal Energies=               -40.462067
 Sum of electronic and thermal Enthalpies=             -40.461123
 Sum of electronic and thermal Free Energies=          -40.482911

                     E (Thermal)             CV                S
                      KCal/Mol        Cal/Mol-Kelvin    Cal/Mol-Kelvin
 Total                   29.393              6.499             45.858
 Electronic               0.000              0.000              1.377
 Translational            0.889              2.981             34.261
 Rotational               0.889              2.981             10.126
 Vibrational             27.616              0.537              0.094

 Optimization completed.
    -- Stationary point found.
 Normal termination of Gaussian 09 at Wed Mar  6 06:08:25 2019.
