 Gaussian 09, Revision E.01,
 Gaussian 09:  EM64L-G09RevE.01 30-Nov-2015

 ------------------------------------------------------
 #p b3lyp/6-311++G(3df,2p) freq IOp(2/17=3) IOp(2/18=3)
 ------------------------------------------------------

 ---------
 b3lyp opt
 ---------
 Symbolic Z-matrix:
 Charge = -1 Multiplicity = 2

                         Standard orientation:
 ---------------------------------------------------------------------
 Center     Atomic      Atomic             Coordinates (Angstroms)
 Number     Number       Type             X           Y           Z
 ---------------------------------------------------------------------
      1          6           0        0.646679    0.068203   -0.000000
      2          6           0       -0.255032   -1.121064    0.000000
      3          1           0       -0.013684   -1.739706    0.874538
      4          1           0       -1.331979   -0.907873    0.000000
      5          1           0       -0.013684   -1.739706   -0.874538
      6          1           0       -0.991239    1.112018    0.000000
      7          8           0        0.000000    1.199150   -0.000000
 ---------------------------------------------------------------------

 SCF Done:  E(UB3LYP) =  -153.786408258     A.U. after   22 cycles

 The electronic state is 2-A'.
 Alpha  occ. eigenvalues --  -19.05436 -10.09600 -10.02877  -0.95893  -0.60957
 Alpha  occ. eigenvalues --   -0.49811  -0.36133  -0.30889  -0.30694  -0.25097
 Alpha  occ. eigenvalues --   -0.23228  -0.08298   0.06270
 Alpha virt. eigenvalues --    0.09277   0.09928   0.11729   0.12765   0.17246
 Alpha virt. eigenvalues --    0.18498   0.18801   0.19834   0.20405   0.21885
 Alpha virt. eigenvalues --    0.23925   0.24339   0.26109   0.29000   0.29515

  Beta  occ. eigenvalues --  -19.05341 -10.09544 -10.02788  -0.95714  -0.60810
  Beta  occ. eigenvalues --   -0.49531  -0.35917  -0.30697  -0.30623  -0.25007
  Beta  occ. eigenvalues --   -0.23109  -0.07871
  Beta virt. eigenvalues --    0.09335   0.10085   0.11994   0.12922   0.14018
  Beta virt. eigenvalues --    0.17648   0.18575   0.19041   0.20311   0.20515
  Beta virt. eigenvalues --    0.22506   0.24097   0.24671   0.26446   0.29316

 Mulliken charges and spin densities:
               1          2
     1  C   -0.158737   0.094704
     2  C    2.327315  -2.475007
     3  H   -0.678572   0.806988
     4  H   -1.000567   1.106673
     5  H   -0.678572   0.806988
     6  H   -0.418293   0.649815
     7  O   -0.392575   0.009838
 Sum of Mulliken charges =  -1.00000   1.00000

 Dipole moment (field-independent basis, Debye):
    X=              3.6605    Y=              1.7229    Z=              0.0000  Tot=              4.0457
 Quadrupole moment (field-independent basis, Debye-Ang):
   XX=            -51.1774   YY=            -46.6613   ZZ=            -38.3495
   XY=              0.5935   XZ=              0.0000   YZ=              0.0000

  Exact polarizability: 540.839-295.5701001.760   0.000  -0.000 612.722
 Approx polarizability: 453.752-338.929 935.968  -0.000  -0.000 404.499

                      1                      2                      3
                     A"                     A'                     A"
 Frequencies --     98.5613               516.2753               738.7040
 Red. masses --      1.2385                 2.2891                 1.1000
 Frc consts  --      0.0071                 0.3595                 0.3537
 IR Inten    --     63.7088               163.9298               215.9428

                      4                      5                      6
                     A'                     A"                     A'
 Frequencies --    903.8987               972.0499              1069.4108
 Red. masses --      2.5806                 1.4955                 1.7433
 Frc consts  --      1.2423                 0.8325                 1.1746
 IR Inten    --      2.6920                16.2419               106.3657

                      7                      8                      9
                     A'                     A'                     A'
 Frequencies --   1293.1903              1338.4100              1351.7924
 Red. masses --      3.3518                 1.2401                 1.6041
 Frc consts  --      3.3026                 1.3089                 1.7270
 IR Inten    --   2275.9252               328.9812               707.9060

                     10                     11                     12
                     A"                     A'                     A'
 Frequencies --   1426.7581              1456.3899              2920.1564
 Red. masses --      1.0490                 1.1414                 1.0387
 Frc consts  --      1.2582                 1.4264                 5.2184
 IR Inten    --   1345.3837               141.8409               422.4169

                     13                     14                     15
                     A'                     A'                     A"
 Frequencies --   3005.1968              3156.8377              3202.5458
 Red. masses --      1.0998                 1.0630                 1.0972
 Frc consts  --      5.8523                 6.2415                 6.6303
 IR Inten    --    106.5667              2889.0438               914.2746

 - Thermochemistry -
 -------------------
 Temperature   298.150 Kelvin.  Pressure   1.00000 Atm.
 Atom     1 has atomic number  6 and mass  12.00000

 Molecular mass:    44.02621 amu.
 Principal axes and moments of inertia in atomic units:
                           1         2         3
     Eigenvalues --    34.23455 171.50475 194.72898
           X            0.10316   0.99467   0.00000
           Y            0.99467  -0.10316   0.00000
           Z           -0.00000  -0.00000   1.00000
 This molecule is an asymmetric top.
 Rotational symmetry number  1.
 Rotational temperatures (Kelvin)      2.53001     0.50502     0.44479
 Rotational constants (GHZ):          52.71695    10.52298     9.26796
 Zero-point vibrational energy     140263.2 (Joules/Mol)
                                   33.52371 (Kcal/Mol)
 Warning -- explicit consideration of   2 degrees of freedom as
           vibrations may cause significant error
 Vibrational temperatures:    141.81   742.80  1062.83  1300.51  1398.56
          (Kelvin)           1538.64  1860.61  1925.67  1944.93  2052.78
                             2095.42  4201.45  4323.80  4541.98  4607.74

 Zero-point correction=                           0.053423 (Hartree/Particle)
 Thermal correction to Energy=                    0.057469
 Thermal correction to Enthalpy=                  0.058413
 Thermal correction to Gibbs Free Energy=         0.027485
 Sum of electronic and zero-point Energies=           -153.732985
 Sum of electronic and thermal Energies=              -153.728939
 Sum of electronic and thermal Enthalpies=            -153.727995
 Sum of electronic and thermal Free Energies=         -153.758924

                     E (Thermal)             CV                S
                      KCal/Mol        Cal/Mol-Kelvin    Cal/Mol-Kelvin
 Total                   36.062             11.684             65.094
 Electronic               0.000              0.000              1.377
 Translational            0.889              2.981             37.273
 Rotational               0.889              2.981             21.663
 Vibrational             34.285              5.723              4.781
 Vibration     1          0.604              1.950              3.483
 Vibration     2          0.871              1.214              0.619

 Normal termination of Gaussian 09 at Thu Mar  7 10:39:26 2019.
