 Gaussian 09, Revision E.01,
 Gaussian 09:  EM64L-G09RevE.01 30-Nov-2015

 -------------------------------------------------
 #p b3lyp/6-311++G(3df,2p) opt freq symmetry=Loose
 -------------------------------------------------

 ---
 opt
 ---
 Symbolic Z-matrix:
 Charge = -1 Multiplicity = 4

 SCF Done:  E(UB3LYP) =  -78.4880620238     A.U. after   12 cycles
 SCF Done:  E(UB3LYP) =  -78.4880919720     A.U. after   11 cycles
 SCF Done:  E(UB3LYP) =  -78.4880978009     A.U. after   10 cycles
 Optimization completed.
    -- Stationary point found.
 Normal termination of Gaussian 09 at Tue Feb  5 19:39:59 2019.

 ----------------------------------------------------------------------
 #P Geom=AllCheck Guess=TCheck SCRF=Check GenChk UB3LYP/6-311++G(3df,2p
 ) Freq
 ----------------------------------------------------------------------

 Structure from the checkpoint file:  "/scratch/sergio/H4C2.q-1.m4-5.com-4947372/Gau-15434.chk"
 ---
 opt
 ---
 Charge = -1 Multiplicity = 4

                         Standard orientation:
 ---------------------------------------------------------------------
 Center     Atomic      Atomic             Coordinates (Angstroms)
 Number     Number       Type             X           Y           Z
 ---------------------------------------------------------------------
      1          6           0        0.000000   -0.000000    0.721127
      2          6           0        0.000000    0.000000   -0.721127
      3          1           0        0.920482    0.000000   -1.299002
      4          1           0        0.000000    0.920482    1.299002
      5          1           0       -0.920482   -0.000000   -1.299002
      6          1           0       -0.000000   -0.920482    1.299002
 ---------------------------------------------------------------------

 SCF Done:  E(UB3LYP) =  -78.4880978009     A.U. after    1 cycles

 The electronic state is 4-A1.
 Alpha  occ. eigenvalues --  -10.04267 -10.04235  -0.62288  -0.46781  -0.29772
 Alpha  occ. eigenvalues --   -0.29772  -0.28335  -0.07534  -0.07534   0.06775
 Alpha virt. eigenvalues --    0.10170   0.11009   0.11009   0.18630   0.19229
 Alpha virt. eigenvalues --    0.19229   0.19461   0.23951   0.24504   0.25434
 Alpha virt. eigenvalues --    0.25434   0.25892   0.31011   0.33215   0.33215

  Beta  occ. eigenvalues --  -10.02922 -10.02888  -0.57791  -0.42803  -0.27374
  Beta  occ. eigenvalues --   -0.27374  -0.26414
  Beta virt. eigenvalues --    0.06837   0.06837   0.10455   0.11925   0.12892
  Beta virt. eigenvalues --    0.12892   0.19237   0.20180   0.21497   0.21497
  Beta virt. eigenvalues --    0.24902   0.25692   0.26123   0.26123   0.27972

 Mulliken charges and spin densities:
               1          2
     1  C    1.078027  -0.380586
     2  C    1.078027  -0.380586
     3  H   -0.789013   0.940293
     4  H   -0.789013   0.940293
     5  H   -0.789013   0.940293
     6  H   -0.789013   0.940293
 Sum of Mulliken charges =  -1.00000   3.00000

 Dipole moment (field-independent basis, Debye):
    X=              0.0000    Y=             -0.0000    Z=              0.0000  Tot=              0.0000
 Quadrupole moment (field-independent basis, Debye-Ang):
   XX=            -38.9325   YY=            -38.9325   ZZ=            -41.6464
   XY=             -0.0000   XZ=             -0.0000   YZ=              0.0000

  Exact polarizability:1198.452  -0.0001198.452  -0.000   0.0001726.432
 Approx polarizability: 760.406   0.000 760.406   0.000   0.0001129.315

                      1                      2                      3
                      E                      E                     B1
 Frequencies --    397.9508               397.9508               721.9923
 Red. masses --      1.2068                 1.2068                 1.0078
 Frc consts  --      0.1126                 0.1126                 0.3095
 IR Inten    --    407.1764               407.1763                 0.0000

                      4                      5                      6
                      E                      E                     A1
 Frequencies --    916.4301               916.4301              1132.1198
 Red. masses --      1.3332                 1.3332                 3.5590
 Frc consts  --      0.6597                 0.6597                 2.6876
 IR Inten    --    133.4395               133.4395                 0.0000

                      7                      8                      9
                     B2                     A1                     B2
 Frequencies --   1405.1752              1424.0847              3040.7812
 Red. masses --      1.1105                 1.1970                 1.0490
 Frc consts  --      1.2919                 1.4302                 5.7148
 IR Inten    --    530.4869                 0.0000               626.7782

                     10                     11                     12
                     A1                      E                      E
 Frequencies --   3043.5973              3137.7539              3137.7539
 Red. masses --      1.0511                 1.1126                 1.1126
 Frc consts  --      5.7367                 6.4540                 6.4540
 IR Inten    --      0.0000                 8.1315                 8.1315

 - Thermochemistry -
 -------------------
 Temperature   298.150 Kelvin.  Pressure   1.00000 Atm.
 Atom     1 has atomic number  6 and mass  12.00000

 Molecular mass:    28.03130 amu.
 Principal axes and moments of inertia in atomic units:
                           1         2         3
     Eigenvalues --    12.19758  74.95976  74.95976
           X            0.00000   0.50629   0.86237
           Y            0.00000   0.86237  -0.50629
           Z            1.00000  -0.00000  -0.00000
 This molecule is a prolate symmetric top.
 Rotational symmetry number  4.
 Rotational temperatures (Kelvin)      7.10090     1.15547     1.15547
 Rotational constants (GHZ):         147.95900    24.07614    24.07614
 Zero-point vibrational energy     117664.8 (Joules/Mol)
                                   28.12256 (Kcal/Mol)
 Warning -- explicit consideration of   2 degrees of freedom as
           vibrations may cause significant error
 Vibrational temperatures:    572.56   572.56  1038.78  1318.54  1318.54
          (Kelvin)           1628.87  2021.73  2048.94  4375.00  4379.05
                             4514.52  4514.52

 Zero-point correction=                           0.044816 (Hartree/Particle)
 Thermal correction to Energy=                    0.048513
 Thermal correction to Enthalpy=                  0.049457
 Thermal correction to Gibbs Free Energy=         0.022201
 Sum of electronic and zero-point Energies=            -78.443282
 Sum of electronic and thermal Energies=               -78.439585
 Sum of electronic and thermal Enthalpies=             -78.438641
 Sum of electronic and thermal Free Energies=          -78.465897

                     E (Thermal)             CV                S
                      KCal/Mol        Cal/Mol-Kelvin    Cal/Mol-Kelvin
 Total                   30.442             11.110             57.365
 Electronic               0.000              0.000              2.755
 Translational            0.889              2.981             35.927
 Rotational               0.889              2.981             16.112
 Vibrational             28.665              5.148              2.572
 Vibration     1          0.764              1.475              0.970
 Vibration     2          0.764              1.475              0.970

 Optimization completed.
    -- Stationary point found.
 Normal termination of Gaussian 09 at Tue Feb  5 19:41:09 2019.
