 Gaussian 09, Revision E.01,
 Gaussian 09:  EM64L-G09RevE.01 30-Nov-2015

 ------------------------------------------------------
 #p b3lyp/6-311++G(3df,2p) freq IOp(2/17=3) IOp(2/18=3)
 ------------------------------------------------------

 ---------
 b3lyp opt
 ---------
 Symbolic Z-matrix:
 Charge = -1 Multiplicity = 4

                         Standard orientation:
 ---------------------------------------------------------------------
 Center     Atomic      Atomic             Coordinates (Angstroms)
 Number     Number       Type             X           Y           Z
 ---------------------------------------------------------------------
      1          6           0        0.030204    0.506584   -0.092310
      2          6           0       -1.256290   -0.154241    0.017507
      3          1           0       -1.693467   -0.414691    0.981222
      4          1           0        1.035457   -1.146587   -0.103556
      5          1           0        0.171965    1.552836    0.138671
      6          1           0       -1.803640   -0.499232   -0.856658
      7          8           0        1.205775   -0.200797    0.036142
 ---------------------------------------------------------------------

 SCF Done:  E(UB3LYP) =  -153.747873820     A.U. after   19 cycles

 The electronic state is 4-A.
 Alpha  occ. eigenvalues --  -19.02048 -10.08361 -10.05323  -0.92105  -0.61480
 Alpha  occ. eigenvalues --   -0.49257  -0.36653  -0.33228  -0.31206  -0.25042
 Alpha  occ. eigenvalues --   -0.23175  -0.10063  -0.03647   0.06487
 Alpha virt. eigenvalues --    0.10148   0.11011   0.11061   0.17615   0.18686
 Alpha virt. eigenvalues --    0.18873   0.19003   0.21694   0.22795   0.24105
 Alpha virt. eigenvalues --    0.25022   0.25596   0.29386   0.30316   0.32593

  Beta  occ. eigenvalues --  -19.01307 -10.07118 -10.03959  -0.90377  -0.57279
  Beta  occ. eigenvalues --   -0.46828  -0.34803  -0.31391  -0.28568  -0.22588
  Beta  occ. eigenvalues --   -0.20744
  Beta virt. eigenvalues --    0.04390   0.09610   0.10381   0.11517   0.12920
  Beta virt. eigenvalues --    0.13138   0.18100   0.19438   0.20148   0.20577
  Beta virt. eigenvalues --    0.22995   0.23693   0.24812   0.25618   0.27061

 Mulliken charges and spin densities:
               1          2
     1  C    1.142968  -0.066410
     2  C    1.099552  -0.498838
     3  H   -0.909040   1.074081
     4  H   -0.651207   0.921155
     5  H   -0.070515   0.188145
     6  H   -1.016752   1.169614
     7  O   -0.595006   0.212253
 Sum of Mulliken charges =  -1.00000   3.00000

 Dipole moment (field-independent basis, Debye):
    X=              2.9792    Y=              4.2066    Z=              0.3378  Tot=              5.1658
 Quadrupole moment (field-independent basis, Debye-Ang):
   XX=            -51.6580   YY=            -43.3931   ZZ=            -43.9187
   XY=              0.6165   XZ=             -0.1380   YZ=             -0.5211

  Exact polarizability: 925.601-185.796 971.003  -6.847  60.361 995.958
 Approx polarizability: 860.078-271.091 576.769 -18.534  52.992 710.388

                      1                      2                      3
                      A                      A                      A
 Frequencies --    283.7680               374.4463               408.9842
 Red. masses --      1.4649                 1.6133                 1.1927
 Frc consts  --      0.0695                 0.1333                 0.1175
 IR Inten    --    334.4786               119.2617               396.0988

                      4                      5                      6
                      A                      A                      A
 Frequencies --    555.9133               588.4882               956.5545
 Red. masses --      1.0498                 2.0367                 1.3380
 Frc consts  --      0.1911                 0.4156                 0.7213
 IR Inten    --    200.8749               508.0730                83.2046

                      7                      8                      9
                      A                      A                      A
 Frequencies --   1006.3396              1178.6632              1239.5246
 Red. masses --      4.3793                 1.6174                 1.9741
 Frc consts  --      2.6130                 1.3239                 1.7870
 IR Inten    --    650.1714               361.8066               106.2877

                     10                     11                     12
                      A                      A                      A
 Frequencies --   1389.8848              1438.7777              3012.7668
 Red. masses --      1.3189                 1.1853                 1.0503
 Frc consts  --      1.5012                 1.4456                 5.6168
 IR Inten    --    850.3302               504.3789               178.5595

                     13                     14                     15
                      A                      A                      A
 Frequencies --   3118.8647              3162.4641              3598.2658
 Red. masses --      1.1134                 1.0848                 1.0668
 Frc consts  --      6.3811                 6.3923                 8.1378
 IR Inten    --     99.4169               922.3354              6077.2016

 - Thermochemistry -
 -------------------
 Temperature   298.150 Kelvin.  Pressure   1.00000 Atm.
 Atom     1 has atomic number  6 and mass  12.00000

 Molecular mass:    44.02621 amu.
 Principal axes and moments of inertia in atomic units:
                           1         2         3
     Eigenvalues --    35.84354 182.93481 205.59089
           X            0.99984   0.01729  -0.00353
           Y           -0.01707   0.99835   0.05479
           Z            0.00447  -0.05472   0.99849
 This molecule is an asymmetric top.
 Rotational symmetry number  1.
 Rotational temperatures (Kelvin)      2.41644     0.47347     0.42129
 Rotational constants (GHZ):          50.35052     9.86549     8.77831
 Zero-point vibrational energy     133465.6 (Joules/Mol)
                                   31.89904 (Kcal/Mol)
 Warning -- explicit consideration of   5 degrees of freedom as
           vibrations may cause significant error
 Vibrational temperatures:    408.28   538.74   588.44   799.83   846.70
          (Kelvin)           1376.27  1447.90  1695.83  1783.40  1999.73
                             2070.08  4334.69  4487.35  4550.07  5177.10

 Zero-point correction=                           0.050834 (Hartree/Particle)
 Thermal correction to Energy=                    0.055222
 Thermal correction to Enthalpy=                  0.056166
 Thermal correction to Gibbs Free Energy=         0.024486
 Sum of electronic and zero-point Energies=           -153.697039
 Sum of electronic and thermal Energies=              -153.692652
 Sum of electronic and thermal Enthalpies=            -153.691708
 Sum of electronic and thermal Free Energies=         -153.723387

                     E (Thermal)             CV                S
                      KCal/Mol        Cal/Mol-Kelvin    Cal/Mol-Kelvin
 Total                   34.652             14.224             66.676
 Electronic               0.000              0.000              2.755
 Translational            0.889              2.981             37.273
 Rotational               0.889              2.981             21.827
 Vibrational             32.875              8.262              4.821
 Vibration     1          0.682              1.704              1.511
 Vibration     2          0.746              1.525              1.062
 Vibration     3          0.773              1.451              0.930
 Vibration     4          0.911              1.127              0.532
 Vibration     5          0.946              1.056              0.470

 Normal termination of Gaussian 09 at Thu Mar  7 10:49:26 2019.
