 Gaussian 09, Revision E.01,
 Gaussian 09:  EM64L-G09RevE.01 30-Nov-2015

 ------------------------------------------------------
 #p b3lyp/6-311++G(3df,2p) freq IOp(2/17=3) IOp(2/18=3)
 ------------------------------------------------------

 ---------
 b3lyp opt
 ---------
 Symbolic Z-matrix:
 Charge = -1 Multiplicity = 2

                         Standard orientation:
 ---------------------------------------------------------------------
 Center     Atomic      Atomic             Coordinates (Angstroms)
 Number     Number       Type             X           Y           Z
 ---------------------------------------------------------------------
      1          6           0       -0.051052    0.393261   -0.000000
      2          6           0       -1.219395   -0.245350    0.000000
      3          1           0       -2.137994    0.328058    0.000000
      4          1           0        1.868448    0.441344   -0.000000
      5          1           0       -1.283528   -1.325001    0.000000
      6          1           0       -0.000000    1.478094   -0.000000
      7          8           0        1.146969   -0.226245   -0.000000
 ---------------------------------------------------------------------

 SCF Done:  E(UB3LYP) =  -153.855253115     A.U. after   20 cycles

 The electronic state is 2-A'.
 Alpha  occ. eigenvalues --  -19.00728 -10.08412 -10.01232  -0.91414  -0.61348
 Alpha  occ. eigenvalues --   -0.44672  -0.40453  -0.30967  -0.27008  -0.25199
 Alpha  occ. eigenvalues --   -0.21096  -0.09682   0.06428
 Alpha virt. eigenvalues --    0.10026   0.11419   0.13148   0.14480   0.18061
 Alpha virt. eigenvalues --    0.18431   0.18967   0.21313   0.22664   0.23622
 Alpha virt. eigenvalues --    0.24804   0.25903   0.27427   0.29954   0.30789

  Beta  occ. eigenvalues --  -19.00623 -10.08354 -10.01223  -0.91207  -0.61213
  Beta  occ. eigenvalues --   -0.44486  -0.40197  -0.30882  -0.26932  -0.25103
  Beta  occ. eigenvalues --   -0.20961  -0.09637
  Beta virt. eigenvalues --    0.10088   0.11765   0.12172   0.14459   0.14857
  Beta virt. eigenvalues --    0.18004   0.18652   0.20346   0.21798   0.22844
  Beta virt. eigenvalues --    0.23743   0.24971   0.26010   0.27670   0.31026

 Mulliken charges and spin densities:
               1          2
     1  C    1.286059  -1.044946
     2  C    0.731453  -1.114381
     3  H   -0.293930   0.423542
     4  H   -0.970017   1.281254
     5  H    0.218129  -0.113139
     6  H   -1.210885   1.361822
     7  O   -0.760808   0.205848
 Sum of Mulliken charges =  -1.00000   1.00000

 Dipole moment (field-independent basis, Debye):
    X=             -4.7514    Y=             -5.3021    Z=              0.0000  Tot=              7.1195
 Quadrupole moment (field-independent basis, Debye-Ang):
   XX=            -53.6600   YY=            -45.2016   ZZ=            -34.4039
   XY=             -2.5241   XZ=              0.0000   YZ=              0.0000

  Exact polarizability:1164.547 -87.729 449.728   0.000   0.000 121.128
 Approx polarizability:1068.361-196.972 366.399  -0.000   0.000 114.780

                      1                      2                      3
                     A"                     A'                     A"
 Frequencies --    427.0872               482.8494               694.8571
 Red. masses --      1.1034                 2.2307                 1.3225
 Frc consts  --      0.1186                 0.3064                 0.3762
 IR Inten    --    452.5437                 2.1988                93.9181

                      4                      5                      6
                     A"                     A'                     A"
 Frequencies --    817.5481               962.2278              1009.2199
 Red. masses --      1.4714                 1.9169                 1.1754
 Frc consts  --      0.5794                 1.0457                 0.7053
 IR Inten    --     32.7804               259.3299               115.1576

                      7                      8                      9
                     A'                     A'                     A'
 Frequencies --   1159.2986              1279.7685              1330.3377
 Red. masses --      1.8164                 1.6947                 1.1689
 Frc consts  --      1.4383                 1.6353                 1.2189
 IR Inten    --     75.4050              1264.5257               394.3179

                     10                     11                     12
                     A'                     A'                     A'
 Frequencies --   1436.0720              1698.0358              3106.4465
 Red. masses --      1.1817                 3.7661                 1.0862
 Frc consts  --      1.4359                 6.3979                 6.1757
 IR Inten    --     73.7068               182.1248               117.8759

                     13                     14                     15
                     A'                     A'                     A'
 Frequencies --   3116.6181              3204.3512              3353.0057
 Red. masses --      1.0643                 1.1147                 1.0663
 Frc consts  --      6.0909                 6.7434                 7.0631
 IR Inten    --    245.8985               141.3548              4099.2439

 - Thermochemistry -
 -------------------
 Temperature   298.150 Kelvin.  Pressure   1.00000 Atm.
 Atom     1 has atomic number  6 and mass  12.00000

 Molecular mass:    44.02621 amu.
 Principal axes and moments of inertia in atomic units:
                           1         2         3
     Eigenvalues --    27.23334 173.82563 201.05897
           X            0.99966  -0.02604   0.00000
           Y            0.02604   0.99966   0.00000
           Z            0.00000  -0.00000   1.00000
 This molecule is an asymmetric top.
 Rotational symmetry number  1.
 Rotational temperatures (Kelvin)      3.18043     0.49828     0.43079
 Rotational constants (GHZ):          66.26955    10.38248     8.97618
 Zero-point vibrational energy     144016.8 (Joules/Mol)
                                   34.42083 (Kcal/Mol)
 Warning -- explicit consideration of   2 degrees of freedom as
           vibrations may cause significant error
 Vibrational temperatures:    614.48   694.71   999.74  1176.27  1384.43
          (Kelvin)           1452.04  1667.97  1841.30  1914.06  2066.18
                             2443.09  4469.48  4484.11  4610.34  4824.22

 Zero-point correction=                           0.054853 (Hartree/Particle)
 Thermal correction to Energy=                    0.058523
 Thermal correction to Enthalpy=                  0.059468
 Thermal correction to Gibbs Free Energy=         0.029758
 Sum of electronic and zero-point Energies=           -153.800400
 Sum of electronic and thermal Energies=              -153.796730
 Sum of electronic and thermal Enthalpies=            -153.795786
 Sum of electronic and thermal Free Energies=         -153.825495

                     E (Thermal)             CV                S
                      KCal/Mol        Cal/Mol-Kelvin    Cal/Mol-Kelvin
 Total                   36.724             11.566             62.530
 Electronic               0.000              0.000              1.377
 Translational            0.889              2.981             37.273
 Rotational               0.889              2.981             21.481
 Vibrational             34.947              5.604              2.399
 Vibration     1          0.789              1.411              0.868
 Vibration     2          0.839              1.288              0.702

 Optimization completed.
    -- Stationary point found.
 Normal termination of Gaussian 09 at Thu Mar  7 10:35:32 2019.
