 Gaussian 09, Revision E.01,
 Gaussian 09:  EM64L-G09RevE.01 30-Nov-2015

 -------------------------------------------------
 #p b3lyp/6-311++G(3df,2p) opt freq symmetry=Loose
 -------------------------------------------------

 ---
 opt
 ---
 Symbolic Z-matrix:
 Charge = -1 Multiplicity = 2

 SCF Done:  E(UB3LYP) =  -78.5890910146     A.U. after   15 cycles
 SCF Done:  E(UB3LYP) =  -78.5891011199     A.U. after    9 cycles
 Optimization completed.
    -- Stationary point found.
 Normal termination of Gaussian 09 at Tue Feb  5 19:27:49 2019.

 ----------------------------------------------------------------------
 #P Geom=AllCheck Guess=TCheck SCRF=Check GenChk UB3LYP/6-311++G(3df,2p
 ) Freq
 ----------------------------------------------------------------------

 Structure from the checkpoint file:  "/scratch/sergio/H4C2.q-1.m2-2.com-4947362/Gau-13977.chk"
 ---
 opt
 ---
 Charge = -1 Multiplicity = 2

                         Standard orientation:
 ---------------------------------------------------------------------
 Center     Atomic      Atomic             Coordinates (Angstroms)
 Number     Number       Type             X           Y           Z
 ---------------------------------------------------------------------
      1          6           0        0.000000    0.000000   -0.663438
      2          6           0       -0.000000    0.000000    0.663438
      3          1           0       -0.000000    0.920928    1.235712
      4          1           0       -0.000000   -0.920928   -1.235712
      5          1           0        0.000000   -0.920928    1.235712
      6          1           0        0.000000    0.920928   -1.235712
 ---------------------------------------------------------------------

 SCF Done:  E(UB3LYP) =  -78.5891011199     A.U. after    1 cycles

 The electronic state is 2-AG.
 Alpha  occ. eigenvalues --  -10.02482 -10.02401  -0.62002  -0.43878  -0.32685
 Alpha  occ. eigenvalues --   -0.28254  -0.21284  -0.13640   0.07033
 Alpha virt. eigenvalues --    0.10191   0.10267   0.12723   0.12805   0.17756
 Alpha virt. eigenvalues --    0.18297   0.22307   0.22775   0.23215   0.24901
 Alpha virt. eigenvalues --    0.25384   0.27114   0.27216   0.28935   0.31308

  Beta  occ. eigenvalues --  -10.02420 -10.02339  -0.61928  -0.43643  -0.32625
  Beta  occ. eigenvalues --   -0.28054  -0.21212  -0.13592
  Beta virt. eigenvalues --    0.10746   0.11754   0.12460   0.12758   0.14293
  Beta virt. eigenvalues --    0.17919   0.19113   0.22734   0.23010   0.23549
  Beta virt. eigenvalues --    0.25573   0.25723   0.27639   0.27748   0.29400

 Mulliken charges and spin densities:
               1          2
     1  C    0.852200  -1.112493
     2  C    0.852200  -1.112493
     3  H   -0.676100   0.806246
     4  H   -0.676100   0.806246
     5  H   -0.676100   0.806246
     6  H   -0.676100   0.806246
 Sum of Mulliken charges =  -1.00000   1.00000

 Dipole moment (field-independent basis, Debye):
    X=             -0.0000    Y=             -0.0000    Z=             -0.0000  Tot=              0.0000
 Quadrupole moment (field-independent basis, Debye-Ang):
   XX=            -31.3208   YY=            -46.0269   ZZ=            -39.0778
   XY=              0.0000   XZ=              0.0000   YZ=             -0.0000

  Exact polarizability: 178.997   0.0001601.543  -0.000   0.0002383.320
 Approx polarizability: 155.021  -0.0001440.903   0.000   0.0001259.738

                      1                      2                      3
                     B2U                    B3U                    B2G
 Frequencies --    813.8873               951.2267               974.4983
 Red. masses --      1.0439                 1.1607                 1.5207
 Frc consts  --      0.4074                 0.6188                 0.8509
 IR Inten    --     65.4200               465.8619                 0.0000

                      4                      5                      6
                     AU                     B3G                    AG
 Frequencies --   1055.7919              1113.0396              1364.4591
 Red. masses --      1.0078                 1.5435                 1.1976
 Frc consts  --      0.6619                 1.1266                 1.3137
 IR Inten    --      0.0000                 0.0000                 0.0000

                      7                      8                      9
                     B1U                    AG                     B1U
 Frequencies --   1453.4817              1666.1477              3078.1123
 Red. masses --      1.1101                 3.2988                 1.0493
 Frc consts  --      1.3818                 5.3955                 5.8579
 IR Inten    --   2859.5490                 0.0000                71.5638

                     10                     11                     12
                     AG                     B3G                    B2U
 Frequencies --   3098.3394              3169.7608              3172.3654
 Red. masses --      1.0756                 1.1056                 1.1163
 Frc consts  --      6.0837                 6.5450                 6.6189
 IR Inten    --      0.0000                 0.0000                 1.2248

 - Thermochemistry -
 -------------------
 Temperature   298.150 Kelvin.  Pressure   1.00000 Atm.
 Atom     1 has atomic number  6 and mass  12.00000

 Molecular mass:    28.03130 amu.
 Principal axes and moments of inertia in atomic units:
                           1         2         3
     Eigenvalues --    12.20939  59.70579  71.91518
           X           -0.00000  -0.00000   1.00000
           Y            0.00000   1.00000   0.00000
           Z            1.00000  -0.00000   0.00000
 This molecule is an asymmetric top.
 Rotational symmetry number  4.
 Rotational temperatures (Kelvin)      7.09404     1.45068     1.20439
 Rotational constants (GHZ):         147.81589    30.22724    25.09541
 Zero-point vibrational energy     131057.5 (Joules/Mol)
                                   31.32350 (Kcal/Mol)
 Vibrational temperatures:   1171.00  1368.60  1402.08  1519.05  1601.41
          (Kelvin)           1963.15  2091.23  2397.21  4428.71  4457.81
                             4560.57  4564.32

 Zero-point correction=                           0.049917 (Hartree/Particle)
 Thermal correction to Energy=                    0.052980
 Thermal correction to Enthalpy=                  0.053924
 Thermal correction to Gibbs Free Energy=         0.028391
 Sum of electronic and zero-point Energies=            -78.539184
 Sum of electronic and thermal Energies=               -78.536121
 Sum of electronic and thermal Enthalpies=             -78.535177
 Sum of electronic and thermal Free Energies=          -78.560710

                     E (Thermal)             CV                S
                      KCal/Mol        Cal/Mol-Kelvin    Cal/Mol-Kelvin
 Total                   33.245              8.268             53.739
 Electronic               0.000              0.000              1.377
 Translational            0.889              2.981             35.927
 Rotational               0.889              2.981             15.846
 Vibrational             31.468              2.306              0.589

 Normal termination of Gaussian 09 at Tue Feb  5 19:29:04 2019.
