 Gaussian 09, Revision E.01,
 Gaussian 09:  EM64L-G09RevE.01 30-Nov-2015

 ------------------------------------------------------
 #p b3lyp/6-311++G(3df,2p) freq IOp(2/17=3) IOp(2/18=3)
 ------------------------------------------------------

 ---------
 b3lyp opt
 ---------
 Symbolic Z-matrix:
 Charge = -1 Multiplicity = 4

                         Standard orientation:
 ---------------------------------------------------------------------
 Center     Atomic      Atomic             Coordinates (Angstroms)
 Number     Number       Type             X           Y           Z
 ---------------------------------------------------------------------
      1          6           0       -0.047317    0.850263   -0.000000
      2          6           0       -0.047317   -0.607886    0.000000
      3          1           0        0.458859   -1.025017    0.884248
      4          1           0        0.458859   -1.025017   -0.884248
      5          1           0       -1.062744   -1.021238    0.000000
      6          1           0        0.712837    1.617011   -0.000000
 ---------------------------------------------------------------------

 SCF Done:  E(UB3LYP) =  -78.4790481417     A.U. after   17 cycles

 The electronic state is 4-A".
 Alpha  occ. eigenvalues --  -10.06048 -10.03103  -0.62533  -0.46144  -0.30065
 Alpha  occ. eigenvalues --   -0.28341  -0.26949  -0.10880  -0.07151   0.06646
 Alpha virt. eigenvalues --    0.10042   0.11684   0.11866   0.17966   0.19079
 Alpha virt. eigenvalues --    0.19452   0.20191   0.21369   0.23241   0.23859
 Alpha virt. eigenvalues --    0.24502   0.28180   0.30064   0.30796   0.38863

  Beta  occ. eigenvalues --  -10.03270 -10.03057  -0.59767  -0.41027  -0.27879
  Beta  occ. eigenvalues --   -0.26433  -0.25395
  Beta virt. eigenvalues --    0.05860   0.08768   0.10495   0.11542   0.13749
  Beta virt. eigenvalues --    0.13824   0.19224   0.20255   0.21105   0.21156
  Beta virt. eigenvalues --    0.22763   0.23813   0.24734   0.25835   0.29625

 Mulliken charges and spin densities:
               1          2
     1  C   -1.002547   2.604057
     2  C    3.652711  -4.009336
     3  H   -1.036751   1.248557
     4  H   -1.036751   1.248557
     5  H   -0.969015   1.136843
     6  H   -0.607646   0.771321
 Sum of Mulliken charges =  -1.00000   3.00000

 Dipole moment (field-independent basis, Debye):
    X=             -1.3199    Y=              3.0849    Z=              0.0000  Tot=              3.3554
 Quadrupole moment (field-independent basis, Debye-Ang):
   XX=            -40.7168   YY=            -40.7890   ZZ=            -38.6353
   XY=             -0.7611   XZ=              0.0000   YZ=              0.0000

  Exact polarizability:1087.726 500.4771405.250   0.000  -0.000 862.235
 Approx polarizability: 774.852 301.017 803.535   0.000  -0.000 638.136

                      1                      2                      3
                     A"                     A'                     A"
 Frequencies --    161.1432               736.8381               985.7882
 Red. masses --      1.1133                 1.0645                 1.3356
 Frc consts  --      0.0170                 0.3405                 0.7647
 IR Inten    --    121.7563                78.7320                20.1505

                      4                      5                      6
                     A'                     A'                     A'
 Frequencies --   1052.4910              1099.0408              1366.0426
 Red. masses --      1.4788                 4.7285                 1.2006
 Frc consts  --      0.9651                 3.3651                 1.3200
 IR Inten    --    113.6101                32.0566               755.4580

                      7                      8                      9
                     A'                     A"                     A'
 Frequencies --   1431.0527              1433.9726              2894.7099
 Red. masses --      1.0409                 1.0411                 1.0384
 Frc consts  --      1.2560                 1.2613                 5.1267
 IR Inten    --    705.8239               715.1250                 1.9444

                     10                     11                     12
                     A"                     A'                     A'
 Frequencies --   2949.7356              2994.0250              3199.2450
 Red. masses --      1.0966                 1.0906                 1.0905
 Frc consts  --      5.6217                 5.7599                 6.5759
 IR Inten    --      6.0926               163.7411                 6.3322

 - Thermochemistry -
 -------------------
 Temperature   298.150 Kelvin.  Pressure   1.00000 Atm.
 Atom     1 has atomic number  6 and mass  12.00000

 Molecular mass:    28.03130 amu.
 Principal axes and moments of inertia in atomic units:
                           1         2         3
     Eigenvalues --    12.88334  73.21027  74.83744
           X            0.07115   0.99747   0.00000
           Y            0.99747  -0.07115   0.00000
           Z           -0.00000  -0.00000   1.00000
 This molecule is an asymmetric top.
 Rotational symmetry number  1.
 Rotational temperatures (Kelvin)      6.72293     1.18308     1.15736
 Rotational constants (GHZ):         140.08335    24.65148    24.11549
 Zero-point vibrational energy     121445.4 (Joules/Mol)
                                   29.02615 (Kcal/Mol)
 Warning -- explicit consideration of   1 degrees of freedom as
           vibrations may cause significant error
 Vibrational temperatures:    231.85  1060.14  1418.33  1514.30  1581.27
          (Kelvin)           1965.43  2058.96  2063.16  4164.84  4244.01
                             4307.73  4602.99

 Zero-point correction=                           0.046256 (Hartree/Particle)
 Thermal correction to Energy=                    0.049927
 Thermal correction to Enthalpy=                  0.050871
 Thermal correction to Gibbs Free Energy=         0.022046
 Sum of electronic and zero-point Energies=            -78.432792
 Sum of electronic and thermal Energies=               -78.429121
 Sum of electronic and thermal Enthalpies=             -78.428177
 Sum of electronic and thermal Free Energies=          -78.457003

                     E (Thermal)             CV                S
                      KCal/Mol        Cal/Mol-Kelvin    Cal/Mol-Kelvin
 Total                   31.330              9.918             60.669
 Electronic               0.000              0.000              2.755
 Translational            0.889              2.981             35.927
 Rotational               0.889              2.981             18.896
 Vibrational             29.552              3.956              3.091
 Vibration     1          0.622              1.890              2.536

 Optimization completed.
    -- Stationary point found.
 Normal termination of Gaussian 09 at Wed Mar  6 06:09:19 2019.
