 Gaussian 09, Revision E.01,
 Gaussian 09:  EM64L-G09RevE.01 30-Nov-2015

 -------------------------------------------------
 #p b3lyp/6-311++G(3df,2p) opt freq symmetry=Loose
 -------------------------------------------------

 ---
 opt
 ---
 Symbolic Z-matrix:
 Charge = -1 Multiplicity = 2

 SCF Done:  E(UB3LYP) =  -78.5043770962     A.U. after   21 cycles
 SCF Done:  E(UB3LYP) =  -78.5174039315     A.U. after   15 cycles
 SCF Done:  E(UB3LYP) =  -78.5208619644     A.U. after   14 cycles
 SCF Done:  E(UB3LYP) =  -78.5209698635     A.U. after   13 cycles
 SCF Done:  E(UB3LYP) =  -78.5209882112     A.U. after   12 cycles
 SCF Done:  E(UB3LYP) =  -78.5209908727     A.U. after   11 cycles
 Optimization completed.
    -- Stationary point found.
 Normal termination of Gaussian 09 at Tue Feb  5 19:29:44 2019.

 ----------------------------------------------------------------------
 #P Geom=AllCheck Guess=TCheck SCRF=Check GenChk UB3LYP/6-311++G(3df,2p
 ) Freq
 ----------------------------------------------------------------------

 Structure from the checkpoint file:  "/scratch/sergio/H4C2.q-1.m2-3.com-4947363/Gau-14012.chk"
 ---
 opt
 ---
 Charge = -1 Multiplicity = 2

                         Standard orientation:
 ---------------------------------------------------------------------
 Center     Atomic      Atomic             Coordinates (Angstroms)
 Number     Number       Type             X           Y           Z
 ---------------------------------------------------------------------
      1          6           0        0.067337    0.919330    0.000000
      2          6           0        0.067337   -0.602848   -0.000000
      3          1           0       -0.443010   -1.054496    0.881480
      4          1           0        1.081627   -1.022776   -0.000000
      5          1           0       -0.443010   -1.054496   -0.881480
      6          1           0       -1.003646    1.232872    0.000000
 ---------------------------------------------------------------------

 SCF Done:  E(UB3LYP) =  -78.5209908727     A.U. after    1 cycles

 The electronic state is 2-A".
 Alpha  occ. eigenvalues --   -9.96110  -9.91223  -0.51813  -0.34187  -0.20514
 Alpha  occ. eigenvalues --   -0.20180  -0.12465   0.02786   0.05688
 Alpha virt. eigenvalues --    0.12167   0.14798   0.15062   0.16347   0.21713
 Alpha virt. eigenvalues --    0.23671   0.23769   0.24411   0.25739   0.26726
 Alpha virt. eigenvalues --    0.28505   0.29886   0.33923   0.34681   0.37660

  Beta  occ. eigenvalues --   -9.96189  -9.89996  -0.50924  -0.31654  -0.20167
  Beta  occ. eigenvalues --   -0.19228  -0.11837   0.04723
  Beta virt. eigenvalues --    0.12238   0.14827   0.15109   0.16369   0.17572
  Beta virt. eigenvalues --    0.21745   0.23708   0.23844   0.24918   0.26770
  Beta virt. eigenvalues --    0.28382   0.28544   0.30564   0.34455   0.34774

 Mulliken charges and spin densities:
               1          2
     1  C   -1.019922   1.086864
     2  C   -0.053807  -0.072011
     3  H   -0.045577   0.014198
     4  H    0.097546  -0.010259
     5  H   -0.045577   0.014198
     6  H    0.067337  -0.032989
 Sum of Mulliken charges =  -1.00000   1.00000

 Dipole moment (field-independent basis, Debye):
    X=             -1.5614    Y=             -4.3391    Z=              0.0000  Tot=              4.6114
 Quadrupole moment (field-independent basis, Debye-Ang):
   XX=            -21.1516   YY=            -29.3932   ZZ=            -21.5177
   XY=             -3.4588   XZ=              0.0000   YZ=             -0.0000

  Exact polarizability:  58.170  15.464 102.418   0.000   0.000  68.209
 Approx polarizability:  68.123  12.267 106.107  -0.000  -0.000  71.672

                      1                      2                      3
                     A"                     A"                     A'
 Frequencies --    312.9495               855.0844               877.4410
 Red. masses --      1.1088                 1.2271                 1.1769
 Frc consts  --      0.0640                 0.5286                 0.5339
 IR Inten    --     89.5216                 3.0869                11.9638

                      4                      5                      6
                     A'                     A'                     A'
 Frequencies --    913.6924              1194.2095              1323.1796
 Red. masses --      4.3044                 1.3404                 1.1647
 Frc consts  --      2.1172                 1.1263                 1.2015
 IR Inten    --     50.8551                14.1632                19.4272

                      7                      8                      9
                     A'                     A"                     A"
 Frequencies --   1445.5217              1465.0509              2713.9074
 Red. masses --      1.0523                 1.0672                 1.0951
 Frc consts  --      1.2956                 1.3496                 4.7522
 IR Inten    --      1.8600                 3.8867               221.8402

                     10                     11                     12
                     A'                     A'                     A'
 Frequencies --   2732.6855              2775.6285              2938.7909
 Red. masses --      1.0653                 1.0627                 1.0760
 Frc consts  --      4.6872                 4.8236                 5.4751
 IR Inten    --    510.2251               598.7232                68.1017

 - Thermochemistry -
 -------------------
 Temperature   298.150 Kelvin.  Pressure   1.00000 Atm.
 Atom     1 has atomic number  6 and mass  12.00000

 Molecular mass:    28.03130 amu.
 Principal axes and moments of inertia in atomic units:
                           1         2         3
     Eigenvalues --    14.82907  74.49049  78.13374
           X           -0.07313   0.99732   0.00000
           Y            0.99732   0.07313   0.00000
           Z           -0.00000  -0.00000   1.00000
 This molecule is an asymmetric top.
 Rotational symmetry number  1.
 Rotational temperatures (Kelvin)      5.84081     1.16275     1.10853
 Rotational constants (GHZ):         121.70293    24.22781    23.09810
 Zero-point vibrational energy     116923.8 (Joules/Mol)
                                   27.94547 (Kcal/Mol)
 Warning -- explicit consideration of   1 degrees of freedom as
           vibrations may cause significant error
 Vibrational temperatures:    450.26  1230.27  1262.44  1314.60  1718.20
          (Kelvin)           1903.76  2079.78  2107.88  3904.70  3931.72
                             3993.51  4228.26

 Zero-point correction=                           0.044534 (Hartree/Particle)
 Thermal correction to Energy=                    0.047984
 Thermal correction to Enthalpy=                  0.048928
 Thermal correction to Gibbs Free Energy=         0.021231
 Sum of electronic and zero-point Energies=            -78.476457
 Sum of electronic and thermal Energies=               -78.473007
 Sum of electronic and thermal Enthalpies=             -78.472063
 Sum of electronic and thermal Free Energies=          -78.499760

                     E (Thermal)             CV                S
                      KCal/Mol        Cal/Mol-Kelvin    Cal/Mol-Kelvin
 Total                   30.110              9.711             58.295
 Electronic               0.000              0.000              1.377
 Translational            0.889              2.981             35.927
 Rotational               0.889              2.981             19.096
 Vibrational             28.333              3.749              1.894
 Vibration     1          0.701              1.649              1.347

 Optimization completed.
    -- Stationary point found.
 Normal termination of Gaussian 09 at Tue Feb  5 19:31:48 2019.
