 Gaussian 09, Revision E.01,
 Gaussian 09:  EM64L-G09RevE.01 30-Nov-2015

 ------------------------------------------------------
 #p b3lyp/6-311++G(3df,2p) freq IOp(2/17=3) IOp(2/18=3)
 ------------------------------------------------------

 ---------
 b3lyp opt
 ---------
 Symbolic Z-matrix:
 Charge = -1 Multiplicity = 2

                         Standard orientation:
 ---------------------------------------------------------------------
 Center     Atomic      Atomic             Coordinates (Angstroms)
 Number     Number       Type             X           Y           Z
 ---------------------------------------------------------------------
      1          6           0       -0.067311    0.919329    0.000000
      2          6           0       -0.067311   -0.602943   -0.000000
      3          1           0        0.443018   -1.054296    0.881592
      4          1           0        0.443018   -1.054296   -0.881592
      5          1           0       -1.081705   -1.022823   -0.000000
      6          1           0        1.003396    1.233098    0.000000
 ---------------------------------------------------------------------

 SCF Done:  E(UB3LYP) =  -78.5209908985     A.U. after   18 cycles

 The electronic state is 2-A".
 Alpha  occ. eigenvalues --   -9.96111  -9.91222  -0.51812  -0.34188  -0.20512
 Alpha  occ. eigenvalues --   -0.20184  -0.12468   0.02788   0.05688
 Alpha virt. eigenvalues --    0.12167   0.14798   0.15061   0.16347   0.21712
 Alpha virt. eigenvalues --    0.23671   0.23768   0.24410   0.25738   0.26726
 Alpha virt. eigenvalues --    0.28504   0.29886   0.33924   0.34680   0.37662

  Beta  occ. eigenvalues --   -9.96190  -9.89994  -0.50923  -0.31655  -0.20166
  Beta  occ. eigenvalues --   -0.19233  -0.11840   0.04725
  Beta virt. eigenvalues --    0.12238   0.14827   0.15108   0.16369   0.17572
  Beta virt. eigenvalues --    0.21745   0.23708   0.23843   0.24917   0.26770
  Beta virt. eigenvalues --    0.28382   0.28544   0.30564   0.34455   0.34773

 Mulliken charges and spin densities:
               1          2
     1  C   -1.020087   1.086940
     2  C   -0.053708  -0.071929
     3  H   -0.045614   0.014122
     4  H   -0.045614   0.014122
     5  H    0.097513  -0.010270
     6  H    0.067510  -0.032985
 Sum of Mulliken charges =  -1.00000   1.00000

 Dipole moment (field-independent basis, Debye):
    X=              1.5624    Y=             -4.3390    Z=             -0.0000  Tot=              4.6117
 Quadrupole moment (field-independent basis, Debye-Ang):
   XX=            -21.1520   YY=            -29.3944   ZZ=            -21.5182
   XY=              3.4607   XZ=             -0.0000   YZ=             -0.0000

  Exact polarizability:  58.175 -15.475 102.450  -0.000  -0.000  68.239
 Approx polarizability:  68.123 -12.275 106.130   0.000  -0.000  71.692

                      1                      2                      3
                     A"                     A"                     A'
 Frequencies --    311.2284               855.0984               877.2769
 Red. masses --      1.1088                 1.2270                 1.1748
 Frc consts  --      0.0633                 0.5286                 0.5327
 IR Inten    --     89.6875                 3.1021                12.1446

                      4                      5                      6
                     A'                     A'                     A'
 Frequencies --    913.3324              1193.9484              1323.0506
 Red. masses --      4.3312                 1.3407                 1.1647
 Frc consts  --      2.1287                 1.1260                 1.2012
 IR Inten    --     50.7375                14.1131                19.3247

                      7                      8                      9
                     A'                     A"                     A"
 Frequencies --   1445.4566              1465.1528              2714.4457
 Red. masses --      1.0523                 1.0673                 1.0951
 Frc consts  --      1.2954                 1.3498                 4.7542
 IR Inten    --      1.8645                 3.8740               221.4340

                     10                     11                     12
                     A'                     A'                     A'
 Frequencies --   2733.7776              2776.6072              2938.1213
 Red. masses --      1.0648                 1.0632                 1.0760
 Frc consts  --      4.6887                 4.8293                 5.4727
 IR Inten    --    514.8159               592.9743                68.3051

 - Thermochemistry -
 -------------------
 Temperature   298.150 Kelvin.  Pressure   1.00000 Atm.
 Atom     1 has atomic number  6 and mass  12.00000

 Molecular mass:    28.03130 amu.
 Principal axes and moments of inertia in atomic units:
                           1         2         3
     Eigenvalues --    14.82896  74.49652  78.13682
           X            0.07314   0.99732   0.00000
           Y            0.99732  -0.07314   0.00000
           Z           -0.00000  -0.00000   1.00000
 This molecule is an asymmetric top.
 Rotational symmetry number  1.
 Rotational temperatures (Kelvin)      5.84086     1.16266     1.10849
 Rotational constants (GHZ):         121.70384    24.22585    23.09719
 Zero-point vibrational energy     116920.0 (Joules/Mol)
                                   27.94455 (Kcal/Mol)
 Warning -- explicit consideration of   1 degrees of freedom as
           vibrations may cause significant error
 Vibrational temperatures:    447.79  1230.29  1262.20  1314.08  1717.82
          (Kelvin)           1903.57  2079.69  2108.03  3905.48  3933.29
                             3994.91  4227.30

 Zero-point correction=                           0.044532 (Hartree/Particle)
 Thermal correction to Energy=                    0.047985
 Thermal correction to Enthalpy=                  0.048929
 Thermal correction to Gibbs Free Energy=         0.021227
 Sum of electronic and zero-point Energies=            -78.476458
 Sum of electronic and thermal Energies=               -78.473006
 Sum of electronic and thermal Enthalpies=             -78.472062
 Sum of electronic and thermal Free Energies=          -78.499764

                     E (Thermal)             CV                S
                      KCal/Mol        Cal/Mol-Kelvin    Cal/Mol-Kelvin
 Total                   30.111              9.715             58.304
 Electronic               0.000              0.000              1.377
 Translational            0.889              2.981             35.927
 Rotational               0.889              2.981             19.096
 Vibrational             28.333              3.754              1.904
 Vibration     1          0.700              1.652              1.356

 Optimization completed.
    -- Stationary point found.
 Normal termination of Gaussian 09 at Wed Mar  6 06:07:55 2019.
