 Gaussian 09, Revision E.01,
 Gaussian 09:  EM64L-G09RevE.01 30-Nov-2015

 ------------------------------------------------------
 #p b3lyp/6-311++G(3df,2p) freq IOp(2/17=3) IOp(2/18=3)
 ------------------------------------------------------

 ---------
 b3lyp opt
 ---------
 Symbolic Z-matrix:
 Charge = -1 Multiplicity = 4

                         Standard orientation:
 ---------------------------------------------------------------------
 Center     Atomic      Atomic             Coordinates (Angstroms)
 Number     Number       Type             X           Y           Z
 ---------------------------------------------------------------------
      1          6           0       -0.047327    0.850237   -0.000000
      2          6           0       -0.047327   -0.607897    0.000000
      3          1           0       -1.062635   -1.021413    0.000000
      4          1           0        0.458923   -1.024847    0.884240
      5          1           0        0.458923   -1.024847   -0.884240
      6          1           0        0.712710    1.617065   -0.000000
 ---------------------------------------------------------------------

 SCF Done:  E(UB3LYP) =  -78.4790481545     A.U. after   17 cycles

 The electronic state is 4-A".
 Alpha  occ. eigenvalues --  -10.06047 -10.03102  -0.62534  -0.46144  -0.30064
 Alpha  occ. eigenvalues --   -0.28343  -0.26952  -0.10878  -0.07150   0.06646
 Alpha virt. eigenvalues --    0.10042   0.11684   0.11866   0.17966   0.19079
 Alpha virt. eigenvalues --    0.19452   0.20191   0.21368   0.23241   0.23859
 Alpha virt. eigenvalues --    0.24502   0.28180   0.30065   0.30797   0.38863

  Beta  occ. eigenvalues --  -10.03269 -10.03056  -0.59769  -0.41028  -0.27878
  Beta  occ. eigenvalues --   -0.26435  -0.25398
  Beta virt. eigenvalues --    0.05862   0.08769   0.10495   0.11542   0.13749
  Beta virt. eigenvalues --    0.13824   0.19224   0.20256   0.21105   0.21156
  Beta virt. eigenvalues --    0.22763   0.23812   0.24734   0.25835   0.29625

 Mulliken charges and spin densities:
               1          2
     1  C   -1.002894   2.604370
     2  C    3.653357  -4.009979
     3  H   -0.969132   1.136969
     4  H   -1.036713   1.248525
     5  H   -1.036713   1.248525
     6  H   -0.607905   0.771588
 Sum of Mulliken charges =  -1.00000   3.00000

 Dipole moment (field-independent basis, Debye):
    X=             -1.3200    Y=              3.0840    Z=              0.0000  Tot=              3.3546
 Quadrupole moment (field-independent basis, Debye-Ang):
   XX=            -40.7176   YY=            -40.7891   ZZ=            -38.6351
   XY=             -0.7623   XZ=              0.0000   YZ=             -0.0000

  Exact polarizability:1087.663 500.4781405.315  -0.000   0.000 862.230
 Approx polarizability: 774.858 301.095 803.631  -0.000  -0.000 638.117

                      1                      2                      3
                     A"                     A'                     A"
 Frequencies --    160.1154               736.5866               985.7051
 Red. masses --      1.1133                 1.0645                 1.3356
 Frc consts  --      0.0168                 0.3403                 0.7646
 IR Inten    --    121.7919                78.7592                20.1764

                      4                      5                      6
                     A'                     A'                     A'
 Frequencies --   1052.3831              1099.0840              1365.9565
 Red. masses --      1.4783                 4.7325                 1.2006
 Frc consts  --      0.9646                 3.3682                 1.3198
 IR Inten    --    113.6643                31.9555               755.2643

                      7                      8                      9
                     A'                     A"                     A'
 Frequencies --   1431.0084              1433.9426              2895.0545
 Red. masses --      1.0409                 1.0411                 1.0384
 Frc consts  --      1.2559                 1.2613                 5.1279
 IR Inten    --    705.8606               715.2692                 1.9347

                     10                     11                     12
                     A"                     A'                     A'
 Frequencies --   2950.1213              2994.4727              3199.4982
 Red. masses --      1.0966                 1.0906                 1.0905
 Frc consts  --      5.6232                 5.7616                 6.5769
 IR Inten    --      6.1038               163.7246                 6.3405

 - Thermochemistry -
 -------------------
 Temperature   298.150 Kelvin.  Pressure   1.00000 Atm.
 Atom     1 has atomic number  6 and mass  12.00000

 Molecular mass:    28.03130 amu.
 Principal axes and moments of inertia in atomic units:
                           1         2         3
     Eigenvalues --    12.88227  73.20837  74.83467
           X            0.07114   0.99747   0.00000
           Y            0.99747  -0.07114   0.00000
           Z           -0.00000  -0.00000   1.00000
 This molecule is an asymmetric top.
 Rotational symmetry number  1.
 Rotational temperatures (Kelvin)      6.72349     1.18311     1.15740
 Rotational constants (GHZ):         140.09497    24.65212    24.11638
 Zero-point vibrational energy     121444.5 (Joules/Mol)
                                   29.02592 (Kcal/Mol)
 Warning -- explicit consideration of   1 degrees of freedom as
           vibrations may cause significant error
 Vibrational temperatures:    230.37  1059.78  1418.21  1514.14  1581.33
          (Kelvin)           1965.30  2058.90  2063.12  4165.33  4244.56
                             4308.37  4603.36

 Zero-point correction=                           0.046256 (Hartree/Particle)
 Thermal correction to Energy=                    0.049929
 Thermal correction to Enthalpy=                  0.050873
 Thermal correction to Gibbs Free Energy=         0.022041
 Sum of electronic and zero-point Energies=            -78.432792
 Sum of electronic and thermal Energies=               -78.429120
 Sum of electronic and thermal Enthalpies=             -78.428175
 Sum of electronic and thermal Free Energies=          -78.457007

                     E (Thermal)             CV                S
                      KCal/Mol        Cal/Mol-Kelvin    Cal/Mol-Kelvin
 Total                   31.331              9.920             60.681
 Electronic               0.000              0.000              2.755
 Translational            0.889              2.981             35.927
 Rotational               0.889              2.981             18.896
 Vibrational             29.553              3.958              3.103
 Vibration     1          0.622              1.891              2.548

 Optimization completed.
    -- Stationary point found.
 Normal termination of Gaussian 09 at Wed Mar  6 06:07:54 2019.
