 Gaussian 09, Revision E.01,
 Gaussian 09:  EM64L-G09RevE.01 30-Nov-2015

 -------------------------------------------------
 #p b3lyp/6-311++G(3df,2p) opt freq symmetry=Loose
 -------------------------------------------------

 ---
 opt
 ---
 Symbolic Z-matrix:
 Charge = -1 Multiplicity = 4

 SCF Done:  E(UB3LYP) =  -78.4789921374     A.U. after   17 cycles
 SCF Done:  E(UB3LYP) =  -78.4790426565     A.U. after   16 cycles
 SCF Done:  E(UB3LYP) =  -78.4790478467     A.U. after   15 cycles
 Optimization completed.
    -- Stationary point found.
 Normal termination of Gaussian 09 at Tue Feb  5 19:36:41 2019.

 ----------------------------------------------------------------------
 #P Geom=AllCheck Guess=TCheck SCRF=Check GenChk UB3LYP/6-311++G(3df,2p
 ) Freq
 ----------------------------------------------------------------------

 Structure from the checkpoint file:  "/scratch/sergio/H4C2.q-1.m4-3.com-4947370/Gau-14983.chk"
 ---
 opt
 ---
 Charge = -1 Multiplicity = 4

                         Standard orientation:
 ---------------------------------------------------------------------
 Center     Atomic      Atomic             Coordinates (Angstroms)
 Number     Number       Type             X           Y           Z
 ---------------------------------------------------------------------
      1          6           0        0.047440    0.850383    0.000000
      2          6           0        0.047440   -0.608140   -0.000000
      3          1           0       -0.459267   -1.023886    0.884239
      4          1           0        1.062299   -1.022301    0.000000
      5          1           0       -0.459267   -1.023886   -0.884239
      6          1           0       -0.713048    1.616612   -0.000000
 ---------------------------------------------------------------------

 SCF Done:  E(UB3LYP) =  -78.4790478467     A.U. after    1 cycles

 The electronic state is 4-A".
 Alpha  occ. eigenvalues --  -10.06047 -10.03099  -0.62531  -0.46146  -0.30054
 Alpha  occ. eigenvalues --   -0.28351  -0.26956  -0.10882  -0.07149   0.06646
 Alpha virt. eigenvalues --    0.10043   0.11684   0.11866   0.17964   0.19081
 Alpha virt. eigenvalues --    0.19453   0.20191   0.21361   0.23243   0.23859
 Alpha virt. eigenvalues --    0.24503   0.28181   0.30067   0.30801   0.38857

  Beta  occ. eigenvalues --  -10.03269 -10.03053  -0.59767  -0.41028  -0.27867
  Beta  occ. eigenvalues --   -0.26445  -0.25404
  Beta virt. eigenvalues --    0.05859   0.08773   0.10496   0.11544   0.13749
  Beta virt. eigenvalues --    0.13825   0.19223   0.20257   0.21105   0.21152
  Beta virt. eigenvalues --    0.22762   0.23814   0.24734   0.25837   0.29625

 Mulliken charges and spin densities:
               1          2
     1  C   -1.002316   2.603824
     2  C    3.653137  -4.009625
     3  H   -1.036623   1.248390
     4  H   -0.969136   1.136863
     5  H   -1.036623   1.248390
     6  H   -0.608438   0.772158
 Sum of Mulliken charges =  -1.00000   3.00000

 Dipole moment (field-independent basis, Debye):
    X=              1.3218    Y=              3.0801    Z=              0.0000  Tot=              3.3517
 Quadrupole moment (field-independent basis, Debye-Ang):
   XX=            -40.7228   YY=            -40.7822   ZZ=            -38.6349
   XY=              0.7668   XZ=             -0.0000   YZ=             -0.0000

  Exact polarizability:1087.721-500.5001404.010  -0.000  -0.000 862.212
 Approx polarizability: 775.130-301.501 803.256  -0.000  -0.000 638.108

                      1                      2                      3
                     A"                     A'                     A"
 Frequencies --    156.6439               735.8342               985.3200
 Red. masses --      1.1131                 1.0644                 1.3353
 Frc consts  --      0.0161                 0.3396                 0.7638
 IR Inten    --    121.7632                78.3787                20.0311

                      4                      5                      6
                     A'                     A'                     A'
 Frequencies --   1052.2729              1098.1902              1365.3324
 Red. masses --      1.4803                 4.7182                 1.2000
 Frc consts  --      0.9657                 3.3526                 1.3180
 IR Inten    --    112.5301                32.4047               754.3626

                      7                      8                      9
                     A'                     A"                     A'
 Frequencies --   1430.8394              1433.8923              2897.0450
 Red. masses --      1.0409                 1.0411                 1.0383
 Frc consts  --      1.2556                 1.2612                 5.1343
 IR Inten    --    706.2211               715.5682                 2.0540

                     10                     11                     12
                     A"                     A'                     A'
 Frequencies --   2952.5422              2996.2937              3200.4962
 Red. masses --      1.0967                 1.0907                 1.0904
 Frc consts  --      5.6327                 5.7694                 6.5809
 IR Inten    --      6.2309               162.7025                 6.3767

 - Thermochemistry -
 -------------------
 Temperature   298.150 Kelvin.  Pressure   1.00000 Atm.
 Atom     1 has atomic number  6 and mass  12.00000

 Molecular mass:    28.03130 amu.
 Principal axes and moments of inertia in atomic units:
                           1         2         3
     Eigenvalues --    12.88408  73.21926  74.84737
           X           -0.07118   0.99746  -0.00000
           Y            0.99746   0.07118  -0.00000
           Z            0.00000   0.00000   1.00000
 This molecule is an asymmetric top.
 Rotational symmetry number  1.
 Rotational temperatures (Kelvin)      6.72255     1.18294     1.15721
 Rotational constants (GHZ):         140.07533    24.64845    24.11228
 Zero-point vibrational energy     121449.1 (Joules/Mol)
                                   29.02703 (Kcal/Mol)
 Warning -- explicit consideration of   1 degrees of freedom as
           vibrations may cause significant error
 Vibrational temperatures:    225.38  1058.70  1417.65  1513.98  1580.05
          (Kelvin)           1964.41  2058.66  2063.05  4168.20  4248.04
                             4310.99  4604.79

 Zero-point correction=                           0.046258 (Hartree/Particle)
 Thermal correction to Energy=                    0.049937
 Thermal correction to Enthalpy=                  0.050881
 Thermal correction to Gibbs Free Energy=         0.022029
 Sum of electronic and zero-point Energies=            -78.432790
 Sum of electronic and thermal Energies=               -78.429111
 Sum of electronic and thermal Enthalpies=             -78.428167
 Sum of electronic and thermal Free Energies=          -78.457019

                     E (Thermal)             CV                S
                      KCal/Mol        Cal/Mol-Kelvin    Cal/Mol-Kelvin
 Total                   31.336              9.927             60.724
 Electronic               0.000              0.000              2.755
 Translational            0.889              2.981             35.927
 Rotational               0.889              2.981             18.896
 Vibrational             29.558              3.965              3.146
 Vibration     1          0.620              1.895              2.590

 Optimization completed.
    -- Stationary point found.
 Normal termination of Gaussian 09 at Tue Feb  5 19:38:45 2019.
