 Gaussian 09, Revision E.01,
 Gaussian 09:  EM64L-G09RevE.01 30-Nov-2015

 ------------------------------------------------------
 #p b3lyp/6-311++G(3df,2p) freq IOp(2/17=3) IOp(2/18=3)
 ------------------------------------------------------

 ---------
 b3lyp opt
 ---------
 Symbolic Z-matrix:
 Charge = -1 Multiplicity = 2

                         Standard orientation:
 ---------------------------------------------------------------------
 Center     Atomic      Atomic             Coordinates (Angstroms)
 Number     Number       Type             X           Y           Z
 ---------------------------------------------------------------------
      1          6           0       -0.000000    0.000000    0.701097
      2          6           0        0.000000   -0.000000   -0.701097
      3          1           0       -0.000000    0.918871    1.276302
      4          1           0        0.000000   -0.918871    1.276302
      5          1           0       -0.000000   -0.918871   -1.276302
      6          1           0        0.000000    0.918871   -1.276302
 ---------------------------------------------------------------------

 SCF Done:  E(UB3LYP) =  -78.5621834168     A.U. after   13 cycles

 The electronic state is 2-B2G.
 Alpha  occ. eigenvalues --   -9.93648  -9.93607  -0.51749  -0.36515  -0.23786
 Alpha  occ. eigenvalues --   -0.18743  -0.14268  -0.05408   0.12449
 Alpha virt. eigenvalues --    0.13194   0.13868   0.14810   0.16141   0.21425
 Alpha virt. eigenvalues --    0.22310   0.25654   0.25773   0.26813   0.28103
 Alpha virt. eigenvalues --    0.29246   0.30228   0.32203   0.34457   0.34522

  Beta  occ. eigenvalues --   -9.93216  -9.93171  -0.50649  -0.35150  -0.23458
  Beta  occ. eigenvalues --   -0.18344  -0.13942  -0.02171
  Beta virt. eigenvalues --    0.13269   0.14021   0.14706   0.16047   0.18956
  Beta virt. eigenvalues --    0.22082   0.22331   0.25707   0.26901   0.28909
  Beta virt. eigenvalues --    0.29024   0.29064   0.30523   0.32446   0.34303

 Mulliken charges and spin densities:
               1          2
     1  C   -0.654367   0.542517
     2  C   -0.654367   0.542517
     3  H    0.077184  -0.021259
     4  H    0.077184  -0.021259
     5  H    0.077184  -0.021259
     6  H    0.077184  -0.021259
 Sum of Mulliken charges =  -1.00000   1.00000

 Dipole moment (field-independent basis, Debye):
    X=             -0.0000    Y=              0.0000    Z=             -0.0000  Tot=              0.0000
 Quadrupole moment (field-independent basis, Debye-Ang):
   XX=            -28.4805   YY=            -18.5595   ZZ=            -27.1294
   XY=             -0.0000   XZ=              0.0000   YZ=              0.0000

  Exact polarizability: -19.466   0.000  33.594   0.000   0.000 137.538
 Approx polarizability: 349.491   0.000  44.425   0.000   0.000 107.340

                      1                      2                      3
                     B2G                    B3U                    AU
 Frequencies --    193.1709               388.5244               555.8588
 Red. masses --      1.4988                 1.1607                 1.0078
 Frc consts  --      0.0330                 0.1032                 0.1835
 IR Inten    --      0.0000               497.9573                 0.0000

                      4                      5                      6
                     B2U                    B3G                    AG
 Frequencies --    783.3814              1181.2273              1182.1081
 Red. masses --      1.0436                 1.4984                 2.5315
 Frc consts  --      0.3773                 1.2318                 2.0842
 IR Inten    --      0.0760                 0.0000                 0.0000

                      7                      8                      9
                     B1U                    AG                     B1U
 Frequencies --   1437.5817              1498.4004              3096.1427
 Red. masses --      1.1128                 1.3699                 1.0470
 Frc consts  --      1.3549                 1.8122                 5.9135
 IR Inten    --      0.0236                 0.0000                56.9439

                     10                     11                     12
                     AG                     B3G                    B2U
 Frequencies --   3116.1912              3153.2258              3183.8160
 Red. masses --      1.0607                 1.1101                 1.1167
 Frc consts  --      6.0685                 6.5034                 6.6691
 IR Inten    --      0.0000                 0.0000               127.6915

 - Thermochemistry -
 -------------------
 Temperature   298.150 Kelvin.  Pressure   1.00000 Atm.
 Atom     1 has atomic number  6 and mass  12.00000

 Molecular mass:    28.03130 amu.
 Principal axes and moments of inertia in atomic units:
                           1         2         3
     Eigenvalues --    12.15493  65.57780  77.73273
           X           -0.00000   0.00000   1.00000
           Y            0.00000   1.00000  -0.00000
           Z            1.00000  -0.00000   0.00000
 This molecule is an asymmetric top.
 Rotational symmetry number  4.
 Rotational temperatures (Kelvin)      7.12582     1.32078     1.11425
 Rotational constants (GHZ):         148.47818    27.52061    23.21726
 Zero-point vibrational energy     118248.6 (Joules/Mol)
                                   28.26210 (Kcal/Mol)
 Warning -- explicit consideration of   3 degrees of freedom as
           vibrations may cause significant error
 Vibrational temperatures:    277.93   559.00   799.76  1127.11  1699.52
          (Kelvin)           1700.79  2068.36  2155.86  4454.65  4483.50
                             4536.78  4580.80

 Zero-point correction=                           0.045039 (Hartree/Particle)
 Thermal correction to Energy=                    0.049080
 Thermal correction to Enthalpy=                  0.050024
 Thermal correction to Gibbs Free Energy=         0.022757
 Sum of electronic and zero-point Energies=            -78.517145
 Sum of electronic and thermal Energies=               -78.513103
 Sum of electronic and thermal Enthalpies=             -78.512159
 Sum of electronic and thermal Free Energies=          -78.539427

                     E (Thermal)             CV                S
                      KCal/Mol        Cal/Mol-Kelvin    Cal/Mol-Kelvin
 Total                   30.798             11.714             57.389
 Electronic               0.000              0.000              1.377
 Translational            0.889              2.981             35.927
 Rotational               0.889              2.981             16.012
 Vibrational             29.021              5.753              4.073
 Vibration     1          0.635              1.849              2.197
 Vibration     2          0.757              1.495              1.006
 Vibration     3          0.911              1.127              0.532

 Optimization completed.
    -- Stationary point found.
 Normal termination of Gaussian 09 at Wed Mar  6 06:06:58 2019.
