 Gaussian 09, Revision E.01,
 Gaussian 09:  EM64L-G09RevE.01 30-Nov-2015

 ------------------------------------------------------
 #p b3lyp/6-311++G(3df,2p) freq IOp(2/17=3) IOp(2/18=3)
 ------------------------------------------------------

 ---------
 b3lyp opt
 ---------
 Symbolic Z-matrix:
 Charge = -1 Multiplicity = 4

                         Standard orientation:
 ---------------------------------------------------------------------
 Center     Atomic      Atomic             Coordinates (Angstroms)
 Number     Number       Type             X           Y           Z
 ---------------------------------------------------------------------
      1          6           0        0.000000   -0.000000    0.721099
      2          6           0        0.000000    0.000000   -0.721099
      3          1           0        0.000000    0.920463    1.299339
      4          1           0        0.000000   -0.920463    1.299339
      5          1           0       -0.920463    0.000000   -1.299339
      6          1           0        0.920463    0.000000   -1.299339
 ---------------------------------------------------------------------

 SCF Done:  E(UB3LYP) =  -78.4880979219     A.U. after   12 cycles

 The electronic state is 4-A1.
 Alpha  occ. eigenvalues --  -10.04271 -10.04240  -0.62287  -0.46779  -0.29765
 Alpha  occ. eigenvalues --   -0.29765  -0.28342  -0.07534  -0.07534   0.06775
 Alpha virt. eigenvalues --    0.10169   0.11009   0.11009   0.18629   0.19229
 Alpha virt. eigenvalues --    0.19229   0.19462   0.23950   0.24504   0.25434
 Alpha virt. eigenvalues --    0.25434   0.25888   0.31008   0.33207   0.33207

  Beta  occ. eigenvalues --  -10.02927 -10.02893  -0.57790  -0.42802  -0.27367
  Beta  occ. eigenvalues --   -0.27367  -0.26421
  Beta virt. eigenvalues --    0.06835   0.06835   0.10454   0.11924   0.12892
  Beta virt. eigenvalues --    0.12892   0.19237   0.20181   0.21496   0.21496
  Beta virt. eigenvalues --    0.24902   0.25692   0.26123   0.26123   0.27968

 Mulliken charges and spin densities:
               1          2
     1  C    1.078026  -0.380526
     2  C    1.078026  -0.380526
     3  H   -0.789013   0.940263
     4  H   -0.789013   0.940263
     5  H   -0.789013   0.940263
     6  H   -0.789013   0.940263
 Sum of Mulliken charges =  -1.00000   3.00000

 Dipole moment (field-independent basis, Debye):
    X=              0.0000    Y=             -0.0000    Z=              0.0000  Tot=              0.0000
 Quadrupole moment (field-independent basis, Debye-Ang):
   XX=            -38.9312   YY=            -38.9312   ZZ=            -41.6537
   XY=              0.0000   XZ=              0.0000   YZ=             -0.0000

  Exact polarizability:1198.083  -0.0001198.083   0.000   0.0001727.193
 Approx polarizability: 760.174  -0.000 760.174  -0.000   0.0001130.096

                      1                      2                      3
                      E                      E                     B1
 Frequencies --    400.2015               400.2015               722.8649
 Red. masses --      1.2069                 1.2069                 1.0078
 Frc consts  --      0.1139                 0.1139                 0.3103
 IR Inten    --    406.9585               406.9585                 0.0000

                      4                      5                      6
                      E                      E                     A1
 Frequencies --    916.8705               916.8705              1132.1746
 Red. masses --      1.3333                 1.3333                 3.5595
 Frc consts  --      0.6604                 0.6604                 2.6882
 IR Inten    --    133.1896               133.1896                 0.0000

                      7                      8                      9
                     B2                     A1                     B2
 Frequencies --   1405.5654              1424.4963              3039.2569
 Red. masses --      1.1105                 1.1969                 1.0490
 Frc consts  --      1.2926                 1.4310                 5.7092
 IR Inten    --    530.9001                 0.0000               628.3101

                     10                     11                     12
                     A1                      E                      E
 Frequencies --   3042.0688              3135.9390              3135.9390
 Red. masses --      1.0511                 1.1126                 1.1126
 Frc consts  --      5.7311                 6.4463                 6.4463
 IR Inten    --      0.0000                 8.1324                 8.1324

 - Thermochemistry -
 -------------------
 Temperature   298.150 Kelvin.  Pressure   1.00000 Atm.
 Atom     1 has atomic number  6 and mass  12.00000

 Molecular mass:    28.03130 amu.
 Principal axes and moments of inertia in atomic units:
                           1         2         3
     Eigenvalues --    12.19707  74.96860  74.96860
           X           -0.00000   0.99675   0.08052
           Y           -0.00000  -0.08052   0.99675
           Z            1.00000   0.00000   0.00000
 This molecule is a prolate symmetric top.
 Rotational symmetry number  4.
 Rotational temperatures (Kelvin)      7.10120     1.15533     1.15533
 Rotational constants (GHZ):         147.96518    24.07330    24.07330
 Zero-point vibrational energy     117667.4 (Joules/Mol)
                                   28.12318 (Kcal/Mol)
 Warning -- explicit consideration of   2 degrees of freedom as
           vibrations may cause significant error
 Vibrational temperatures:    575.80   575.80  1040.04  1319.17  1319.17
          (Kelvin)           1628.94  2022.29  2049.53  4372.81  4376.85
                             4511.91  4511.91

 Zero-point correction=                           0.044817 (Hartree/Particle)
 Thermal correction to Energy=                    0.048509
 Thermal correction to Enthalpy=                  0.049453
 Thermal correction to Gibbs Free Energy=         0.022206
 Sum of electronic and zero-point Energies=            -78.443281
 Sum of electronic and thermal Energies=               -78.439589
 Sum of electronic and thermal Enthalpies=             -78.438645
 Sum of electronic and thermal Free Energies=          -78.465892

                     E (Thermal)             CV                S
                      KCal/Mol        Cal/Mol-Kelvin    Cal/Mol-Kelvin
 Total                   30.440             11.097             57.347
 Electronic               0.000              0.000              2.755
 Translational            0.889              2.981             35.927
 Rotational               0.889              2.981             16.112
 Vibrational             28.662              5.136              2.554
 Vibration     1          0.766              1.470              0.962
 Vibration     2          0.766              1.470              0.962

 Optimization completed.
    -- Stationary point found.
 Normal termination of Gaussian 09 at Wed Mar  6 06:08:45 2019.
