 Gaussian 09, Revision E.01,
 Gaussian 09:  EM64L-G09RevE.01 30-Nov-2015

 -------------------------------------------------
 #p b3lyp/6-311++G(3df,2p) opt freq symmetry=Loose
 -------------------------------------------------

 ---
 opt
 ---
 Symbolic Z-matrix:
 Charge = -1 Multiplicity = 2

 SCF Done:  E(UB3LYP) =  -78.5069778341     A.U. after   20 cycles
 SCF Done:  E(UB3LYP) =  -78.5192974487     A.U. after   17 cycles
 SCF Done:  E(UB3LYP) =  -78.5204194393     A.U. after   14 cycles
 SCF Done:  E(UB3LYP) =  -78.5206350381     A.U. after   15 cycles
 SCF Done:  E(UB3LYP) =  -78.5209453657     A.U. after   15 cycles
 SCF Done:  E(UB3LYP) =  -78.5209791599     A.U. after   13 cycles
 SCF Done:  E(UB3LYP) =  -78.5209891105     A.U. after   13 cycles
 Optimization completed.
    -- Stationary point found.
 Normal termination of Gaussian 09 at Tue Feb  5 19:28:49 2019.

 ----------------------------------------------------------------------
 #P Geom=AllCheck Guess=TCheck SCRF=Check GenChk UB3LYP/6-311++G(3df,2p
 ) Freq
 ----------------------------------------------------------------------

 Structure from the checkpoint file:  "/scratch/sergio/H4C2.q-1.m2-1.com-4947361/Gau-13811.chk"
 ---
 opt
 ---
 Charge = -1 Multiplicity = 2

                         Standard orientation:
 ---------------------------------------------------------------------
 Center     Atomic      Atomic             Coordinates (Angstroms)
 Number     Number       Type             X           Y           Z
 ---------------------------------------------------------------------
      1          6           0       -0.902377   -0.188517    0.000069
      2          6           0        0.606815    0.013200    0.000012
      3          1           0        1.156171   -0.936988    0.001580
      4          1           0        0.986000    0.580246    0.880779
      5          1           0        0.985788    0.577082   -0.882696
      6          1           0       -1.354588    0.831561   -0.000149
 ---------------------------------------------------------------------

 SCF Done:  E(UB3LYP) =  -78.5209891105     A.U. after    1 cycles

 The electronic state is 2-A.
 Alpha  occ. eigenvalues --   -9.96104  -9.91221  -0.51811  -0.34179  -0.20522
 Alpha  occ. eigenvalues --   -0.20194  -0.12451   0.02786   0.05691
 Alpha virt. eigenvalues --    0.12169   0.14800   0.15062   0.16347   0.21711
 Alpha virt. eigenvalues --    0.23671   0.23763   0.24410   0.25739   0.26730
 Alpha virt. eigenvalues --    0.28500   0.29890   0.33926   0.34687   0.37666

  Beta  occ. eigenvalues --   -9.96182  -9.89993  -0.50922  -0.31645  -0.20176
  Beta  occ. eigenvalues --   -0.19244  -0.11822   0.04723
  Beta virt. eigenvalues --    0.12240   0.14830   0.15108   0.16370   0.17576
  Beta virt. eigenvalues --    0.21744   0.23708   0.23838   0.24913   0.26773
  Beta virt. eigenvalues --    0.28387   0.28539   0.30567   0.34455   0.34781

 Mulliken charges and spin densities:
               1          2
     1  C   -1.019766   1.087287
     2  C   -0.054350  -0.071985
     3  H    0.097553  -0.010336
     4  H   -0.045441   0.013982
     5  H   -0.045302   0.014098
     6  H    0.067306  -0.033047
 Sum of Mulliken charges =  -1.00000   1.00000

 Dipole moment (field-independent basis, Debye):
    X=              4.0958    Y=              2.1229    Z=             -0.0008  Tot=              4.6132
 Quadrupole moment (field-independent basis, Debye-Ang):
   XX=            -28.3454   YY=            -22.2018   ZZ=            -21.5157
   XY=             -4.4183   XZ=              0.0007   YZ=             -0.0013

  Exact polarizability:  97.684  20.733  63.012  -0.006   0.013  68.266
 Approx polarizability: 102.183  16.786  71.997  -0.006   0.010  71.674

                      1                      2                      3
                      A                      A                      A
 Frequencies --    311.7830               855.1916               877.1332
 Red. masses --      1.1086                 1.2270                 1.1883
 Frc consts  --      0.0635                 0.5287                 0.5387
 IR Inten    --     89.7572                 3.1849                11.1058

                      4                      5                      6
                      A                      A                      A
 Frequencies --    913.1555              1195.1092              1322.3624
 Red. masses --      4.1662                 1.3389                 1.1646
 Frc consts  --      2.0468                 1.1267                 1.1999
 IR Inten    --     51.4685                14.3891                19.0549

                      7                      8                      9
                      A                      A                      A
 Frequencies --   1445.0161              1464.6595              2716.6056
 Red. masses --      1.0526                 1.0671                 1.0952
 Frc consts  --      1.2949                 1.3487                 4.7619
 IR Inten    --      1.8105                 3.8127               220.6955

                     10                     11                     12
                      A                      A                      A
 Frequencies --   2733.3996              2776.4150              2940.9701
 Red. masses --      1.0661                 1.0617                 1.0762
 Frc consts  --      4.6932                 4.8220                 5.4842
 IR Inten    --    501.8863               605.4708                67.6477

 - Thermochemistry -
 -------------------
 Temperature   298.150 Kelvin.  Pressure   1.00000 Atm.
 Atom     1 has atomic number  6 and mass  12.00000

 Molecular mass:    28.03130 amu.
 Principal axes and moments of inertia in atomic units:
                           1         2         3
     Eigenvalues --    14.83424  74.49900  78.14085
           X            0.99822  -0.05965   0.00001
           Y            0.05965   0.99822   0.00004
           Z           -0.00002  -0.00004   1.00000
 This molecule is an asymmetric top.
 Rotational symmetry number  1.
 Rotational temperatures (Kelvin)      5.83878     1.16262     1.10843
 Rotational constants (GHZ):         121.66050    24.22504    23.09600
 Zero-point vibrational energy     116945.7 (Joules/Mol)
                                   27.95070 (Kcal/Mol)
 Warning -- explicit consideration of   1 degrees of freedom as
           vibrations may cause significant error
 Vibrational temperatures:    448.59  1230.43  1262.00  1313.83  1719.49
          (Kelvin)           1902.58  2079.05  2107.32  3908.58  3932.75
                             3994.64  4231.39

 Zero-point correction=                           0.044542 (Hartree/Particle)
 Thermal correction to Energy=                    0.047994
 Thermal correction to Enthalpy=                  0.048938
 Thermal correction to Gibbs Free Energy=         0.021237
 Sum of electronic and zero-point Energies=            -78.476447
 Sum of electronic and thermal Energies=               -78.472995
 Sum of electronic and thermal Enthalpies=             -78.472051
 Sum of electronic and thermal Free Energies=          -78.499752

                     E (Thermal)             CV                S
                      KCal/Mol        Cal/Mol-Kelvin    Cal/Mol-Kelvin
 Total                   30.117              9.714             58.302
 Electronic               0.000              0.000              1.377
 Translational            0.889              2.981             35.927
 Rotational               0.889              2.981             19.096
 Vibrational             28.339              3.753              1.901
 Vibration     1          0.700              1.651              1.353

 Optimization completed.
    -- Stationary point found.
 Normal termination of Gaussian 09 at Tue Feb  5 19:31:59 2019.
