 Gaussian 09, Revision E.01,
 Gaussian 09:  EM64L-G09RevE.01 30-Nov-2015

 ------------------------------------------------------
 #p b3lyp/6-311++G(3df,2p) freq IOp(2/17=3) IOp(2/18=3)
 ------------------------------------------------------

 ---------
 b3lyp opt
 ---------
 Symbolic Z-matrix:
 Charge = -1 Multiplicity = 2

                         Standard orientation:
 ---------------------------------------------------------------------
 Center     Atomic      Atomic             Coordinates (Angstroms)
 Number     Number       Type             X           Y           Z
 ---------------------------------------------------------------------
      1          6           0       -0.768269    0.999834   -0.168225
      2          6           0        0.143008    0.029348    0.474245
      3          6           0       -1.096896   -0.509246   -0.152898
      4          1           0        1.483629    0.500808   -0.799781
      5          1           0       -1.025663   -1.061699   -1.091597
      6          1           0        0.253934   -0.035471    1.559162
      7          1           0       -1.872913   -0.916849    0.506077
      8          8           0        1.436744   -0.200801   -0.136574
 ---------------------------------------------------------------------

 SCF Done:  E(UB3LYP) =  -191.878934332     A.U. after   18 cycles

 The electronic state is 2-A.
 Alpha  occ. eigenvalues --  -18.94167 -10.01509  -9.96951  -9.94218  -0.83306
 Alpha  occ. eigenvalues --   -0.62762  -0.40587  -0.36954  -0.28820  -0.23330
 Alpha  occ. eigenvalues --   -0.20791  -0.19355  -0.11196  -0.07323  -0.00617
 Alpha  occ. eigenvalues --    0.02895
 Alpha virt. eigenvalues --    0.12530   0.13457   0.13748   0.15491   0.17978
 Alpha virt. eigenvalues --    0.20997   0.21786   0.22709   0.22988   0.24476
 Alpha virt. eigenvalues --    0.25502   0.26212   0.27567   0.28237   0.28865

  Beta  occ. eigenvalues --  -18.94004 -10.01563  -9.97002  -9.93048  -0.82881
  Beta  occ. eigenvalues --   -0.61601  -0.40361  -0.35762  -0.28105  -0.22712
  Beta  occ. eigenvalues --   -0.19829  -0.18749  -0.10424  -0.06484   0.00636
  Beta virt. eigenvalues --    0.12306   0.13132   0.13524   0.15095   0.15841
  Beta virt. eigenvalues --    0.18349   0.21013   0.21773   0.22830   0.23137
  Beta virt. eigenvalues --    0.24922   0.25537   0.26667   0.27705   0.28424

 Mulliken charges and spin densities:
               1          2
     1  C   -0.757027   1.004944
     2  C    0.489358  -0.039897
     3  C   -0.347789  -0.145082
     4  H    0.142306   0.021241
     5  H    0.082198   0.023996
     6  H    0.060381   0.042113
     7  H    0.009043   0.067317
     8  O   -0.678469   0.025367
 Sum of Mulliken charges =  -1.00000   1.00000

 Dipole moment (field-independent basis, Debye):
    X=              1.4282    Y=             -2.9805    Z=              0.7228  Tot=              3.3831
 Quadrupole moment (field-independent basis, Debye-Ang):
   XX=            -37.3540   YY=            -39.1091   ZZ=            -29.4274
   XY=              5.8133   XZ=             -2.0663   YZ=              1.6578

  Exact polarizability:  83.300   2.011  80.992  -6.911 -10.549  67.559
 Approx polarizability: 100.724   3.373  98.874  -4.469 -10.781  84.232

                      1                      2                      3
                      A                      A                      A
 Frequencies --    355.1438               367.8371               398.5564
 Red. masses --      1.5236                 1.5703                 3.3857
 Frc consts  --      0.1132                 0.1252                 0.3169
 IR Inten    --     38.9294                17.3945                48.1083

                      4                      5                      6
                      A                      A                      A
 Frequencies --    674.7030               786.5689               821.6029
 Red. masses --      3.3516                 2.0169                 1.3373
 Frc consts  --      0.8989                 0.7352                 0.5319
 IR Inten    --      7.3900                17.4550                15.3501

                      7                      8                      9
                      A                      A                      A
 Frequencies --    890.1495               953.5347               963.0512
 Red. masses --      2.3010                 1.7262                 3.0921
 Frc consts  --      1.0742                 0.9247                 1.6897
 IR Inten    --     33.1352                45.0394                 7.9550

                     10                     11                     12
                      A                      A                      A
 Frequencies --   1051.3512              1185.9171              1250.8714
 Red. masses --      1.3577                 2.9158                 1.3862
 Frc consts  --      0.8842                 2.4161                 1.2779
 IR Inten    --     55.9302                30.3876                10.0128

                     13                     14                     15
                      A                      A                      A
 Frequencies --   1342.5688              1432.1888              2939.1785
 Red. masses --      1.2232                 1.1467                 1.0630
 Frc consts  --      1.2990                 1.3858                 5.4105
 IR Inten    --     59.5680                 2.9475               231.1491

                     16                     17                     18
                      A                      A                      A
 Frequencies --   2985.3519              3013.3600              3716.4738
 Red. masses --      1.0832                 1.0944                 1.0655
 Frc consts  --      5.6877                 5.8552                 8.6706
 IR Inten    --    140.9862               116.2858                49.6901

 - Thermochemistry -
 -------------------
 Temperature   298.150 Kelvin.  Pressure   1.00000 Atm.
 Atom     1 has atomic number  6 and mass  12.00000

 Molecular mass:    56.02621 amu.
 Principal axes and moments of inertia in atomic units:
                           1         2         3
     Eigenvalues --    92.26900 250.30118 284.29374
           X            0.99670   0.08056  -0.01024
           Y           -0.08034   0.99657   0.02005
           Z            0.01182  -0.01916   0.99975
 This molecule is an asymmetric top.
 Rotational symmetry number  1.
 Rotational temperatures (Kelvin)      0.93871     0.34604     0.30466
 Rotational constants (GHZ):          19.55956     7.21028     6.34816
 Zero-point vibrational energy     150301.3 (Joules/Mol)
                                   35.92286 (Kcal/Mol)
 Warning -- explicit consideration of   3 degrees of freedom as
           vibrations may cause significant error
 Vibrational temperatures:    510.97   529.23   573.43   970.75  1131.70
          (Kelvin)           1182.10  1280.73  1371.92  1385.61  1512.66
                             1706.27  1799.72  1931.65  2060.60  4228.82
                             4295.25  4335.55  5347.17

 Zero-point correction=                           0.057247 (Hartree/Particle)
 Thermal correction to Energy=                    0.061586
 Thermal correction to Enthalpy=                  0.062530
 Thermal correction to Gibbs Free Energy=         0.030566
 Sum of electronic and zero-point Energies=           -191.821688
 Sum of electronic and thermal Energies=              -191.817349
 Sum of electronic and thermal Enthalpies=            -191.816404
 Sum of electronic and thermal Free Energies=         -191.848368

                     E (Thermal)             CV                S
                      KCal/Mol        Cal/Mol-Kelvin    Cal/Mol-Kelvin
 Total                   38.646             15.006             67.273
 Electronic               0.000              0.000              1.377
 Translational            0.889              2.981             37.991
 Rotational               0.889              2.981             23.400
 Vibrational             36.868              9.044              4.505
 Vibration     1          0.731              1.565              1.143
 Vibration     2          0.740              1.538              1.089
 Vibration     3          0.765              1.473              0.968

 Optimization completed.
    -- Stationary point found.
 Normal termination of Gaussian 09 at Thu Mar  7 11:19:53 2019.
