 Gaussian 09, Revision E.01,
 Gaussian 09:  EM64L-G09RevE.01 30-Nov-2015

 ------------------------------------------------------
 #p b3lyp/6-311++G(3df,2p) freq IOp(2/17=3) IOp(2/18=3)
 ------------------------------------------------------

 ---------
 b3lyp opt
 ---------
 Symbolic Z-matrix:
 Charge = -1 Multiplicity = 2

                         Standard orientation:
 ---------------------------------------------------------------------
 Center     Atomic      Atomic             Coordinates (Angstroms)
 Number     Number       Type             X           Y           Z
 ---------------------------------------------------------------------
      1          6           0        1.652903   -0.508771   -0.303720
      2          6           0       -0.605192   -0.023218    0.390659
      3          6           0        0.669439    0.635389    0.015845
      4          1           0       -0.561001   -0.529751    1.383217
      5          1           0        0.528169    1.312259   -0.831294
      6          1           0        1.497183   -1.312811    0.453600
      7          1           0        1.036910    1.228579    0.874541
      8          8           0       -1.600520   -0.164835   -0.312096
 ---------------------------------------------------------------------

 SCF Done:  E(UB3LYP) =  -191.909650069     A.U. after   19 cycles

 The electronic state is 2-A.
 Alpha  occ. eigenvalues --  -18.93565 -10.07234  -9.99277  -9.95149  -0.85723
 Alpha  occ. eigenvalues --   -0.58599  -0.40755  -0.37801  -0.29500  -0.25915
 Alpha  occ. eigenvalues --   -0.22722  -0.20230  -0.15699  -0.08630  -0.00889
 Alpha  occ. eigenvalues --    0.02268
 Alpha virt. eigenvalues --    0.11933   0.13215   0.13921   0.14971   0.16559
 Alpha virt. eigenvalues --    0.18461   0.20961   0.21365   0.22272   0.23466
 Alpha virt. eigenvalues --    0.24499   0.25068   0.25498   0.26882   0.27379

  Beta  occ. eigenvalues --  -18.93508 -10.07204  -9.99340  -9.93905  -0.85627
  Beta  occ. eigenvalues --   -0.57930  -0.39958  -0.35836  -0.29067  -0.25735
  Beta  occ. eigenvalues --   -0.22190  -0.19795  -0.15079  -0.08431   0.01017
  Beta virt. eigenvalues --    0.11907   0.13157   0.13816   0.14503   0.15166
  Beta virt. eigenvalues --    0.17084   0.18585   0.21035   0.21370   0.22302
  Beta virt. eigenvalues --    0.24402   0.24716   0.25504   0.25940   0.26998

 Mulliken charges and spin densities:
               1          2
     1  C   -0.842649   1.086114
     2  C    0.230601   0.011850
     3  C    0.060340  -0.153591
     4  H    0.038153   0.002989
     5  H    0.091616   0.000771
     6  H    0.097901  -0.038606
     7  H    0.024685   0.074969
     8  O   -0.700647   0.015503
 Sum of Mulliken charges =  -1.00000   1.00000

 Dipole moment (field-independent basis, Debye):
    X=             -3.2366    Y=              2.1875    Z=              2.9465  Tot=              4.8931
 Quadrupole moment (field-independent basis, Debye-Ang):
   XX=            -50.9295   YY=            -30.8332   ZZ=            -31.8322
   XY=              3.0561   XZ=              2.8714   YZ=             -1.7809

  Exact polarizability: 101.807  -5.807  62.180 -10.609   2.793  68.669
 Approx polarizability: 152.737 -11.249  80.441 -13.598   2.117  89.927

                      1                      2                      3
                      A                      A                      A
 Frequencies --    180.1827               246.3918               387.8646
 Red. masses --      4.4104                 1.2063                 2.2421
 Frc consts  --      0.0844                 0.0431                 0.1987
 IR Inten    --     29.2415                68.8970                19.5247

                      4                      5                      6
                      A                      A                      A
 Frequencies --    501.4845               825.4691               854.0395
 Red. masses --      2.4827                 1.7486                 6.6708
 Frc consts  --      0.3679                 0.7020                 2.8667
 IR Inten    --     11.9369                 6.0899                10.9236

                      7                      8                      9
                      A                      A                      A
 Frequencies --    909.4959               997.6297              1102.4616
 Red. masses --      1.4496                 1.5627                 1.2566
 Frc consts  --      0.7065                 0.9164                 0.8999
 IR Inten    --      4.0093                25.7803                67.3459

                     10                     11                     12
                      A                      A                      A
 Frequencies --   1161.2950              1233.6849              1392.6677
 Red. masses --      2.0398                 1.1827                 1.1960
 Frc consts  --      1.6208                 1.0605                 1.3667
 IR Inten    --      9.0390                 6.8514                20.2101

                     13                     14                     15
                      A                      A                      A
 Frequencies --   1438.6271              1676.9717              2783.3352
 Red. masses --      1.1285                 7.9068                 1.0773
 Frc consts  --      1.3760                13.1010                 4.9171
 IR Inten    --      0.0528               629.3688                20.9610

                     16                     17                     18
                      A                      A                      A
 Frequencies --   2808.5492              2837.4910              3007.5619
 Red. masses --      1.0780                 1.0742                 1.0847
 Frc consts  --      5.0101                 5.0959                 5.7808
 IR Inten    --    376.8546               216.0044                59.6431

 - Thermochemistry -
 -------------------
 Temperature   298.150 Kelvin.  Pressure   1.00000 Atm.
 Atom     1 has atomic number  6 and mass  12.00000

 Molecular mass:    56.02621 amu.
 Principal axes and moments of inertia in atomic units:
                           1         2         3
     Eigenvalues --    77.47746 339.66248 361.80476
           X            0.99997   0.00570   0.00466
           Y           -0.00456   0.97633  -0.21622
           Z           -0.00578   0.21619   0.97633
 This molecule is an asymmetric top.
 Rotational symmetry number  1.
 Rotational temperatures (Kelvin)      1.11792     0.25500     0.23939
 Rotational constants (GHZ):          23.29376     5.31334     4.98816
 Zero-point vibrational energy     145616.6 (Joules/Mol)
                                   34.80321 (Kcal/Mol)
 Warning -- explicit consideration of   4 degrees of freedom as
           vibrations may cause significant error
 Vibrational temperatures:    259.24   354.50   558.05   721.52  1187.66
          (Kelvin)           1228.77  1308.56  1435.36  1586.19  1670.84
                             1775.00  2003.74  2069.86  2412.79  4004.59
                             4040.87  4082.51  4327.21

 Zero-point correction=                           0.055462 (Hartree/Particle)
 Thermal correction to Energy=                    0.060223
 Thermal correction to Enthalpy=                  0.061168
 Thermal correction to Gibbs Free Energy=         0.028073
 Sum of electronic and zero-point Energies=           -191.854188
 Sum of electronic and thermal Energies=              -191.849427
 Sum of electronic and thermal Enthalpies=            -191.848482
 Sum of electronic and thermal Free Energies=         -191.881577

                     E (Thermal)             CV                S
                      KCal/Mol        Cal/Mol-Kelvin    Cal/Mol-Kelvin
 Total                   37.791             15.318             69.653
 Electronic               0.000              0.000              1.377
 Translational            0.889              2.981             37.991
 Rotational               0.889              2.981             23.769
 Vibrational             36.013              9.357              6.515
 Vibration     1          0.629              1.867              2.327
 Vibration     2          0.661              1.769              1.756
 Vibration     3          0.756              1.496              1.008
 Vibration     4          0.857              1.247              0.654

 Normal termination of Gaussian 09 at Thu Mar  7 11:09:14 2019.
