 Gaussian 09, Revision E.01,
 Gaussian 09:  EM64L-G09RevE.01 30-Nov-2015

 ------------------------------------------------------
 #p b3lyp/6-311++G(3df,2p) freq IOp(2/17=3) IOp(2/18=3)
 ------------------------------------------------------

 ---------
 b3lyp opt
 ---------
 Symbolic Z-matrix:
 Charge = -1 Multiplicity = 4

                         Standard orientation:
 ---------------------------------------------------------------------
 Center     Atomic      Atomic             Coordinates (Angstroms)
 Number     Number       Type             X           Y           Z
 ---------------------------------------------------------------------
      1          6           0       -0.846976    0.361282   -0.340465
      2          6           0        0.509202    0.557897    0.233891
      3          6           0       -1.783550   -0.663513    0.205886
      4          1           0        1.177100   -0.852733   -0.906828
      5          1           0        0.933764    1.502962   -0.135768
      6          1           0        0.464673    0.616004    1.336326
      7          1           0       -1.314491    1.325085   -0.584761
      8          8           0        1.433362   -0.515663   -0.038105
 ---------------------------------------------------------------------

 SCF Done:  E(UB3LYP) =  -191.778442666     A.U. after   24 cycles

 The electronic state is 4-A.
 Alpha  occ. eigenvalues --  -18.96818 -10.05988 -10.02091  -9.99097  -0.86316
 Alpha  occ. eigenvalues --   -0.60186  -0.48470  -0.37661  -0.30095  -0.28943
 Alpha  occ. eigenvalues --   -0.28322  -0.19078  -0.14004  -0.10685  -0.09483
 Alpha  occ. eigenvalues --    0.00035   0.06076
 Alpha virt. eigenvalues --    0.10833   0.12205   0.13004   0.14039   0.18678
 Alpha virt. eigenvalues --    0.19154   0.20137   0.21254   0.22279   0.23677
 Alpha virt. eigenvalues --    0.24504   0.24704   0.25152   0.26362   0.27600

  Beta  occ. eigenvalues --  -18.96673 -10.05889 -10.01234  -9.96493  -0.85948
  Beta  occ. eigenvalues --   -0.57688  -0.45644  -0.34923  -0.29006  -0.27468
  Beta  occ. eigenvalues --   -0.25995  -0.18114  -0.12760  -0.05371
  Beta virt. eigenvalues --    0.03861   0.10348   0.12483   0.13204   0.14124
  Beta virt. eigenvalues --    0.14963   0.17320   0.19061   0.19472   0.21112
  Beta virt. eigenvalues --    0.22320   0.23336   0.24491   0.25103   0.25261

 Mulliken charges and spin densities:
               1          2
     1  C   -0.446951   0.933612
     2  C    1.284390  -1.099040
     3  C   -0.729030   2.035577
     4  H    0.046052   0.190102
     5  H   -0.213930   0.324461
     6  H   -0.354487   0.526058
     7  H    0.071856   0.020936
     8  O   -0.657899   0.068294
 Sum of Mulliken charges =  -1.00000   3.00000

 Dipole moment (field-independent basis, Debye):
    X=              3.2249    Y=              2.2015    Z=             -1.7420  Tot=              4.2756
 Quadrupole moment (field-independent basis, Debye-Ang):
   XX=            -51.1342   YY=            -34.8856   ZZ=            -37.5902
   XY=             -4.2988   XZ=              2.7123   YZ=              2.4568

  Exact polarizability: 299.989  69.848 235.669 -64.844  16.469 327.247
 Approx polarizability: 301.457  69.816 193.890 -43.485   5.170 251.615

                      1                      2                      3
                      A                      A                      A
 Frequencies --    125.2398               208.7516               313.8032
 Red. masses --      1.4921                 2.0774                 3.2708
 Frc consts  --      0.0138                 0.0533                 0.1898
 IR Inten    --    157.5006               227.7760                 4.8023

                      4                      5                      6
                      A                      A                      A
 Frequencies --    465.9712               657.4221               705.2428
 Red. masses --      2.0815                 2.1546                 3.3568
 Frc consts  --      0.2663                 0.5487                 0.9837
 IR Inten    --     42.6204               508.6044              1272.3567

                      7                      8                      9
                      A                      A                      A
 Frequencies --    878.8024               972.4761              1044.0805
 Red. masses --      2.6699                 2.2029                 3.4808
 Frc consts  --      1.2149                 1.2274                 2.2356
 IR Inten    --     20.9316               184.7292               421.5396

                     10                     11                     12
                      A                      A                      A
 Frequencies --   1158.0103              1248.7029              1315.3760
 Red. masses --      1.1049                 1.3500                 1.2434
 Frc consts  --      0.8729                 1.2402                 1.2675
 IR Inten    --     69.5089                49.2106                38.0503

                     13                     14                     15
                      A                      A                      A
 Frequencies --   1366.1450              1439.2254              2866.7239
 Red. masses --      1.2334                 1.0745                 1.0639
 Frc consts  --      1.3562                 1.3113                 5.1511
 IR Inten    --     19.1962                66.3511               550.2671

                     16                     17                     18
                      A                      A                      A
 Frequencies --   2921.7897              2945.9206              3709.1551
 Red. masses --      1.0819                 1.0884                 1.0653
 Frc consts  --      5.4419                 5.5654                 8.6353
 IR Inten    --     82.8390                16.3280               551.5186

 - Thermochemistry -
 -------------------
 Temperature   298.150 Kelvin.  Pressure   1.00000 Atm.
 Atom     1 has atomic number  6 and mass  12.00000

 Molecular mass:    56.02621 amu.
 Principal axes and moments of inertia in atomic units:
                           1         2         3
     Eigenvalues --    90.83194 330.39398 381.62827
           X            0.99989  -0.01492   0.00179
           Y            0.01483   0.99902   0.04166
           Z           -0.00241  -0.04163   0.99913
 This molecule is an asymmetric top.
 Rotational symmetry number  1.
 Rotational temperatures (Kelvin)      0.95356     0.26215     0.22696
 Rotational constants (GHZ):          19.86902     5.46239     4.72906
 Zero-point vibrational energy     145602.5 (Joules/Mol)
                                   34.79983 (Kcal/Mol)
 Warning -- explicit consideration of   4 degrees of freedom as
           vibrations may cause significant error
 Vibrational temperatures:    180.19   300.35   451.49   670.43   945.88
          (Kelvin)           1014.69  1264.40  1399.17  1502.20  1666.12
                             1796.60  1892.53  1965.58  2070.72  4124.57
                             4203.80  4238.52  5336.64

 Zero-point correction=                           0.055457 (Hartree/Particle)
 Thermal correction to Energy=                    0.060609
 Thermal correction to Enthalpy=                  0.061553
 Thermal correction to Gibbs Free Energy=         0.026867
 Sum of electronic and zero-point Energies=           -191.722986
 Sum of electronic and thermal Energies=              -191.717834
 Sum of electronic and thermal Enthalpies=            -191.716890
 Sum of electronic and thermal Free Energies=         -191.751575

                     E (Thermal)             CV                S
                      KCal/Mol        Cal/Mol-Kelvin    Cal/Mol-Kelvin
 Total                   38.033             16.453             73.002
 Electronic               0.000              0.000              2.755
 Translational            0.889              2.981             37.991
 Rotational               0.889              2.981             23.953
 Vibrational             36.255             10.491              8.304
 Vibration     1          0.610              1.928              3.018
 Vibration     2          0.642              1.827              2.055
 Vibration     3          0.702              1.647              1.342
 Vibration     4          0.823              1.326              0.749

 Normal termination of Gaussian 09 at Thu Mar  7 11:49:22 2019.
