 Gaussian 09, Revision E.01,
 Gaussian 09:  EM64L-G09RevE.01 30-Nov-2015

 ------------------------------------------------------
 #p b3lyp/6-311++G(3df,2p) freq IOp(2/17=3) IOp(2/18=3)
 ------------------------------------------------------

 ---------
 b3lyp opt
 ---------
 Symbolic Z-matrix:
 Charge = -1 Multiplicity = 4

                         Standard orientation:
 ---------------------------------------------------------------------
 Center     Atomic      Atomic             Coordinates (Angstroms)
 Number     Number       Type             X           Y           Z
 ---------------------------------------------------------------------
      1          6           0        1.015571   -0.607838    0.096682
      2          6           0       -0.236826   -0.041098   -0.471871
      3          6           0        0.850087    0.876235   -0.043605
      4          1           0       -2.032820    0.552232   -0.089711
      5          1           0        1.684322   -1.089687   -0.621355
      6          1           0        1.033177   -1.070303    1.080163
      7          1           0        0.843441    1.588847    0.770893
      8          8           0       -1.412639   -0.168111    0.171596
 ---------------------------------------------------------------------

 SCF Done:  E(UB3LYP) =  -191.801169802     A.U. after   24 cycles

 The electronic state is 4-A.
 Alpha  occ. eigenvalues --  -19.03337 -10.10611 -10.07061 -10.05341  -0.93738
 Alpha  occ. eigenvalues --   -0.73086  -0.47721  -0.47574  -0.39514  -0.33406
 Alpha  occ. eigenvalues --   -0.31103  -0.26248  -0.22285  -0.18224  -0.11954
 Alpha  occ. eigenvalues --   -0.05144   0.06418
 Alpha virt. eigenvalues --    0.08839   0.10161   0.11046   0.15367   0.16804
 Alpha virt. eigenvalues --    0.17980   0.18123   0.18861   0.19874   0.21400
 Alpha virt. eigenvalues --    0.22886   0.23562   0.23992   0.24882   0.25628

  Beta  occ. eigenvalues --  -19.02560 -10.09239 -10.05483 -10.05287  -0.92016
  Beta  occ. eigenvalues --   -0.70932  -0.46258  -0.45208  -0.37741  -0.30732
  Beta  occ. eigenvalues --   -0.29426  -0.22696  -0.20211  -0.15556
  Beta virt. eigenvalues --    0.01803   0.08667   0.09984   0.11137   0.11594
  Beta virt. eigenvalues --    0.12370   0.16074   0.17815   0.18458   0.18591
  Beta virt. eigenvalues --    0.19740   0.21393   0.22069   0.23320   0.23969

 Mulliken charges and spin densities:
               1          2
     1  C    0.694163  -0.990702
     2  C    1.049478   0.163979
     3  C   -0.063815   0.731573
     4  H   -1.054332   1.344548
     5  H   -0.520722   0.711542
     6  H   -0.021737   0.154906
     7  H   -0.482317   0.632958
     8  O   -0.600719   0.251196
 Sum of Mulliken charges =  -1.00000   3.00000

 Dipole moment (field-independent basis, Debye):
    X=              4.1036    Y=             -2.4095    Z=              0.0288  Tot=              4.7588
 Quadrupole moment (field-independent basis, Debye-Ang):
   XX=            -65.1187   YY=            -47.3657   ZZ=            -44.7640
   XY=              7.0946   XZ=              1.4038   YZ=             -1.3240

  Exact polarizability:1622.902-603.0271636.154 -23.581 394.0221151.835
 Approx polarizability:1959.914-651.194 839.083  66.035 120.003 542.105

                      1                      2                      3
                      A                      A                      A
 Frequencies --    333.5537               393.0148               434.2973
 Red. masses --      1.9834                 2.3992                 1.4115
 Frc consts  --      0.1300                 0.2183                 0.1569
 IR Inten    --    605.9184                66.0297              1365.5571

                      4                      5                      6
                      A                      A                      A
 Frequencies --    664.3834               777.6687               827.7025
 Red. masses --      1.0974                 5.5141                 1.2441
 Frc consts  --      0.2854                 1.9648                 0.5022
 IR Inten    --    277.5557               109.6799               671.2932

                      7                      8                      9
                      A                      A                      A
 Frequencies --    895.6164               949.8147               996.9912
 Red. masses --      3.3075                 1.7278                 1.3610
 Frc consts  --      1.5631                 0.9184                 0.7970
 IR Inten    --    243.5957               280.6468                50.3089

                     10                     11                     12
                      A                      A                      A
 Frequencies --   1058.9359              1144.5670              1228.7413
 Red. masses --      1.4705                 2.9014                 1.6709
 Frc consts  --      0.9715                 2.2394                 1.4864
 IR Inten    --    376.1987               137.3826              1151.2890

                     13                     14                     15
                      A                      A                      A
 Frequencies --   1367.2347              1424.8355              2995.1173
 Red. masses --      2.2575                 1.4684                 1.0596
 Frc consts  --      2.4863                 1.7564                 5.6004
 IR Inten    --     74.5535              1687.2237               843.6712

                     16                     17                     18
                      A                      A                      A
 Frequencies --   3106.2334              3156.6390              3264.5377
 Red. masses --      1.1018                 1.0912                 1.0663
 Frc consts  --      6.2637                 6.4061                 6.6956
 IR Inten    --    219.8096               325.2697             13411.9599

 - Thermochemistry -
 -------------------
 Temperature   298.150 Kelvin.  Pressure   1.00000 Atm.
 Atom     1 has atomic number  6 and mass  12.00000

 Molecular mass:    56.02621 amu.
 Principal axes and moments of inertia in atomic units:
                           1         2         3
     Eigenvalues --    87.72020 242.77123 292.05375
           X            0.99790  -0.06328   0.01397
           Y            0.06256   0.99695   0.04675
           Z           -0.01689  -0.04578   0.99881
 This molecule is an asymmetric top.
 Rotational symmetry number  1.
 Rotational temperatures (Kelvin)      0.98739     0.35677     0.29657
 Rotational constants (GHZ):          20.57384     7.43392     6.17948
 Zero-point vibrational energy     149652.1 (Joules/Mol)
                                   35.76772 (Kcal/Mol)
 Warning -- explicit consideration of   3 degrees of freedom as
           vibrations may cause significant error
 Vibrational temperatures:    479.91   565.46   624.86   955.90  1118.89
          (Kelvin)           1190.88  1288.59  1366.57  1434.45  1523.57
                             1646.77  1767.88  1967.14  2050.02  4309.30
                             4469.17  4541.69  4696.94

 Zero-point correction=                           0.056999 (Hartree/Particle)
 Thermal correction to Energy=                    0.061306
 Thermal correction to Enthalpy=                  0.062251
 Thermal correction to Gibbs Free Energy=         0.029713
 Sum of electronic and zero-point Energies=           -191.744170
 Sum of electronic and thermal Energies=              -191.739863
 Sum of electronic and thermal Enthalpies=            -191.738919
 Sum of electronic and thermal Free Energies=         -191.771457

                     E (Thermal)             CV                S
                      KCal/Mol        Cal/Mol-Kelvin    Cal/Mol-Kelvin
 Total                   38.470             14.930             68.482
 Electronic               0.000              0.000              2.755
 Translational            0.889              2.981             37.991
 Rotational               0.889              2.981             23.346
 Vibrational             36.693              8.968              4.390
 Vibration     1          0.715              1.608              1.243
 Vibration     2          0.760              1.485              0.989
 Vibration     3          0.795              1.395              0.845

 Optimization completed.
    -- Stationary point found.
 Normal termination of Gaussian 09 at Thu Mar  7 11:48:53 2019.
