 Gaussian 09, Revision E.01,
 Gaussian 09:  EM64L-G09RevE.01 30-Nov-2015

 ------------------------------------------------------
 #p b3lyp/6-311++G(3df,2p) freq IOp(2/17=3) IOp(2/18=3)
 ------------------------------------------------------

 ---------
 b3lyp opt
 ---------
 Symbolic Z-matrix:
 Charge = -1 Multiplicity = 4

                         Standard orientation:
 ---------------------------------------------------------------------
 Center     Atomic      Atomic             Coordinates (Angstroms)
 Number     Number       Type             X           Y           Z
 ---------------------------------------------------------------------
      1          6           0        0.777435    0.208210   -0.477683
      2          6           0       -0.494888    0.486361    0.168915
      3          6           0        1.936347   -0.243264    0.030600
      4          1           0       -2.341332   -0.148320    0.252898
      5          1           0       -0.306855    0.576063    1.259703
      6          1           0       -0.872404    1.484556   -0.137946
      7          1           0        2.131703   -0.679894    1.013543
      8          8           0       -1.490559   -0.492531   -0.089899
 ---------------------------------------------------------------------

 SCF Done:  E(UB3LYP) =  -191.790253676     A.U. after   26 cycles

 The electronic state is 4-A.
 Alpha  occ. eigenvalues --  -18.97992 -10.08709 -10.06611 -10.06145  -0.87754
 Alpha  occ. eigenvalues --   -0.65396  -0.54242  -0.39565  -0.37541  -0.32313
 Alpha  occ. eigenvalues --   -0.31368  -0.21592  -0.18423  -0.14880  -0.13544
 Alpha  occ. eigenvalues --   -0.06498   0.05862
 Alpha virt. eigenvalues --    0.10435   0.11123   0.11875   0.12772   0.16635
 Alpha virt. eigenvalues --    0.17426   0.18276   0.20716   0.21336   0.21707
 Alpha virt. eigenvalues --    0.22372   0.23283   0.24365   0.24750   0.25387

  Beta  occ. eigenvalues --  -18.97867 -10.08495 -10.04945 -10.04624  -0.87397
  Beta  occ. eigenvalues --   -0.62003  -0.51690  -0.37240  -0.36024  -0.30704
  Beta  occ. eigenvalues --   -0.29628  -0.20816  -0.13825  -0.12242
  Beta virt. eigenvalues --   -0.00955   0.08509   0.10767   0.11181   0.13096
  Beta virt. eigenvalues --    0.13936   0.14324   0.17617   0.18789   0.19340
  Beta virt. eigenvalues --    0.20943   0.21799   0.22559   0.22778   0.23930

 Mulliken charges and spin densities:
               1          2
     1  C   -0.938653   1.923943
     2  C    3.306833  -3.222217
     3  C   -0.478254   1.090049
     4  H   -0.619470   0.884115
     5  H   -0.605786   0.827918
     6  H   -0.877795   1.056521
     7  H   -0.000725   0.217118
     8  O   -0.786149   0.222552
 Sum of Mulliken charges =  -1.00000   3.00000

 Dipole moment (field-independent basis, Debye):
    X=              5.1327    Y=             -1.6316    Z=             -1.0631  Tot=              5.4897
 Quadrupole moment (field-independent basis, Debye-Ang):
   XX=            -62.4172   YY=            -43.8955   ZZ=            -41.8793
   XY=              1.4368   XZ=              3.4927   YZ=             -2.1091

  Exact polarizability: 654.158  53.155 455.440 139.015 -65.802 447.303
 Approx polarizability: 733.852  26.254 339.046  51.245 -24.897 317.689

                      1                      2                      3
                      A                      A                      A
 Frequencies --    125.2255               257.2861               339.5238
 Red. masses --      2.7643                 1.1335                 2.1206
 Frc consts  --      0.0255                 0.0442                 0.1440
 IR Inten    --    111.0921               612.7112                93.6796

                      4                      5                      6
                      A                      A                      A
 Frequencies --    404.9908               564.8308               830.2541
 Red. masses --      2.3994                 2.3582                 1.5023
 Frc consts  --      0.2319                 0.4433                 0.6101
 IR Inten    --    162.0815               112.4949                80.8595

                      7                      8                      9
                      A                      A                      A
 Frequencies --    897.4707              1020.8800              1049.4218
 Red. masses --      3.0383                 2.7149                 2.9850
 Frc consts  --      1.4419                 1.6671                 1.9368
 IR Inten    --     76.6526               163.9716                89.5726

                     10                     11                     12
                      A                      A                      A
 Frequencies --   1183.3661              1216.0713              1385.0799
 Red. masses --      1.0765                 1.0816                 1.4055
 Frc consts  --      0.8882                 0.9424                 1.5887
 IR Inten    --    141.5329                69.3398               163.9038

                     13                     14                     15
                      A                      A                      A
 Frequencies --   1402.6484              1532.8155              2804.4129
 Red. masses --      1.0707                 7.3342                 1.0501
 Frc consts  --      1.2411                10.1528                 4.8661
 IR Inten    --    369.0455              1852.9594               210.9903

                     16                     17                     18
                      A                      A                      A
 Frequencies --   2819.5135              3016.5456              3444.6468
 Red. masses --      1.0922                 1.0873                 1.0655
 Frc consts  --      5.1156                 5.8293                 7.4486
 IR Inten    --    196.2724               188.8561              1967.9122

 - Thermochemistry -
 -------------------
 Temperature   298.150 Kelvin.  Pressure   1.00000 Atm.
 Atom     1 has atomic number  6 and mass  12.00000

 Molecular mass:    56.02621 amu.
 Principal axes and moments of inertia in atomic units:
                           1         2         3
     Eigenvalues --    59.69437 384.10278 402.25539
           X            0.99951  -0.02790   0.01385
           Y            0.02839   0.99893  -0.03649
           Z           -0.01282   0.03687   0.99924
 This molecule is an asymmetric top.
 Rotational symmetry number  1.
 Rotational temperatures (Kelvin)      1.45095     0.22550     0.21532
 Rotational constants (GHZ):          30.23302     4.69859     4.48656
 Zero-point vibrational energy     145316.3 (Joules/Mol)
                                   34.73142 (Kcal/Mol)
 Warning -- explicit consideration of   5 degrees of freedom as
           vibrations may cause significant error
 Vibrational temperatures:    180.17   370.18   488.50   582.69   812.66
          (Kelvin)           1194.55  1291.26  1468.82  1509.88  1702.60
                             1749.65  1992.82  2018.10  2205.38  4034.92
                             4056.65  4340.13  4956.07

 Zero-point correction=                           0.055348 (Hartree/Particle)
 Thermal correction to Energy=                    0.060445
 Thermal correction to Enthalpy=                  0.061389
 Thermal correction to Gibbs Free Energy=         0.026955
 Sum of electronic and zero-point Energies=           -191.734906
 Sum of electronic and thermal Energies=              -191.729809
 Sum of electronic and thermal Enthalpies=            -191.728865
 Sum of electronic and thermal Free Energies=         -191.763299

                     E (Thermal)             CV                S
                      KCal/Mol        Cal/Mol-Kelvin    Cal/Mol-Kelvin
 Total                   37.930             16.285             72.473
 Electronic               0.000              0.000              2.755
 Translational            0.889              2.981             37.991
 Rotational               0.889              2.981             23.738
 Vibrational             36.152             10.323              7.989
 Vibration     1          0.610              1.928              3.018
 Vibration     2          0.667              1.750              1.680
 Vibration     3          0.719              1.597              1.214
 Vibration     4          0.770              1.459              0.944
 Vibration     5          0.921              1.107              0.514

 Normal termination of Gaussian 09 at Thu Mar  7 11:39:19 2019.
