 Gaussian 09, Revision E.01,
 Gaussian 09:  EM64L-G09RevE.01 30-Nov-2015

 ------------------------------------------------------
 #p b3lyp/6-311++G(3df,2p) freq IOp(2/17=3) IOp(2/18=3)
 ------------------------------------------------------

 ---------
 b3lyp opt
 ---------
 Symbolic Z-matrix:
 Charge = -1 Multiplicity = 2

                         Standard orientation:
 ---------------------------------------------------------------------
 Center     Atomic      Atomic             Coordinates (Angstroms)
 Number     Number       Type             X           Y           Z
 ---------------------------------------------------------------------
      1          6           0        0.612839   -0.029162    0.000012
      2          6           0       -0.595612    0.454294   -0.000415
      3          6           0        1.941771   -0.109521    0.000066
      4          1           0       -1.592146   -1.181795    0.001009
      5          1           0        2.509401   -0.195711    0.921666
      6          1           0       -0.784196    1.527430   -0.000985
      7          1           0        2.509211   -0.200398   -0.921214
      8          8           0       -1.799532   -0.230399    0.000193
 ---------------------------------------------------------------------

 SCF Done:  E(UB3LYP) =  -191.931838171     A.U. after   26 cycles

 The electronic state is 2-A.
 Alpha  occ. eigenvalues --  -18.99128 -10.06784 -10.01712 -10.01030  -0.89073
 Alpha  occ. eigenvalues --   -0.61951  -0.53330  -0.42517  -0.32205  -0.31026
 Alpha  occ. eigenvalues --   -0.28429  -0.22824  -0.22682  -0.12126  -0.07425
 Alpha  occ. eigenvalues --    0.06213
 Alpha virt. eigenvalues --    0.10282   0.10745   0.11868   0.12944   0.16604
 Alpha virt. eigenvalues --    0.17515   0.17883   0.19749   0.19939   0.21990
 Alpha virt. eigenvalues --    0.23197   0.24337   0.25041   0.25193   0.25961

  Beta  occ. eigenvalues --  -18.99013 -10.06740 -10.01449 -10.00936  -0.88808
  Beta  occ. eigenvalues --   -0.61479  -0.52860  -0.42211  -0.31951  -0.30765
  Beta  occ. eigenvalues --   -0.28234  -0.22651  -0.22572  -0.10818  -0.07287
  Beta virt. eigenvalues --    0.09797   0.11251   0.11981   0.12243   0.14434
  Beta virt. eigenvalues --    0.16891   0.17587   0.18542   0.19902   0.19933
  Beta virt. eigenvalues --    0.22390   0.23641   0.24772   0.25317   0.25462

 Mulliken charges and spin densities:
               1          2
     1  C    1.035849  -0.553687
     2  C   -1.995741   2.058369
     3  C    2.035982  -2.637994
     4  H   -0.455338   0.721591
     5  H   -0.216500   0.334011
     6  H   -0.630417   0.775285
     7  H   -0.215034   0.332537
     8  O   -0.558799  -0.030112
 Sum of Mulliken charges =  -1.00000   1.00000

 Dipole moment (field-independent basis, Debye):
    X=              0.3106    Y=             -0.0600    Z=             -0.0016  Tot=              0.3163
 Quadrupole moment (field-independent basis, Debye-Ang):
   XX=            -54.0909   YY=            -44.5096   ZZ=            -38.4833
   XY=             -4.9958   XZ=              0.0013   YZ=              0.0014

  Exact polarizability:1043.578 156.985 982.485   0.221   0.113 412.726
 Approx polarizability: 795.230 241.350 711.332   0.003   0.002 251.497

                      1                      2                      3
                      A                      A                      A
 Frequencies --    188.8495               205.0881               392.5616
 Red. masses --      4.7275                 2.6367                 1.0937
 Frc consts  --      0.0993                 0.0653                 0.0993
 IR Inten    --     70.4525                 0.0317                43.9230

                      4                      5                      6
                      A                      A                      A
 Frequencies --    492.5123               526.8823               715.2991
 Red. masses --      1.6583                 4.1976                 1.3048
 Frc consts  --      0.2370                 0.6866                 0.3933
 IR Inten    --     94.0932               389.5664                40.4689

                      7                      8                      9
                      A                      A                      A
 Frequencies --    853.0599               854.3526              1027.2097
 Red. masses --      1.3330                 3.7772                 1.4119
 Frc consts  --      0.5715                 1.6244                 0.8777
 IR Inten    --    134.1922               629.4216                 1.4816

                     10                     11                     12
                      A                      A                      A
 Frequencies --   1160.3418              1233.8801              1370.3094
 Red. masses --      1.8803                 1.5181                 1.2810
 Frc consts  --      1.4916                 1.3618                 1.4172
 IR Inten    --    143.8040               153.0293               353.4943

                     13                     14                     15
                      A                      A                      A
 Frequencies --   1473.4416              1871.1651              3052.8210
 Red. masses --      1.3458                10.7334                 1.0817
 Frc consts  --      1.7215                22.1418                 5.9397
 IR Inten    --    138.7334               636.7244               921.0710

                     16                     17                     18
                      A                      A                      A
 Frequencies --   3074.3033              3133.8714              3545.2315
 Red. masses --      1.0553                 1.1139                 1.0639
 Frc consts  --      5.8767                 6.4454                 7.8785
 IR Inten    --      7.7930                 2.2685              6123.2273

 - Thermochemistry -
 -------------------
 Temperature   298.150 Kelvin.  Pressure   1.00000 Atm.
 Atom     1 has atomic number  6 and mass  12.00000

 Molecular mass:    56.02621 amu.
 Principal axes and moments of inertia in atomic units:
                           1         2         3
     Eigenvalues --    32.24057 440.17979 460.19735
           X            1.00000  -0.00270   0.00000
           Y            0.00270   1.00000   0.00027
           Z           -0.00000  -0.00027   1.00000
 This molecule is an asymmetric top.
 Rotational symmetry number  1.
 Rotational temperatures (Kelvin)      2.68649     0.19677     0.18821
 Rotational constants (GHZ):          55.97733     4.10001     3.92167
 Zero-point vibrational energy     150557.1 (Joules/Mol)
                                   35.98401 (Kcal/Mol)
 Warning -- explicit consideration of   5 degrees of freedom as
           vibrations may cause significant error
 Vibrational temperatures:    271.71   295.08   564.81   708.61   758.07
          (Kelvin)           1029.15  1227.36  1229.22  1477.92  1669.47
                             1775.28  1971.57  2119.95  2692.19  4392.32
                             4423.23  4508.94  5100.79

 Zero-point correction=                           0.057344 (Hartree/Particle)
 Thermal correction to Energy=                    0.062377
 Thermal correction to Enthalpy=                  0.063321
 Thermal correction to Gibbs Free Energy=         0.029976
 Sum of electronic and zero-point Energies=           -191.874494
 Sum of electronic and thermal Energies=              -191.869461
 Sum of electronic and thermal Enthalpies=            -191.868517
 Sum of electronic and thermal Free Energies=         -191.901862

                     E (Thermal)             CV                S
                      KCal/Mol        Cal/Mol-Kelvin    Cal/Mol-Kelvin
 Total                   39.142             16.509             70.179
 Electronic               0.000              0.000              1.377
 Translational            0.889              2.981             37.991
 Rotational               0.889              2.981             23.395
 Vibrational             37.365             10.547              7.416
 Vibration     1          0.633              1.855              2.239
 Vibration     2          0.640              1.833              2.087
 Vibration     3          0.760              1.486              0.990
 Vibration     4          0.848              1.267              0.677
 Vibration     5          0.882              1.191              0.594

 Normal termination of Gaussian 09 at Thu Mar  7 11:20:30 2019.
