 Gaussian 09, Revision E.01,
 Gaussian 09:  EM64L-G09RevE.01 30-Nov-2015

 ------------------------------------------------------
 #p b3lyp/6-311++G(3df,2p) freq IOp(2/17=3) IOp(2/18=3)
 ------------------------------------------------------

 ---------
 b3lyp opt
 ---------
 Symbolic Z-matrix:
 Charge = -1 Multiplicity = 4

                         Standard orientation:
 ---------------------------------------------------------------------
 Center     Atomic      Atomic             Coordinates (Angstroms)
 Number     Number       Type             X           Y           Z
 ---------------------------------------------------------------------
      1          6           0        1.876108    0.032620   -0.163930
      2          6           0       -0.582194    0.392860    0.217107
      3          6           0        0.694808   -0.428504    0.144955
      4          1           0       -0.815177    0.630552    1.287722
      5          1           0       -0.458206    1.407037   -0.197461
      6          1           0        2.349681    0.952479   -0.460871
      7          1           0        0.565722   -1.472053    0.422740
      8          8           0       -1.696794   -0.187484   -0.280115
 ---------------------------------------------------------------------

 SCF Done:  E(UB3LYP) =  -191.811399078     A.U. after   31 cycles

 The electronic state is 4-A.
 Alpha  occ. eigenvalues --  -19.05128 -10.11596 -10.07538 -10.06291  -0.91988
 Alpha  occ. eigenvalues --   -0.67181  -0.54828  -0.45520  -0.37628  -0.35828
 Alpha  occ. eigenvalues --   -0.33505  -0.30394  -0.21629  -0.19302  -0.16262
 Alpha  occ. eigenvalues --   -0.11542   0.05897
 Alpha virt. eigenvalues --    0.09087   0.09727   0.10867   0.11724   0.15025
 Alpha virt. eigenvalues --    0.16620   0.18003   0.18424   0.20940   0.21157
 Alpha virt. eigenvalues --    0.21603   0.22115   0.22555   0.23021   0.24309

  Beta  occ. eigenvalues --  -19.02851 -10.11378 -10.06439 -10.05988  -0.87111
  Beta  occ. eigenvalues --   -0.65403  -0.51878  -0.43775  -0.34687  -0.33231
  Beta  occ. eigenvalues --   -0.31226  -0.28127  -0.16456  -0.15497
  Beta virt. eigenvalues --   -0.03145   0.03249   0.09339   0.10778   0.11039
  Beta virt. eigenvalues --    0.12134   0.13378   0.15659   0.17970   0.18529
  Beta virt. eigenvalues --    0.19327   0.21540   0.21706   0.22022   0.22674

 Mulliken charges and spin densities:
               1          2
     1  C    1.474057  -0.822707
     2  C    4.884549  -4.814483
     3  C   -2.153694   2.068295
     4  H   -0.986848   1.275182
     5  H   -1.139087   1.405889
     6  H   -1.611142   1.841914
     7  H   -0.833372   1.021851
     8  O   -0.634462   1.024059
 Sum of Mulliken charges =  -1.00000   3.00000

 Dipole moment (field-independent basis, Debye):
    X=             -2.2805    Y=             -4.8825    Z=             -1.7387  Tot=              5.6623
 Quadrupole moment (field-independent basis, Debye-Ang):
   XX=            -61.9148   YY=            -57.1420   ZZ=            -52.1675
   XY=             -4.1329   XZ=              2.6293   YZ=             -0.4192

  Exact polarizability:1355.766  -7.0331333.752-492.884-305.687 914.585
 Approx polarizability:1115.370  73.598 824.833-482.300-287.292 802.803

                      1                      2                      3
                      A                      A                      A
 Frequencies --     70.0847               325.2618               422.8621
 Red. masses --      2.6282                 2.4897                 2.3814
 Frc consts  --      0.0076                 0.1552                 0.2509
 IR Inten    --     86.4607                16.4269               236.4335

                      4                      5                      6
                      A                      A                      A
 Frequencies --    559.0491               758.7759               797.3918
 Red. masses --      1.8139                 1.8955                 1.5834
 Frc consts  --      0.3340                 0.6430                 0.5932
 IR Inten    --    752.6559                88.5287              1237.8576

                      7                      8                      9
                      A                      A                      A
 Frequencies --    892.1687               994.9869              1051.0806
 Red. masses --      1.1485                 3.4478                 4.2543
 Frc consts  --      0.5386                 2.0111                 2.7692
 IR Inten    --    606.1551               177.9996               228.6902

                     10                     11                     12
                      A                      A                      A
 Frequencies --   1108.8626              1240.6264              1287.8018
 Red. masses --      1.2311                 1.1470                 1.0891
 Frc consts  --      0.8919                 1.0401                 1.0642
 IR Inten    --    469.6663                14.7787               779.6331

                     13                     14                     15
                      A                      A                      A
 Frequencies --   1340.6356              1621.5824              2670.5255
 Red. masses --      1.3130                 6.5099                 1.0649
 Frc consts  --      1.3904                10.0857                 4.4745
 IR Inten    --    415.3644               112.0089              1239.2126

                     16                     17                     18
                      A                      A                      A
 Frequencies --   2913.6824              3099.1079              3243.5160
 Red. masses --      1.0720                 1.0845                 1.1050
 Frc consts  --      5.3619                 6.1372                 6.8494
 IR Inten    --    151.7041               295.2665               243.5987

 - Thermochemistry -
 -------------------
 Temperature   298.150 Kelvin.  Pressure   1.00000 Atm.
 Atom     1 has atomic number  6 and mass  12.00000

 Molecular mass:    56.02621 amu.
 Principal axes and moments of inertia in atomic units:
                           1         2         3
     Eigenvalues --    51.89895 390.34427 410.77606
           X            0.99984   0.00142  -0.01766
           Y           -0.00296   0.99614  -0.08768
           Z            0.01747   0.08772   0.99599
 This molecule is an asymmetric top.
 Rotational symmetry number  1.
 Rotational temperatures (Kelvin)      1.66889     0.22189     0.21085
 Rotational constants (GHZ):          34.77414     4.62346     4.39349
 Zero-point vibrational energy     145932.5 (Joules/Mol)
                                   34.87869 (Kcal/Mol)
 Warning -- explicit consideration of   4 degrees of freedom as
           vibrations may cause significant error
 Vibrational temperatures:    100.84   467.98   608.40   804.35  1091.71
          (Kelvin)           1147.27  1283.63  1431.56  1512.27  1595.40
                             1784.98  1852.86  1928.87  2333.09  3842.29
                             4192.13  4458.92  4666.69

 Zero-point correction=                           0.055583 (Hartree/Particle)
 Thermal correction to Energy=                    0.060426
 Thermal correction to Enthalpy=                  0.061370
 Thermal correction to Gibbs Free Energy=         0.027091
 Sum of electronic and zero-point Energies=           -191.755816
 Sum of electronic and thermal Energies=              -191.750973
 Sum of electronic and thermal Enthalpies=            -191.750029
 Sum of electronic and thermal Free Energies=         -191.784308

                     E (Thermal)             CV                S
                      KCal/Mol        Cal/Mol-Kelvin    Cal/Mol-Kelvin
 Total                   37.918             15.475             72.146
 Electronic               0.000              0.000              2.755
 Translational            0.889              2.981             37.991
 Rotational               0.889              2.981             23.635
 Vibrational             36.141              9.514              7.765
 Vibration     1          0.598              1.968              4.151
 Vibration     2          0.709              1.625              1.284
 Vibration     3          0.785              1.421              0.882
 Vibration     4          0.915              1.120              0.526

 Normal termination of Gaussian 09 at Thu Mar  7 12:16:17 2019.
