 Gaussian 09, Revision E.01,
 Gaussian 09:  EM64L-G09RevE.01 30-Nov-2015

 ------------------------------------------------------
 #p b3lyp/6-311++G(3df,2p) freq IOp(2/17=3) IOp(2/18=3)
 ------------------------------------------------------

 ---------
 b3lyp opt
 ---------
 Symbolic Z-matrix:
 Charge = -1 Multiplicity = 2

                         Standard orientation:
 ---------------------------------------------------------------------
 Center     Atomic      Atomic             Coordinates (Angstroms)
 Number     Number       Type             X           Y           Z
 ---------------------------------------------------------------------
      1          6           0        1.087197   -0.653057    0.000126
      2          6           0       -0.213772    0.050513   -0.000208
      3          6           0        0.795711    0.854668   -0.000162
      4          1           0       -2.029572    0.628889    0.001218
      5          1           0        1.443681   -1.141299   -0.911282
      6          1           0        1.443614   -1.140765    0.911836
      7          1           0        1.234007    1.830062    0.000343
      8          8           0       -1.513318   -0.211204   -0.000082
 ---------------------------------------------------------------------

 SCF Done:  E(UB3LYP) =  -191.897389811     A.U. after   23 cycles

 The electronic state is 2-A.
 Alpha  occ. eigenvalues --  -19.03216 -10.10496 -10.05351 -10.03510  -0.93764
 Alpha  occ. eigenvalues --   -0.73499  -0.47447  -0.47186  -0.39125  -0.32286
 Alpha  occ. eigenvalues --   -0.32015  -0.24769  -0.20185  -0.17678  -0.09725
 Alpha  occ. eigenvalues --    0.06061
 Alpha virt. eigenvalues --    0.09317   0.09825   0.11241   0.15403   0.15703
 Alpha virt. eigenvalues --    0.17073   0.17675   0.18867   0.19392   0.20999
 Alpha virt. eigenvalues --    0.22234   0.22686   0.23588   0.24939   0.24971

  Beta  occ. eigenvalues --  -19.03095 -10.10491 -10.05318 -10.03481  -0.93522
  Beta  occ. eigenvalues --   -0.73458  -0.47284  -0.46995  -0.39016  -0.32237
  Beta  occ. eigenvalues --   -0.31918  -0.24669  -0.20107  -0.17560  -0.09679
  Beta virt. eigenvalues --    0.09193   0.10769   0.11471   0.11792   0.15398
  Beta virt. eigenvalues --    0.15810   0.17427   0.18040   0.19322   0.20342
  Beta virt. eigenvalues --    0.21362   0.22381   0.22727   0.24027   0.24988

 Mulliken charges and spin densities:
               1          2
     1  C    0.966596  -1.368935
     2  C    2.899232  -2.615738
     3  C   -1.359484   1.374545
     4  H   -1.131214   1.439958
     5  H   -0.083227   0.166702
     6  H   -0.083020   0.166457
     7  H   -1.559858   1.788200
     8  O   -0.649025   0.048811
 Sum of Mulliken charges =  -1.00000   1.00000

 Dipole moment (field-independent basis, Debye):
    X=              4.0580    Y=             -5.1580    Z=             -0.0080  Tot=              6.5629
 Quadrupole moment (field-independent basis, Debye-Ang):
   XX=            -62.9032   YY=            -53.2886   ZZ=            -41.9525
   XY=              2.8687   XZ=              0.0106   YZ=             -0.0129

  Exact polarizability:1314.729 125.7231112.567  -0.205  -0.169 471.691
 Approx polarizability:1463.997 171.280 617.556  -0.188  -0.058 302.923

                      1                      2                      3
                      A                      A                      A
 Frequencies --    314.9922               412.9447               484.4260
 Red. masses --      1.5846                 3.3577                 1.5132
 Frc consts  --      0.0926                 0.3373                 0.2092
 IR Inten    --    811.2027                19.6630               357.1021

                      4                      5                      6
                      A                      A                      A
 Frequencies --    689.7428               691.8896               940.1839
 Red. masses --      1.5821                 3.2544                 1.3013
 Frc consts  --      0.4435                 0.9179                 0.6777
 IR Inten    --    103.9407                67.8441               456.6503

                      7                      8                      9
                      A                      A                      A
 Frequencies --    991.2289              1018.5153              1043.4015
 Red. masses --      1.1056                 5.0125                 1.4564
 Frc consts  --      0.6400                 3.0636                 0.9342
 IR Inten    --      1.5476               517.8002                19.5270

                     10                     11                     12
                      A                      A                      A
 Frequencies --   1104.4126              1132.0247              1341.5914
 Red. masses --      1.3027                 2.3650                 1.9360
 Frc consts  --      0.9362                 1.7857                 2.0530
 IR Inten    --      2.0053               759.5373               339.1299

                     13                     14                     15
                      A                      A                      A
 Frequencies --   1513.2567              1847.3874              2967.5389
 Red. masses --      1.0950                 7.1340                 1.0457
 Frc consts  --      1.4774                14.3450                 5.4256
 IR Inten    --     21.8432              1129.8864                 1.6878

                     16                     17                     18
                      A                      A                      A
 Frequencies --   3013.6936              3285.2522              3316.0428
 Red. masses --      1.1153                 1.0663                 1.1149
 Frc consts  --      5.9681                 6.7806                 7.2229
 IR Inten    --      4.0113              6861.6392               512.9946

 - Thermochemistry -
 -------------------
 Temperature   298.150 Kelvin.  Pressure   1.00000 Atm.
 Atom     1 has atomic number  6 and mass  12.00000

 Molecular mass:    56.02621 amu.
 Principal axes and moments of inertia in atomic units:
                           1         2         3
     Eigenvalues --    80.67288 251.95817 320.66878
           X            0.99886  -0.04772  -0.00002
           Y            0.04772   0.99886   0.00007
           Z            0.00002  -0.00007   1.00000
 This molecule is an asymmetric top.
 Rotational symmetry number  1.
 Rotational temperatures (Kelvin)      1.07364     0.34376     0.27010
 Rotational constants (GHZ):          22.37110     7.16286     5.62805
 Zero-point vibrational energy     156163.7 (Joules/Mol)
                                   37.32401 (Kcal/Mol)
 Warning -- explicit consideration of   3 degrees of freedom as
           vibrations may cause significant error
 Vibrational temperatures:    453.20   594.13   696.98   992.38   995.47
          (Kelvin)           1352.71  1426.16  1465.41  1501.22  1589.00
                             1628.73  1930.25  2177.24  2657.98  4269.62
                             4336.03  4726.74  4771.04

 Zero-point correction=                           0.059480 (Hartree/Particle)
 Thermal correction to Energy=                    0.063691
 Thermal correction to Enthalpy=                  0.064635
 Thermal correction to Gibbs Free Energy=         0.032859
 Sum of electronic and zero-point Energies=           -191.837910
 Sum of electronic and thermal Energies=              -191.833699
 Sum of electronic and thermal Enthalpies=            -191.832754
 Sum of electronic and thermal Free Energies=         -191.864531

                     E (Thermal)             CV                S
                      KCal/Mol        Cal/Mol-Kelvin    Cal/Mol-Kelvin
 Total                   39.967             14.303             66.880
 Electronic               0.000              0.000              1.377
 Translational            0.889              2.981             37.991
 Rotational               0.889              2.981             23.393
 Vibrational             38.189              8.341              4.119
 Vibration     1          0.702              1.645              1.336
 Vibration     2          0.777              1.442              0.916
 Vibration     3          0.841              1.285              0.698

 Normal termination of Gaussian 09 at Thu Mar  7 10:59:17 2019.
