 Gaussian 09, Revision E.01,
 Gaussian 09:  EM64L-G09RevE.01 30-Nov-2015

 ------------------------------------------------------
 #p b3lyp/6-311++G(3df,2p) freq IOp(2/17=3) IOp(2/18=3)
 ------------------------------------------------------

 ---------
 b3lyp opt
 ---------
 Symbolic Z-matrix:
 Charge = -1 Multiplicity = 2

                         Standard orientation:
 ---------------------------------------------------------------------
 Center     Atomic      Atomic             Coordinates (Angstroms)
 Number     Number       Type             X           Y           Z
 ---------------------------------------------------------------------
      1          6           0        1.866888    0.058371   -0.216419
      2          6           0       -0.661004    0.380801    0.309141
      3          6           0        0.731282   -0.438460    0.183807
      4          1           0       -0.807122    0.386675    1.424097
      5          1           0       -0.400225    1.432857    0.033553
      6          1           0        2.072423    1.067729   -0.563924
      7          1           0        0.575646   -1.479996    0.455710
      8          8           0       -1.632965   -0.176442   -0.376077
 ---------------------------------------------------------------------

 SCF Done:  E(UB3LYP) =  -191.915574938     A.U. after   20 cycles

 The electronic state is 2-A.
 Alpha  occ. eigenvalues --  -18.85754 -10.02619  -9.99236  -9.98924  -0.76047
 Alpha  occ. eigenvalues --   -0.58042  -0.43827  -0.37013  -0.26352  -0.24296
 Alpha  occ. eigenvalues --   -0.20697  -0.19047  -0.09331  -0.07440  -0.02469
 Alpha  occ. eigenvalues --   -0.01298
 Alpha virt. eigenvalues --    0.11845   0.13300   0.13886   0.16026   0.17223
 Alpha virt. eigenvalues --    0.19187   0.20031   0.22299   0.23165   0.24724
 Alpha virt. eigenvalues --    0.25069   0.25674   0.26143   0.26813   0.27556

  Beta  occ. eigenvalues --  -18.85178 -10.02472  -9.99239  -9.97951  -0.74959
  Beta  occ. eigenvalues --   -0.56911  -0.42437  -0.36137  -0.25646  -0.23034
  Beta  occ. eigenvalues --   -0.19646  -0.18377  -0.08736  -0.02132  -0.01739
  Beta virt. eigenvalues --    0.07980   0.11917   0.13352   0.14121   0.16029
  Beta virt. eigenvalues --    0.17538   0.19284   0.20676   0.22475   0.23418
  Beta virt. eigenvalues --    0.24831   0.25112   0.25915   0.26307   0.27045

 Mulliken charges and spin densities:
               1          2
     1  C   -0.552011   0.718080
     2  C    0.101123   0.044346
     3  C    0.012020  -0.099509
     4  H    0.009908   0.054039
     5  H    0.014304  -0.000491
     6  H    0.120549   0.034706
     7  H    0.105285   0.031246
     8  O   -0.811179   0.217583
 Sum of Mulliken charges =  -1.00000   1.00000

 Dipole moment (field-independent basis, Debye):
    X=              1.2332    Y=              0.9858    Z=              1.2898  Tot=              2.0387
 Quadrupole moment (field-independent basis, Debye-Ang):
   XX=            -48.1753   YY=            -28.8982   ZZ=            -31.0526
   XY=              0.6339   XZ=             -2.4181   YZ=             -1.4549

  Exact polarizability: 145.837  -5.325  60.049  -6.790   0.773  54.780
 Approx polarizability: 234.567   6.967  78.785  -6.880  -0.570  73.968

                      1                      2                      3
                      A                      A                      A
 Frequencies --    138.9818               353.3355               373.5488
 Red. masses --      2.8049                 2.6374                 3.3144
 Frc consts  --      0.0319                 0.1940                 0.2725
 IR Inten    --      5.2347                 7.6217                 1.4613

                      4                      5                      6
                      A                      A                      A
 Frequencies --    613.1167               697.5153               842.3214
 Red. masses --      2.2925                 2.2629                 1.1528
 Frc consts  --      0.5077                 0.6487                 0.4819
 IR Inten    --     66.2243               331.4327               181.3130

                      7                      8                      9
                      A                      A                      A
 Frequencies --    905.8913              1002.8765              1192.9713
 Red. masses --      1.4325                 1.6543                 1.2434
 Frc consts  --      0.6926                 0.9803                 1.0426
 IR Inten    --     81.2531                44.0360                 9.7780

                     10                     11                     12
                      A                      A                      A
 Frequencies --   1220.6626              1238.1559              1303.2391
 Red. masses --      2.0581                 1.5991                 1.1807
 Frc consts  --      1.8068                 1.4444                 1.1815
 IR Inten    --    111.1766               113.6011                 8.2490

                     13                     14                     15
                      A                      A                      A
 Frequencies --   1471.6726              1622.2820              2621.4221
 Red. masses --      1.1341                 6.6843                 1.0837
 Frc consts  --      1.4472                10.3647                 4.3878
 IR Inten    --     59.2055                32.9118               433.2275

                     16                     17                     18
                      A                      A                      A
 Frequencies --   2696.8298              3086.3917              3107.8194
 Red. masses --      1.0584                 1.0848                 1.1007
 Frc consts  --      4.5352                 6.0881                 6.2635
 IR Inten    --    380.8758                81.8612                16.7827

 - Thermochemistry -
 -------------------
 Temperature   298.150 Kelvin.  Pressure   1.00000 Atm.
 Atom     1 has atomic number  6 and mass  12.00000

 Molecular mass:    56.02621 amu.
 Principal axes and moments of inertia in atomic units:
                           1         2         3
     Eigenvalues --    60.71297 387.02043 399.51355
           X            0.99976   0.00129  -0.02188
           Y           -0.00541   0.98195  -0.18908
           Z            0.02125   0.18915   0.98172
 This molecule is an asymmetric top.
 Rotational symmetry number  1.
 Rotational temperatures (Kelvin)      1.42661     0.22380     0.21680
 Rotational constants (GHZ):          29.72579     4.66317     4.51735
 Zero-point vibrational energy     146476.9 (Joules/Mol)
                                   35.00883 (Kcal/Mol)
 Warning -- explicit consideration of   4 degrees of freedom as
           vibrations may cause significant error
 Vibrational temperatures:    199.96   508.37   537.45   882.14  1003.57
          (Kelvin)           1211.91  1303.37  1442.91  1716.42  1756.26
                             1781.43  1875.07  2117.41  2334.10  3771.64
                             3880.13  4440.62  4471.45

 Zero-point correction=                           0.055790 (Hartree/Particle)
 Thermal correction to Energy=                    0.060468
 Thermal correction to Enthalpy=                  0.061413
 Thermal correction to Gibbs Free Energy=         0.028409
 Sum of electronic and zero-point Energies=           -191.859785
 Sum of electronic and thermal Energies=              -191.855107
 Sum of electronic and thermal Enthalpies=            -191.854162
 Sum of electronic and thermal Free Energies=         -191.887166

                     E (Thermal)             CV                S
                      KCal/Mol        Cal/Mol-Kelvin    Cal/Mol-Kelvin
 Total                   37.945             15.121             69.462
 Electronic               0.000              0.000              1.377
 Translational            0.889              2.981             37.991
 Rotational               0.889              2.981             23.755
 Vibrational             36.167              9.159              6.339
 Vibration     1          0.615              1.914              2.818
 Vibration     2          0.730              1.568              1.151
 Vibration     3          0.745              1.526              1.065
 Vibration     4          0.972              1.004              0.428

 Optimization completed.
    -- Stationary point found.
 Normal termination of Gaussian 09 at Thu Mar  7 11:29:39 2019.
