 Gaussian 09, Revision E.01,
 Gaussian 09:  EM64L-G09RevE.01 30-Nov-2015

 ------------------------------------------------------
 #p b3lyp/6-311++G(3df,2p) freq IOp(2/17=3) IOp(2/18=3)
 ------------------------------------------------------

 ---------
 b3lyp opt
 ---------
 Symbolic Z-matrix:
 Charge = -1 Multiplicity = 4

                         Standard orientation:
 ---------------------------------------------------------------------
 Center     Atomic      Atomic             Coordinates (Angstroms)
 Number     Number       Type             X           Y           Z
 ---------------------------------------------------------------------
      1          8           0       -0.768717    2.318920    0.000000
      2          6           0       -0.454107   -0.076374    0.000000
      3          6           0        0.000000    1.255772    0.000000
      4          6           0        0.300513   -1.180763    0.000000
      5          6           0        0.876634   -2.351189    0.000000
      6          1           0       -1.535170   -0.211865    0.000000
      7          1           0        1.061525    1.508593    0.000000
      8          1           0        1.142393   -2.866488   -0.922893
      9          1           0        1.142393   -2.866488    0.922893
 ---------------------------------------------------------------------

 SCF Done:  E(UB3LYP) =  -229.937230475     A.U. after   29 cycles

 The electronic state is 4-A".
 Alpha  occ. eigenvalues --  -19.10089 -10.11833 -10.07478 -10.06359 -10.05056
 Alpha  occ. eigenvalues --   -0.96885  -0.68895  -0.61507  -0.51133  -0.44274
 Alpha  occ. eigenvalues --   -0.37735  -0.36342  -0.32748  -0.32076  -0.31598
 Alpha  occ. eigenvalues --   -0.25889  -0.17986  -0.15314  -0.04180   0.05744
 Alpha virt. eigenvalues --    0.08655   0.09231   0.10359   0.11586   0.13900
 Alpha virt. eigenvalues --    0.14096   0.15977   0.16823   0.16878   0.19885
 Alpha virt. eigenvalues --    0.19989   0.20755   0.20971   0.22467   0.22746

  Beta  occ. eigenvalues --  -19.07335 -10.10946 -10.07588 -10.05549 -10.05042
  Beta  occ. eigenvalues --   -0.90773  -0.67393  -0.60202  -0.48146  -0.41458
  Beta  occ. eigenvalues --   -0.35620  -0.34015  -0.30876  -0.30139  -0.27396
  Beta  occ. eigenvalues --   -0.15481  -0.14663
  Beta virt. eigenvalues --   -0.07112   0.06721   0.08917   0.10326   0.10486
  Beta virt. eigenvalues --    0.11773   0.12663   0.14493   0.15346   0.16868
  Beta virt. eigenvalues --    0.17361   0.17703   0.20296   0.20510   0.21030

 Mulliken charges and spin densities:
               1          2
     1  O   -0.475307   1.081521
     2  C   -8.320583   7.942751
     3  C    2.116055  -1.587017
     4  C    4.704607  -3.688349
     5  C    5.090553  -5.712551
     6  H   -1.720222   1.885170
     7  H   -1.479489   1.786137
     8  H   -0.457807   0.646169
     9  H   -0.457807   0.646169
 Sum of Mulliken charges =  -1.00000   3.00000

 Dipole moment (field-independent basis, Debye):
    X=             -0.9051    Y=              3.5027    Z=              0.0000  Tot=              3.6178
 Quadrupole moment (field-independent basis, Debye-Ang):
   XX=            -60.8663   YY=            -73.4871   ZZ=            -54.1175
   XY=             -0.3137   XZ=              0.0000   YZ=             -0.0000

  Exact polarizability:1916.092  45.8042266.046  -0.000   0.000 961.500
 Approx polarizability:1323.457 219.5681740.972  -0.000   0.000 568.230

                      1                      2                      3
                     A"                     A'                     A"
 Frequencies --    109.5623               127.5445               199.0125
 Red. masses --      4.7948                 4.3509                 2.5568
 Frc consts  --      0.0339                 0.0417                 0.0597
 IR Inten    --      0.4363               103.0884                 9.2361

                      4                      5                      6
                     A'                     A"                     A"
 Frequencies --    366.1402               448.1320               514.0820
 Red. masses --      6.6578                 1.5727                 1.2231
 Frc consts  --      0.5259                 0.1861                 0.1904
 IR Inten    --    375.2754                52.3335               153.9391

                      7                      8                      9
                     A'                     A'                     A"
 Frequencies --    525.8346               851.9743               890.4915
 Red. masses --      6.2793                 1.3180                 1.2641
 Frc consts  --      1.0230                 0.5637                 0.5906
 IR Inten    --    313.2049               284.1893              2185.7687

                     10                     11                     12
                     A"                     A'                     A'
 Frequencies --    984.1137               984.2728              1063.4738
 Red. masses --      1.4307                 4.6178                 2.7606
 Frc consts  --      0.8163                 2.6358                 1.8396
 IR Inten    --      5.4634               432.4638               260.4050

                     13                     14                     15
                     A'                     A'                     A'
 Frequencies --   1157.9241              1244.6329              1330.7384
 Red. masses --      1.1648                 4.2943                 1.5988
 Frc consts  --      0.9201                 3.9194                 1.6681
 IR Inten    --    361.4381                 4.8459               300.7316

                     16                     17                     18
                     A'                     A'                     A'
 Frequencies --   1441.7411              1825.1430              3013.3699
 Red. masses --      1.2343                10.5280                 1.0531
 Frc consts  --      1.5117                20.6628                 5.6340
 IR Inten    --    539.9478              1707.2306               842.8429

                     19                     20                     21
                     A'                     A'                     A"
 Frequencies --   3046.2745              3057.6268              3079.3266
 Red. masses --      1.0811                 1.0817                 1.1125
 Frc consts  --      5.9108                 5.9583                 6.2154
 IR Inten    --   2156.8640               504.9216                 0.3324

 - Thermochemistry -
 -------------------
 Temperature   298.150 Kelvin.  Pressure   1.00000 Atm.
 Atom     1 has atomic number  8 and mass  15.99491

 Molecular mass:    68.02621 amu.
 Principal axes and moments of inertia in atomic units:
                           1         2         3
     Eigenvalues --    38.63550 812.88251 839.25645
           X           -0.29777   0.95464   0.00000
           Y            0.95464   0.29777   0.00000
           Z            0.00000   0.00000   1.00000
 This molecule is an asymmetric top.
 Rotational symmetry number  1.
 Rotational temperatures (Kelvin)      2.24182     0.10655     0.10320
 Rotational constants (GHZ):          46.71199     2.22017     2.15040
 Zero-point vibrational energy     157078.1 (Joules/Mol)
                                   37.54257 (Kcal/Mol)
 Warning -- explicit consideration of   7 degrees of freedom as
           vibrations may cause significant error
 Vibrational temperatures:    157.64   183.51   286.33   526.79   644.76
          (Kelvin)            739.65   756.56  1225.80  1281.22  1415.92
                             1416.15  1530.10  1665.99  1790.75  1914.63
                             2074.34  2625.97  4335.56  4382.90  4399.24
                             4430.46

 Zero-point correction=                           0.059828 (Hartree/Particle)
 Thermal correction to Energy=                    0.065930
 Thermal correction to Enthalpy=                  0.066874
 Thermal correction to Gibbs Free Energy=         0.029654
 Sum of electronic and zero-point Energies=           -229.877403
 Sum of electronic and thermal Energies=              -229.871300
 Sum of electronic and thermal Enthalpies=            -229.870356
 Sum of electronic and thermal Free Energies=         -229.907576

                     E (Thermal)             CV                S
                      KCal/Mol        Cal/Mol-Kelvin    Cal/Mol-Kelvin
 Total                   41.372             19.834             78.336
 Electronic               0.000              0.000              2.755
 Translational            0.889              2.981             38.570
 Rotational               0.889              2.981             24.781
 Vibrational             39.594             13.872             12.231
 Vibration     1          0.606              1.942              3.277
 Vibration     2          0.611              1.926              2.983
 Vibration     3          0.637              1.841              2.142
 Vibration     4          0.739              1.542              1.096
 Vibration     5          0.807              1.365              0.801
 Vibration     6          0.869              1.219              0.624
 Vibration     7          0.881              1.193              0.597

 Normal termination of Gaussian 09 at Fri Mar  8 00:46:43 2019.
