 Gaussian 09, Revision E.01,
 Gaussian 09:  EM64L-G09RevE.01 30-Nov-2015

 ------------------------------------------------------
 #p b3lyp/6-311++G(3df,2p) freq IOp(2/17=3) IOp(2/18=3)
 ------------------------------------------------------

 ---------
 b3lyp opt
 ---------
 Symbolic Z-matrix:
 Charge = -1 Multiplicity = 2

                         Standard orientation:
 ---------------------------------------------------------------------
 Center     Atomic      Atomic             Coordinates (Angstroms)
 Number     Number       Type             X           Y           Z
 ---------------------------------------------------------------------
      1          6           0        1.096529    0.357895    0.000000
      2          6           0       -0.806205   -0.869555   -0.000000
      3          8           0        0.698830   -0.955641    0.000000
      4          6           0       -1.225121    0.561823   -0.000000
      5          6           0       -0.000000    1.228943   -0.000000
      6          1           0        2.163794    0.527090    0.000000
      7          1           0       -1.137655   -1.432265   -0.886920
      8          1           0       -1.137655   -1.432265    0.886920
      9          1           0        0.129637    2.307887    0.000000
 ---------------------------------------------------------------------

 SCF Done:  E(UB3LYP) =  -230.027943400     A.U. after   19 cycles

 The electronic state is 2-A".
 Alpha  occ. eigenvalues --  -18.95860 -10.02787 -10.02464  -9.96444  -9.93021
 Alpha  occ. eigenvalues --   -0.86273  -0.57816  -0.53751  -0.39208  -0.35543
 Alpha  occ. eigenvalues --   -0.30049  -0.28110  -0.23698  -0.17335  -0.17110
 Alpha  occ. eigenvalues --   -0.15817  -0.08069  -0.00358   0.05449
 Alpha virt. eigenvalues --    0.11219   0.12719   0.13531   0.14513   0.18272
 Alpha virt. eigenvalues --    0.18715   0.20306   0.21202   0.21695   0.23120
 Alpha virt. eigenvalues --    0.23590   0.23785   0.25322   0.25742   0.26633

  Beta  occ. eigenvalues --  -18.95498 -10.02859 -10.01675  -9.96676  -9.92349
  Beta  occ. eigenvalues --   -0.85527  -0.57113  -0.52957  -0.38038  -0.35115
  Beta  occ. eigenvalues --   -0.29527  -0.26992  -0.23221  -0.17121  -0.15416
  Beta  occ. eigenvalues --   -0.14812  -0.06119   0.00714
  Beta virt. eigenvalues --    0.11210   0.12723   0.13488   0.13922   0.15342
  Beta virt. eigenvalues --    0.18227   0.18708   0.20960   0.21183   0.22698
  Beta virt. eigenvalues --    0.23068   0.23956   0.24360   0.25288   0.25848

 Mulliken charges and spin densities:
               1          2
     1  C    0.025279   0.694758
     2  C    0.018176  -0.124462
     3  O   -0.724497   0.071698
     4  C   -0.220182   0.626192
     5  C   -0.364484  -0.346673
     6  H    0.154214  -0.033794
     7  H    0.034541   0.057398
     8  H    0.034541   0.057398
     9  H    0.042413  -0.002515
 Sum of Mulliken charges =  -1.00000   1.00000

 Dipole moment (field-independent basis, Debye):
    X=              3.5170    Y=             -1.7441    Z=              0.0000  Tot=              3.9257
 Quadrupole moment (field-independent basis, Debye-Ang):
   XX=            -47.7804   YY=            -39.3700   ZZ=            -36.9810
   XY=              6.3964   XZ=             -0.0000   YZ=             -0.0000

  Exact polarizability: 114.477   1.072  82.780  -0.000   0.000  82.959
 Approx polarizability: 148.347   0.928 109.912  -0.000  -0.000  94.593

                      1                      2                      3
                     A"                     A"                     A"
 Frequencies --    175.2465               341.3738               503.0103
 Red. masses --      2.5904                 1.1335                 4.1722
 Frc consts  --      0.0469                 0.0778                 0.6220
 IR Inten    --      4.6446                43.0515                 7.4563

                      4                      5                      6
                     A'                     A'                     A"
 Frequencies --    633.9701               774.3860               833.0702
 Red. masses --      8.7865                 7.5800                 1.3021
 Frc consts  --      2.0807                 2.6782                 0.5324
 IR Inten    --     56.5585                 6.9875                 4.6893

                      7                      8                      9
                     A'                     A'                     A"
 Frequencies --    852.8612               935.5436               938.6856
 Red. masses --      7.2734                 2.8315                 1.5858
 Frc consts  --      3.1170                 1.4601                 0.8233
 IR Inten    --     19.5421                64.2119                12.9504

                     10                     11                     12
                     A'                     A'                     A"
 Frequencies --   1012.8113              1094.5122              1133.1916
 Red. masses --      3.4658                 1.8648                 1.0678
 Frc consts  --      2.0947                 1.3162                 0.8078
 IR Inten    --      4.7444                33.2979                 0.5768

                     13                     14                     15
                     A'                     A'                     A'
 Frequencies --   1204.2304              1271.2555              1324.2357
 Red. masses --      2.6535                 1.4511                 2.0024
 Frc consts  --      2.2672                 1.3817                 2.0688
 IR Inten    --     26.0482                22.5261                17.3415

                     16                     17                     18
                     A'                     A'                     A"
 Frequencies --   1400.1224              1453.1924              2874.0017
 Red. masses --      2.3152                 1.0979                 1.1099
 Frc consts  --      2.6741                 1.3661                 5.4016
 IR Inten    --     15.7757                 2.3311               316.5996

                     19                     20                     21
                     A'                     A'                     A'
 Frequencies --   2899.9732              3097.0205              3188.9563
 Red. masses --      1.0523                 1.0874                 1.0920
 Frc consts  --      5.2138                 6.1454                 6.5429
 IR Inten    --    281.6852                70.4276                64.6245

 - Thermochemistry -
 -------------------
 Temperature   298.150 Kelvin.  Pressure   1.00000 Atm.
 Atom     1 has atomic number  6 and mass  12.00000

 Molecular mass:    68.02621 amu.
 Principal axes and moments of inertia in atomic units:
                           1         2         3
     Eigenvalues --   201.46388 210.91599 401.05555
           X           -0.46192   0.88692   0.00000
           Y            0.88692   0.46192   0.00000
           Z           -0.00000  -0.00000   1.00000
 This molecule is an asymmetric top.
 Rotational symmetry number  1.
 Rotational temperatures (Kelvin)      0.42992     0.41066     0.21596
 Rotational constants (GHZ):           8.95814     8.55668     4.49998
 Zero-point vibrational energy     167128.2 (Joules/Mol)
                                   39.94459 (Kcal/Mol)
 Warning -- explicit consideration of   3 degrees of freedom as
           vibrations may cause significant error
 Vibrational temperatures:    252.14   491.16   723.72   912.14  1114.17
          (Kelvin)           1198.60  1227.08  1346.04  1350.56  1457.21
                             1574.76  1630.41  1732.62  1829.05  1905.28
                             2014.46  2090.82  4135.04  4172.41  4455.92
                             4588.19

 Zero-point correction=                           0.063656 (Hartree/Particle)
 Thermal correction to Energy=                    0.068273
 Thermal correction to Enthalpy=                  0.069217
 Thermal correction to Gibbs Free Energy=         0.035920
 Sum of electronic and zero-point Energies=           -229.964288
 Sum of electronic and thermal Energies=              -229.959671
 Sum of electronic and thermal Enthalpies=            -229.958727
 Sum of electronic and thermal Free Energies=         -229.992024

                     E (Thermal)             CV                S
                      KCal/Mol        Cal/Mol-Kelvin    Cal/Mol-Kelvin
 Total                   42.842             15.990             70.080
 Electronic               0.000              0.000              1.377
 Translational            0.889              2.981             38.570
 Rotational               0.889              2.981             24.348
 Vibrational             41.064             10.029              5.785
 Vibration     1          0.627              1.873              2.378
 Vibration     2          0.721              1.593              1.206
 Vibration     3          0.858              1.243              0.651

 Normal termination of Gaussian 09 at Thu Mar  7 15:16:49 2019.
