 Gaussian 09, Revision E.01,
 Gaussian 09:  EM64L-G09RevE.01 30-Nov-2015

 ------------------------------------------------------
 #p b3lyp/6-311++G(3df,2p) freq IOp(2/17=3) IOp(2/18=3)
 ------------------------------------------------------

 ---------
 b3lyp opt
 ---------
 Symbolic Z-matrix:
 Charge = -1 Multiplicity = 2

                         Standard orientation:
 ---------------------------------------------------------------------
 Center     Atomic      Atomic             Coordinates (Angstroms)
 Number     Number       Type             X           Y           Z
 ---------------------------------------------------------------------
      1          6           0       -0.945510   -0.451228    0.000000
      2          6           0        2.575260    0.015730   -0.000000
      3          8           0       -2.276884   -0.278505    0.000000
      4          6           0        1.384007    0.207576   -0.000000
      5          6           0        0.000000    0.503465   -0.000000
      6          1           0       -0.680573   -1.500077    0.000000
      7          1           0       -2.517509    0.671123    0.000000
      8          1           0        3.625691   -0.144028   -0.000000
      9          1           0       -0.295081    1.547767    0.000000
 ---------------------------------------------------------------------

 SCF Done:  E(UB3LYP) =  -230.033037013     A.U. after   28 cycles

 The electronic state is 2-A'.
 Alpha  occ. eigenvalues --  -19.04428 -10.12566 -10.06259 -10.06177 -10.04480
 Alpha  occ. eigenvalues --   -0.95289  -0.68361  -0.61255  -0.52459  -0.43637
 Alpha  occ. eigenvalues --   -0.39998  -0.38503  -0.30279  -0.29191  -0.26485
 Alpha  occ. eigenvalues --   -0.20669  -0.16526  -0.10693   0.05416
 Alpha virt. eigenvalues --    0.07202   0.09424   0.10012   0.11007   0.13444
 Alpha virt. eigenvalues --    0.15055   0.16477   0.16523   0.16917   0.17812
 Alpha virt. eigenvalues --    0.19901   0.20378   0.20980   0.21326   0.22339

  Beta  occ. eigenvalues --  -19.04326 -10.12562 -10.06224 -10.06168 -10.04449
  Beta  occ. eigenvalues --   -0.95103  -0.68304  -0.61202  -0.52276  -0.43558
  Beta  occ. eigenvalues --   -0.39844  -0.38451  -0.30171  -0.29122  -0.26367
  Beta  occ. eigenvalues --   -0.20629  -0.16473  -0.10650
  Beta virt. eigenvalues --    0.08199   0.09415   0.09695   0.10420   0.12291
  Beta virt. eigenvalues --    0.13628   0.15092   0.16677   0.16725   0.17241
  Beta virt. eigenvalues --    0.18493   0.20131   0.20462   0.21366   0.21771

 Mulliken charges and spin densities:
               1          2
     1  C    2.755636  -2.707185
     2  C   -1.266218   1.090064
     3  O   -0.667570   0.103999
     4  C    5.320362  -5.479696
     5  C   -3.518683   3.469416
     6  H   -0.014249   0.179747
     7  H   -0.824718   1.133026
     8  H   -1.327093   1.604282
     9  H   -1.457468   1.606346
 Sum of Mulliken charges =  -1.00000   1.00000

 Dipole moment (field-independent basis, Debye):
    X=              1.0892    Y=             -4.8675    Z=             -0.0000  Tot=              4.9879
 Quadrupole moment (field-independent basis, Debye-Ang):
   XX=            -92.7883   YY=            -56.5580   ZZ=            -48.6439
   XY=              9.4024   XZ=              0.0000   YZ=             -0.0000

  Exact polarizability:3080.141-655.130 826.993  -0.000  -0.000 201.918
 Approx polarizability:4912.271******** 730.507  -0.000   0.000 179.688

                      1                      2                      3
                     A'                     A"                     A"
 Frequencies --    167.7181               207.8408               433.3383
 Red. masses --      4.1306                 2.9774                 1.2669
 Frc consts  --      0.0685                 0.0758                 0.1402
 IR Inten    --     87.2747               159.0296                37.2421

                      4                      5                      6
                     A'                     A"                     A'
 Frequencies --    435.3589               542.5622               542.9712
 Red. masses --      3.7518                 3.1672                 6.3028
 Frc consts  --      0.4190                 0.5493                 1.0948
 IR Inten    --    169.4119               261.0529               125.6649

                      7                      8                      9
                     A"                     A'                     A"
 Frequencies --    618.6553               685.3381               883.9590
 Red. masses --      1.4346                 1.2724                 2.1151
 Frc consts  --      0.3235                 0.3521                 0.9737
 IR Inten    --    131.0263               362.3514               242.3803

                     10                     11                     12
                     A"                     A'                     A'
 Frequencies --    944.8036              1030.5385              1133.9956
 Red. masses --      1.0901                 3.2639                 2.2370
 Frc consts  --      0.5733                 2.0423                 1.6949
 IR Inten    --     77.9620               331.0636              1638.6947

                     13                     14                     15
                     A'                     A'                     A'
 Frequencies --   1258.1904              1338.9878              1378.3672
 Red. masses --      1.7423                 1.3845                 1.2814
 Frc consts  --      1.6251                 1.4625                 1.4343
 IR Inten    --    105.1363               167.2045               250.1803

                     16                     17                     18
                     A'                     A'                     A'
 Frequencies --   1651.5483              2166.0727              3112.8691
 Red. masses --      4.8935                 6.2156                 1.0883
 Frc consts  --      7.8641                17.1822                 6.2133
 IR Inten    --   2422.0616               188.0467               771.4496

                     19                     20                     21
                     A'                     A'                     A'
 Frequencies --   3175.0061              3397.9218              3434.0025
 Red. masses --      1.0905                 1.0702                 1.1498
 Frc consts  --      6.4766                 7.2803                 7.9884
 IR Inten    --    302.2021             14887.6434               733.4069

 - Thermochemistry -
 -------------------
 Temperature   298.150 Kelvin.  Pressure   1.00000 Atm.
 Atom     1 has atomic number  6 and mass  12.00000

 Molecular mass:    68.02621 amu.
 Principal axes and moments of inertia in atomic units:
                           1         2         3
     Eigenvalues --    38.93107 778.15086 817.08193
           X            0.99638  -0.08501   0.00000
           Y            0.08501   0.99638   0.00000
           Z           -0.00000  -0.00000   1.00000
 This molecule is an asymmetric top.
 Rotational symmetry number  1.
 Rotational temperatures (Kelvin)      2.22480     0.11131     0.10600
 Rotational constants (GHZ):          46.35735     2.31927     2.20876
 Zero-point vibrational energy     170707.4 (Joules/Mol)
                                   40.80004 (Kcal/Mol)
 Warning -- explicit consideration of   7 degrees of freedom as
           vibrations may cause significant error
 Vibrational temperatures:    241.31   299.04   623.48   626.38   780.63
          (Kelvin)            781.21   890.11   986.05  1271.82  1359.36
                             1482.71  1631.56  1810.25  1926.50  1983.16
                             2376.21  3116.49  4478.72  4568.12  4888.85
                             4940.76

 Zero-point correction=                           0.065019 (Hartree/Particle)
 Thermal correction to Energy=                    0.070417
 Thermal correction to Enthalpy=                  0.071361
 Thermal correction to Gibbs Free Energy=         0.036570
 Sum of electronic and zero-point Energies=           -229.968018
 Sum of electronic and thermal Energies=              -229.962620
 Sum of electronic and thermal Enthalpies=            -229.961676
 Sum of electronic and thermal Free Energies=         -229.996467

                     E (Thermal)             CV                S
                      KCal/Mol        Cal/Mol-Kelvin    Cal/Mol-Kelvin
 Total                   44.187             18.649             73.224
 Electronic               0.000              0.000              1.377
 Translational            0.889              2.981             38.570
 Rotational               0.889              2.981             24.718
 Vibrational             42.410             12.688              8.559
 Vibration     1          0.624              1.882              2.461
 Vibration     2          0.641              1.829              2.063
 Vibration     3          0.794              1.398              0.848
 Vibration     4          0.796              1.393              0.841
 Vibration     5          0.898              1.156              0.560
 Vibration     6          0.898              1.155              0.559
 Vibration     7          0.979              0.992              0.419

 Normal termination of Gaussian 09 at Fri Mar  8 07:17:16 2019.
