 Gaussian 09, Revision E.01,
 Gaussian 09:  EM64L-G09RevE.01 30-Nov-2015

 ------------------------------------------------------
 #p b3lyp/6-311++G(3df,2p) freq IOp(2/17=3) IOp(2/18=3)
 ------------------------------------------------------

 ---------
 b3lyp opt
 ---------
 Symbolic Z-matrix:
 Charge = -1 Multiplicity = 4

                         Standard orientation:
 ---------------------------------------------------------------------
 Center     Atomic      Atomic             Coordinates (Angstroms)
 Number     Number       Type             X           Y           Z
 ---------------------------------------------------------------------
      1          8           0        2.273101    1.244844    0.000000
      2          6           0       -1.676808   -1.638885    0.000000
      3          6           0       -1.268619   -0.193052    0.000000
      4          6           0        0.000000    0.274340    0.000000
      5          6           0        1.157927    0.812785    0.000000
      6          1           0       -2.291001   -1.868208    0.879430
      7          1           0       -2.291001   -1.868208   -0.879430
      8          1           0       -0.819354   -2.309840    0.000000
      9          1           0       -2.058457    0.556371    0.000000
 ---------------------------------------------------------------------

 SCF Done:  E(UB3LYP) =  -229.987882948     A.U. after   28 cycles

 The electronic state is 4-A".
 Alpha  occ. eigenvalues --  -19.06996 -10.15529 -10.11075 -10.07365 -10.05046
 Alpha  occ. eigenvalues --   -0.98675  -0.70997  -0.63614  -0.53586  -0.40537
 Alpha  occ. eigenvalues --   -0.38012  -0.35030  -0.34276  -0.30682  -0.29925
 Alpha  occ. eigenvalues --   -0.26235  -0.19672  -0.15859  -0.04978   0.05491
 Alpha virt. eigenvalues --    0.09183   0.10109   0.11007   0.12388   0.15064
 Alpha virt. eigenvalues --    0.15446   0.15730   0.15877   0.17684   0.18365
 Alpha virt. eigenvalues --    0.19255   0.21571   0.21810   0.22418   0.22494

  Beta  occ. eigenvalues --  -19.05692 -10.14957 -10.10370 -10.06388 -10.04920
  Beta  occ. eigenvalues --   -0.96309  -0.67874  -0.61149  -0.51949  -0.38721
  Beta  occ. eigenvalues --   -0.36465  -0.31028  -0.30864  -0.28526  -0.28459
  Beta  occ. eigenvalues --   -0.25567  -0.16341
  Beta virt. eigenvalues --   -0.04259   0.05591   0.08840   0.10689   0.11181
  Beta virt. eigenvalues --    0.12588   0.13378   0.15746   0.15836   0.16234
  Beta virt. eigenvalues --    0.18391   0.18396   0.19048   0.20228   0.21919

 Mulliken charges and spin densities:
               1          2
     1  O   -0.632233   0.399458
     2  C    4.234584  -4.710057
     3  C   -4.717513   5.575431
     4  C    2.121947  -0.748362
     5  C    2.412375  -2.612303
     6  H   -0.601748   0.781636
     7  H   -0.601748   0.781636
     8  H   -1.189793   1.326604
     9  H   -2.025871   2.205956
 Sum of Mulliken charges =  -1.00000   3.00000

 Dipole moment (field-independent basis, Debye):
    X=              6.6837    Y=              3.0935    Z=              0.0000  Tot=              7.3649
 Quadrupole moment (field-independent basis, Debye-Ang):
   XX=            -80.1082   YY=            -65.1332   ZZ=            -53.2605
   XY=             -9.8473   XZ=             -0.0000   YZ=              0.0000

  Exact polarizability: 992.683-189.0811462.594   0.000   0.000 764.183
 Approx polarizability: 854.255-130.4371210.844   0.000  -0.000 552.201

                      1                      2                      3
                     A"                     A'                     A"
 Frequencies --     68.4423               120.4419               157.4653
 Red. masses --      1.1881                 4.3710                 8.5007
 Frc consts  --      0.0033                 0.0374                 0.1242
 IR Inten    --      7.7246                17.4080                34.2637

                      4                      5                      6
                     A"                     A'                     A'
 Frequencies --    251.4913               368.0954               471.6357
 Red. masses --      5.2479                 7.5735                 5.5788
 Frc consts  --      0.1956                 0.6046                 0.7311
 IR Inten    --     95.7877                88.5258               467.4394

                      7                      8                      9
                     A"                     A'                     A'
 Frequencies --    581.8041               766.7250              1004.3310
 Red. masses --      1.3001                 3.7999                 1.4070
 Frc consts  --      0.2593                 1.3162                 0.8361
 IR Inten    --    282.9364                17.0182                85.5077

                     10                     11                     12
                     A"                     A'                     A'
 Frequencies --   1020.1391              1076.3987              1277.9511
 Red. masses --      1.3468                 3.1803                 1.4738
 Frc consts  --      0.8258                 2.1710                 1.4181
 IR Inten    --     26.2649                 0.8978                86.2694

                     13                     14                     15
                     A'                     A'                     A"
 Frequencies --   1380.9868              1463.5079              1464.2908
 Red. masses --      1.2366                 1.1113                 1.0446
 Frc consts  --      1.3895                 1.4024                 1.3197
 IR Inten    --    379.3065               323.5185               393.5943

                     16                     17                     18
                     A'                     A'                     A'
 Frequencies --   1523.3292              2111.9600              2946.0460
 Red. masses --      5.3362                12.3304                 1.0411
 Frc consts  --      7.2957                32.4041                 5.3238
 IR Inten    --     60.9245                58.0960                 3.2657

                     19                     20                     21
                     A"                     A'                     A'
 Frequencies --   2994.6579              3066.8552              3087.4092
 Red. masses --      1.0991                 1.0810                 1.0945
 Frc consts  --      5.8073                 5.9902                 6.1469
 IR Inten    --     16.2802               433.8952                82.9880

 - Thermochemistry -
 -------------------
 Temperature   298.150 Kelvin.  Pressure   1.00000 Atm.
 Atom     1 has atomic number  8 and mass  15.99491

 Molecular mass:    68.02621 amu.
 Principal axes and moments of inertia in atomic units:
                           1         2         3
     Eigenvalues --    48.97988 837.40836 875.25439
           X            0.83614  -0.54852   0.00000
           Y            0.54852   0.83614   0.00000
           Z            0.00000  -0.00000   1.00000
 This molecule is an asymmetric top.
 Rotational symmetry number  1.
 Rotational temperatures (Kelvin)      1.76836     0.10343     0.09896
 Rotational constants (GHZ):          36.84658     2.15515     2.06196
 Zero-point vibrational energy     162715.8 (Joules/Mol)
                                   38.89002 (Kcal/Mol)
 Warning -- explicit consideration of   7 degrees of freedom as
           vibrations may cause significant error
 Vibrational temperatures:     98.47   173.29   226.56   361.84   529.61
          (Kelvin)            678.58   837.09  1103.14  1445.01  1467.75
                             1548.70  1838.68  1986.93  2105.66  2106.79
                             2191.73  3038.64  4238.70  4308.64  4412.52
                             4442.09

 Zero-point correction=                           0.061975 (Hartree/Particle)
 Thermal correction to Energy=                    0.068396
 Thermal correction to Enthalpy=                  0.069341
 Thermal correction to Gibbs Free Energy=         0.030913
 Sum of electronic and zero-point Energies=           -229.925908
 Sum of electronic and thermal Energies=              -229.919487
 Sum of electronic and thermal Enthalpies=            -229.918542
 Sum of electronic and thermal Free Energies=         -229.956970

                     E (Thermal)             CV                S
                      KCal/Mol        Cal/Mol-Kelvin    Cal/Mol-Kelvin
 Total                   42.919             19.695             80.877
 Electronic               0.000              0.000              2.755
 Translational            0.889              2.981             38.570
 Rotational               0.889              2.981             25.088
 Vibrational             41.142             13.733             14.465
 Vibration     1          0.598              1.969              4.198
 Vibration     2          0.609              1.932              3.093
 Vibration     3          0.621              1.894              2.580
 Vibration     4          0.663              1.760              1.720
 Vibration     5          0.741              1.538              1.088
 Vibration     6          0.829              1.313              0.733
 Vibration     7          0.939              1.071              0.482

 Optimization completed.
    -- Stationary point found.
 Normal termination of Gaussian 09 at Thu Mar  7 21:59:07 2019.
