 Gaussian 09, Revision E.01,
 Gaussian 09:  EM64L-G09RevE.01 30-Nov-2015

 ------------------------------------------------------
 #p b3lyp/6-311++G(3df,2p) freq IOp(2/17=3) IOp(2/18=3)
 ------------------------------------------------------

 ---------
 b3lyp opt
 ---------
 Symbolic Z-matrix:
 Charge = -1 Multiplicity = 4

                         Standard orientation:
 ---------------------------------------------------------------------
 Center     Atomic      Atomic             Coordinates (Angstroms)
 Number     Number       Type             X           Y           Z
 ---------------------------------------------------------------------
      1          8           0        2.289985   -0.593053    0.000143
      2          6           0       -2.501052   -0.157139    0.000554
      3          6           0       -1.070672    0.082914   -0.000330
      4          6           0        0.139690    0.254844   -0.000073
      5          6           0        1.494188    0.478447    0.000045
      6          1           0       -2.832500   -0.652800    0.921302
      7          1           0       -2.808251   -0.782537   -0.846979
      8          1           0       -3.050302    0.783820   -0.076746
      9          1           0        1.998250    1.441543    0.000095
 ---------------------------------------------------------------------

 SCF Done:  E(UB3LYP) =  -229.939440694     A.U. after   31 cycles

 The electronic state is 4-A.
 Alpha  occ. eigenvalues --  -19.10628 -10.12876 -10.07450 -10.06545 -10.06237
 Alpha  occ. eigenvalues --   -0.96665  -0.68171  -0.62273  -0.54931  -0.43874
 Alpha  occ. eigenvalues --   -0.37892  -0.34959  -0.32876  -0.31138  -0.31118
 Alpha  occ. eigenvalues --   -0.27461  -0.19133  -0.16527  -0.06030   0.05415
 Alpha virt. eigenvalues --    0.07684   0.10401   0.10792   0.12717   0.13655
 Alpha virt. eigenvalues --    0.14706   0.15180   0.17305   0.18855   0.19084
 Alpha virt. eigenvalues --    0.19875   0.20450   0.20921   0.21558   0.22156

  Beta  occ. eigenvalues --  -19.07770 -10.11915 -10.06739 -10.06488 -10.06324
  Beta  occ. eigenvalues --   -0.90242  -0.66801  -0.60921  -0.52322  -0.40197
  Beta  occ. eigenvalues --   -0.35083  -0.33957  -0.30693  -0.30620  -0.27322
  Beta  occ. eigenvalues --   -0.16301  -0.15853
  Beta virt. eigenvalues --   -0.07244   0.05159   0.08548   0.09438   0.11792
  Beta virt. eigenvalues --    0.12435   0.13832   0.14398   0.15422   0.15608
  Beta virt. eigenvalues --    0.18117   0.19352   0.19591   0.20435   0.21527

 Mulliken charges and spin densities:
               1          2
     1  O   -0.366521   1.037796
     2  C    6.294696  -6.824224
     3  C   -3.597836   4.224932
     4  C   -1.460907   1.565019
     5  C    1.566783  -1.170341
     6  H   -0.860294   1.035509
     7  H   -0.860071   1.033372
     8  H   -0.842186   0.998319
     9  H   -0.873664   1.099618
 Sum of Mulliken charges =  -1.00000   3.00000

 Dipole moment (field-independent basis, Debye):
    X=              6.6515    Y=             -0.9956    Z=              0.0046  Tot=              6.7256
 Quadrupole moment (field-independent basis, Debye-Ang):
   XX=            -89.9225   YY=            -58.3595   ZZ=            -52.4007
   XY=             -5.1310   XZ=              0.0071   YZ=             -0.0272

  Exact polarizability:2674.834 912.6221268.036   5.880   0.454 727.425
 Approx polarizability:2772.8341056.3841101.997   2.245   0.919 519.162

                      1                      2                      3
                      A                      A                      A
 Frequencies --     27.4864                94.1607               172.9397
 Red. masses --      1.1857                 7.7648                 3.1362
 Frc consts  --      0.0005                 0.0406                 0.0553
 IR Inten    --      0.5680                86.4014                36.5948

                      4                      5                      6
                      A                      A                      A
 Frequencies --    215.5443               291.6967               381.6444
 Red. masses --      3.4093                 1.4584                 7.1334
 Frc consts  --      0.0933                 0.0731                 0.6122
 IR Inten    --    324.8771                61.5770                29.7211

                      7                      8                      9
                      A                      A                      A
 Frequencies --    434.4382               756.8728              1024.0148
 Red. masses --      7.9131                 4.6117                 1.3505
 Frc consts  --      0.8799                 1.5565                 0.8344
 IR Inten    --     59.2049                15.8563                32.6612

                     10                     11                     12
                      A                      A                      A
 Frequencies --   1027.6621              1112.2715              1191.4815
 Red. masses --      1.4000                 2.9774                 1.7116
 Frc consts  --      0.8711                 2.1703                 1.4316
 IR Inten    --    104.5010               501.0261               795.0470

                     13                     14                     15
                      A                      A                      A
 Frequencies --   1340.3271              1391.5047              1440.5446
 Red. masses --      3.7417                 1.3134                 1.0403
 Frc consts  --      3.9605                 1.4983                 1.2719
 IR Inten    --    431.8387               208.0049               537.2246

                     16                     17                     18
                      A                      A                      A
 Frequencies --   1442.4072              2110.3303              2938.5946
 Red. masses --      1.0452                11.6378                 1.0438
 Frc consts  --      1.2812                30.5367                 5.3108
 IR Inten    --    362.1200               702.7485               188.0212

                     19                     20                     21
                      A                      A                      A
 Frequencies --   2991.4593              3029.4730              3088.3174
 Red. masses --      1.1003                 1.0905                 1.0816
 Frc consts  --      5.8011                 5.8969                 6.0777
 IR Inten    --     71.6319              1114.8863              1269.1862

 - Thermochemistry -
 -------------------
 Temperature   298.150 Kelvin.  Pressure   1.00000 Atm.
 Atom     1 has atomic number  8 and mass  15.99491

 Molecular mass:    68.02621 amu.
 Principal axes and moments of inertia in atomic units:
                           1         2         3
     Eigenvalues --    52.76454 822.01146 863.46025
           X            0.99979   0.02051   0.00002
           Y           -0.02051   0.99979   0.00012
           Z           -0.00001  -0.00012   1.00000
 This molecule is an asymmetric top.
 Rotational symmetry number  1.
 Rotational temperatures (Kelvin)      1.64152     0.10537     0.10031
 Rotational constants (GHZ):          34.20368     2.19552     2.09013
 Zero-point vibrational energy     158524.2 (Joules/Mol)
                                   37.88819 (Kcal/Mol)
 Warning -- explicit consideration of   7 degrees of freedom as
           vibrations may cause significant error
 Vibrational temperatures:     39.55   135.48   248.82   310.12   419.69
          (Kelvin)            549.10   625.06  1088.97  1473.33  1478.57
                             1600.31  1714.27  1928.43  2002.06  2072.62
                             2075.30  3036.29  4227.98  4304.04  4358.73
                             4443.39

 Zero-point correction=                           0.060379 (Hartree/Particle)
 Thermal correction to Energy=                    0.067246
 Thermal correction to Enthalpy=                  0.068191
 Thermal correction to Gibbs Free Energy=         0.028109
 Sum of electronic and zero-point Energies=           -229.879062
 Sum of electronic and thermal Energies=              -229.872194
 Sum of electronic and thermal Enthalpies=            -229.871250
 Sum of electronic and thermal Free Energies=         -229.911331

                     E (Thermal)             CV                S
                      KCal/Mol        Cal/Mol-Kelvin    Cal/Mol-Kelvin
 Total                   42.198             20.521             84.359
 Electronic               0.000              0.000              2.755
 Translational            0.889              2.981             38.570
 Rotational               0.889              2.981             25.130
 Vibrational             40.420             14.559             17.904
 Vibration     1          0.593              1.984              6.003
 Vibration     2          0.603              1.953              3.572
 Vibration     3          0.626              1.876              2.403
 Vibration     4          0.645              1.817              1.996
 Vibration     5          0.687              1.689              1.464
 Vibration     6          0.751              1.509              1.033
 Vibration     7          0.795              1.395              0.844

 Normal termination of Gaussian 09 at Fri Mar  8 01:42:50 2019.
