 Gaussian 09, Revision E.01,
 Gaussian 09:  EM64L-G09RevE.01 30-Nov-2015

 ------------------------------------------------------
 #p b3lyp/6-311++G(3df,2p) freq IOp(2/17=3) IOp(2/18=3)
 ------------------------------------------------------

 ---------
 b3lyp opt
 ---------
 Symbolic Z-matrix:
 Charge = -1 Multiplicity = 4

                         Standard orientation:
 ---------------------------------------------------------------------
 Center     Atomic      Atomic             Coordinates (Angstroms)
 Number     Number       Type             X           Y           Z
 ---------------------------------------------------------------------
      1          6           0        1.090060    0.302287    0.000000
      2          6           0       -1.198415    0.297035    0.000000
      3          8           0        0.000000    1.129571    0.000000
      4          6           0       -0.624420   -1.071116    0.000000
      5          6           0        0.747911   -1.037743    0.000000
      6          1           0        2.053120    0.785743    0.000000
      7          1           0       -1.795507    0.547525    0.887114
      8          1           0       -1.795507    0.547525   -0.887114
      9          1           0        1.447072   -1.860144    0.000000
 ---------------------------------------------------------------------

 SCF Done:  E(UB3LYP) =  -229.951078779     A.U. after   23 cycles

 The electronic state is 4-A".
 Alpha  occ. eigenvalues --  -19.04509 -10.11547 -10.10737 -10.08445 -10.05751
 Alpha  occ. eigenvalues --   -0.96000  -0.68932  -0.63209  -0.47793  -0.45405
 Alpha  occ. eigenvalues --   -0.39648  -0.36748  -0.32164  -0.29285  -0.24959
 Alpha  occ. eigenvalues --   -0.24742  -0.18366  -0.16215  -0.04276   0.05732
 Alpha virt. eigenvalues --    0.08241   0.09431   0.10317   0.13953   0.14418
 Alpha virt. eigenvalues --    0.14419   0.17050   0.17067   0.19047   0.19377
 Alpha virt. eigenvalues --    0.20585   0.21285   0.21583   0.22023   0.22774

  Beta  occ. eigenvalues --  -19.04006 -10.11470 -10.09848 -10.06117 -10.05947
  Beta  occ. eigenvalues --   -0.94827  -0.66775  -0.61803  -0.46063  -0.43880
  Beta  occ. eigenvalues --   -0.37472  -0.35217  -0.31109  -0.28217  -0.23729
  Beta  occ. eigenvalues --   -0.22366  -0.15472
  Beta virt. eigenvalues --    0.00802   0.06968   0.08975   0.10200   0.11063
  Beta virt. eigenvalues --    0.11736   0.14802   0.15523   0.16663   0.17481
  Beta virt. eigenvalues --    0.17753   0.19807   0.20161   0.21083   0.21713

 Mulliken charges and spin densities:
               1          2
     1  C    0.791698  -0.146534
     2  C    2.835468  -2.829122
     3  O   -0.789959   0.257196
     4  C   -0.363221   1.859815
     5  C    0.647105  -1.004081
     6  H   -1.369169   1.558633
     7  H   -0.764466   0.949300
     8  H   -0.764466   0.949300
     9  H   -1.222992   1.405494
 Sum of Mulliken charges =  -1.00000   3.00000

 Dipole moment (field-independent basis, Debye):
    X=             -1.6691    Y=              0.3252    Z=              0.0000  Tot=              1.7005
 Quadrupole moment (field-independent basis, Debye-Ang):
   XX=            -77.1097   YY=            -58.4617   ZZ=            -54.5082
   XY=              5.2421   XZ=             -0.0000   YZ=              0.0000

  Exact polarizability:2448.632-286.4561666.469   0.000  -0.000 949.526
 Approx polarizability:2845.886-513.4861078.610  -0.000   0.000 595.588

                      1                      2                      3
                     A"                     A"                     A"
 Frequencies --    244.8466               501.9920               637.9524
 Red. masses --      2.5149                 3.1166                 1.2962
 Frc consts  --      0.0888                 0.4627                 0.3108
 IR Inten    --     62.0854                 0.5625               308.2013

                      4                      5                      6
                     A'                     A'                     A"
 Frequencies --    742.8058               821.0565               854.7966
 Red. masses --      7.0188                 7.5751                 1.3004
 Frc consts  --      2.2817                 3.0087                 0.5598
 IR Inten    --     47.9310               261.3731               163.5302

                      7                      8                      9
                     A'                     A'                     A"
 Frequencies --    868.2135               934.0441               996.1419
 Red. masses --      4.1876                 2.5606                 1.5484
 Frc consts  --      1.8598                 1.3162                 0.9053
 IR Inten    --    557.3832                92.5623                 3.7192

                     10                     11                     12
                     A'                     A'                     A"
 Frequencies --   1061.7351              1131.3168              1159.6541
 Red. masses --      3.5590                 1.9930                 1.0733
 Frc consts  --      2.3638                 1.5029                 0.8504
 IR Inten    --     40.9681               543.1576                 0.2643

                     13                     14                     15
                     A'                     A'                     A'
 Frequencies --   1245.0299              1318.4901              1338.6918
 Red. masses --      1.5277                 2.7912                 2.0003
 Frc consts  --      1.3953                 2.8589                 2.1121
 IR Inten    --     63.7159               133.7903                25.3183

                     16                     17                     18
                     A'                     A'                     A'
 Frequencies --   1453.2618              1473.4977              2927.7967
 Red. masses --      2.7949                 1.0916                 1.0548
 Frc consts  --      3.4777                 1.3964                 5.3272
 IR Inten    --    171.5098               728.2861                29.0715

                     19                     20                     21
                     A"                     A'                     A'
 Frequencies --   2959.3088              3190.8960              3220.2933
 Red. masses --      1.1073                 1.0927                 1.0974
 Frc consts  --      5.7133                 6.5549                 6.7049
 IR Inten    --      0.0008               217.2549                 3.5855

 - Thermochemistry -
 -------------------
 Temperature   298.150 Kelvin.  Pressure   1.00000 Atm.
 Atom     1 has atomic number  6 and mass  12.00000

 Molecular mass:    68.02621 amu.
 Principal axes and moments of inertia in atomic units:
                           1         2         3
     Eigenvalues --   184.56536 218.54153 391.77762
           X            0.77019   0.63781   0.00000
           Y           -0.63781   0.77019   0.00000
           Z           -0.00000   0.00000   1.00000
 This molecule is an asymmetric top.
 Rotational symmetry number  1.
 Rotational temperatures (Kelvin)      0.46929     0.39633     0.22108
 Rotational constants (GHZ):           9.77833     8.25812     4.60654
 Zero-point vibrational energy     173947.9 (Joules/Mol)
                                   41.57455 (Kcal/Mol)
 Warning -- explicit consideration of   2 degrees of freedom as
           vibrations may cause significant error
 Vibrational temperatures:    352.28   722.25   917.87  1068.73  1181.32
          (Kelvin)           1229.86  1249.16  1343.88  1433.22  1527.60
                             1627.71  1668.48  1791.32  1897.01  1926.08
                             2090.92  2120.03  4212.44  4257.78  4590.98
                             4633.28

 Zero-point correction=                           0.066253 (Hartree/Particle)
 Thermal correction to Energy=                    0.070437
 Thermal correction to Enthalpy=                  0.071382
 Thermal correction to Gibbs Free Energy=         0.038272
 Sum of electronic and zero-point Energies=           -229.884826
 Sum of electronic and thermal Energies=              -229.880641
 Sum of electronic and thermal Enthalpies=            -229.879697
 Sum of electronic and thermal Free Energies=         -229.912807

                     E (Thermal)             CV                S
                      KCal/Mol        Cal/Mol-Kelvin    Cal/Mol-Kelvin
 Total                   44.200             14.662             69.686
 Electronic               0.000              0.000              2.755
 Translational            0.889              2.981             38.570
 Rotational               0.889              2.981             24.273
 Vibrational             42.423              8.701              4.089
 Vibration     1          0.660              1.771              1.767
 Vibration     2          0.857              1.246              0.653

 Normal termination of Gaussian 09 at Thu Mar  7 17:54:39 2019.
