 Gaussian 09, Revision E.01,
 Gaussian 09:  EM64L-G09RevE.01 30-Nov-2015

 ------------------------------------------------------
 #p b3lyp/6-311++G(3df,2p) freq IOp(2/17=3) IOp(2/18=3)
 ------------------------------------------------------

 ---------
 b3lyp opt
 ---------
 Symbolic Z-matrix:
 Charge = -1 Multiplicity = 4

                         Standard orientation:
 ---------------------------------------------------------------------
 Center     Atomic      Atomic             Coordinates (Angstroms)
 Number     Number       Type             X           Y           Z
 ---------------------------------------------------------------------
      1          6           0        2.464347   -0.474377    0.000000
      2          6           0       -1.238673   -0.208040    0.000000
      3          8           0       -2.414354    0.374078    0.000000
      4          6           0        0.000000    0.459925    0.000000
      5          6           0        1.214148   -0.101313    0.000000
      6          1           0        3.016578   -0.650810    0.922930
      7          1           0       -1.312565   -1.296779    0.000000
      8          1           0       -0.044693    1.548600    0.000000
      9          1           0        3.016578   -0.650810   -0.922930
 ---------------------------------------------------------------------

 SCF Done:  E(UB3LYP) =  -229.937261872     A.U. after   29 cycles

 The electronic state is 4-A".
 Alpha  occ. eigenvalues --  -19.10083 -10.11828 -10.07468 -10.06351 -10.05049
 Alpha  occ. eigenvalues --   -0.96882  -0.68886  -0.61498  -0.51128  -0.44267
 Alpha  occ. eigenvalues --   -0.37731  -0.36334  -0.32742  -0.32065  -0.31592
 Alpha  occ. eigenvalues --   -0.25883  -0.17979  -0.15303  -0.04174   0.05741
 Alpha virt. eigenvalues --    0.08650   0.09238   0.10359   0.11590   0.13894
 Alpha virt. eigenvalues --    0.14104   0.15979   0.16836   0.16877   0.19885
 Alpha virt. eigenvalues --    0.19998   0.20756   0.20972   0.22476   0.22758

  Beta  occ. eigenvalues --  -19.07330 -10.10941 -10.07579 -10.05541 -10.05035
  Beta  occ. eigenvalues --   -0.90770  -0.67383  -0.60192  -0.48141  -0.41448
  Beta  occ. eigenvalues --   -0.35614  -0.34008  -0.30868  -0.30129  -0.27393
  Beta  occ. eigenvalues --   -0.15474  -0.14650
  Beta virt. eigenvalues --   -0.07108   0.06726   0.08918   0.10326   0.10490
  Beta virt. eigenvalues --    0.11771   0.12667   0.14492   0.15353   0.16870
  Beta virt. eigenvalues --    0.17358   0.17714   0.20312   0.20495   0.21031

 Mulliken charges and spin densities:
               1          2
     1  C    5.089961  -5.712489
     2  C    2.097629  -1.568383
     3  O   -0.475792   1.081668
     4  C   -8.246437   7.870426
     5  C    4.642758  -3.627404
     6  H   -0.457182   0.645377
     7  H   -1.474462   1.781127
     8  H   -1.719292   1.884302
     9  H   -0.457182   0.645377
 Sum of Mulliken charges =  -1.00000   3.00000

 Dipole moment (field-independent basis, Debye):
    X=             -3.6127    Y=              0.2837    Z=             -0.0000  Tot=              3.6239
 Quadrupole moment (field-independent basis, Debye-Ang):
   XX=            -72.9800   YY=            -61.3068   ZZ=            -54.0841
   XY=             -2.3916   XZ=             -0.0000   YZ=              0.0000

  Exact polarizability:2228.782  93.7491927.143  -0.000   0.000 949.719
 Approx polarizability:1652.069 277.9291407.586   0.000   0.000 566.939

                      1                      2                      3
                     A"                     A'                     A"
 Frequencies --    123.3780               173.2562               191.3286
 Red. masses --      4.5162                 4.0962                 2.5526
 Frc consts  --      0.0405                 0.0724                 0.0551
 IR Inten    --      3.6903               177.7818                 5.4590

                      4                      5                      6
                     A'                     A"                     A'
 Frequencies --    375.1815               461.8698               542.8570
 Red. masses --      7.0643                 1.3543                 6.2405
 Frc consts  --      0.5859                 0.1702                 1.0835
 IR Inten    --    322.8537                71.2986               425.3731

                      7                      8                      9
                     A"                     A'                     A"
 Frequencies --    545.0782               854.7679               893.5122
 Red. masses --      1.3899                 1.3305                 1.2958
 Frc consts  --      0.2433                 0.5727                 0.6095
 IR Inten    --    206.9958               336.4232              2056.7222

                     10                     11                     12
                     A"                     A'                     A'
 Frequencies --    984.9453               986.0296              1075.2002
 Red. masses --      1.4282                 4.1916                 2.8827
 Frc consts  --      0.8163                 2.4011                 1.9635
 IR Inten    --      6.5187               514.7598               469.7551

                     13                     14                     15
                     A'                     A'                     A'
 Frequencies --   1166.1628              1250.8714              1330.8605
 Red. masses --      1.1972                 4.0967                 1.5889
 Frc consts  --      0.9593                 3.7767                 1.6581
 IR Inten    --    285.5436                 4.8057               344.0820

                     16                     17                     18
                     A'                     A'                     A'
 Frequencies --   1441.7985              1832.8539              3013.2283
 Red. masses --      1.2312                10.4921                 1.0532
 Frc consts  --      1.5080                20.7668                 5.6344
 IR Inten    --    541.9377              1868.5484               873.5532

                     19                     20                     21
                     A'                     A'                     A"
 Frequencies --   3046.5008              3058.3866              3080.0289
 Red. masses --      1.0815                 1.0816                 1.1127
 Frc consts  --      5.9140                 5.9609                 6.2193
 IR Inten    --   2227.3258               377.4061                 0.0497

 - Thermochemistry -
 -------------------
 Temperature   298.150 Kelvin.  Pressure   1.00000 Atm.
 Atom     1 has atomic number  6 and mass  12.00000

 Molecular mass:    68.02621 amu.
 Principal axes and moments of inertia in atomic units:
                           1         2         3
     Eigenvalues --    38.59836 813.03689 839.37271
           X            0.99079   0.13543   0.00000
           Y           -0.13543   0.99079   0.00000
           Z           -0.00000   0.00000   1.00000
 This molecule is an asymmetric top.
 Rotational symmetry number  1.
 Rotational temperatures (Kelvin)      2.24398     0.10653     0.10319
 Rotational constants (GHZ):          46.75694     2.21975     2.15011
 Zero-point vibrational energy     158075.1 (Joules/Mol)
                                   37.78086 (Kcal/Mol)
 Warning -- explicit consideration of   7 degrees of freedom as
           vibrations may cause significant error
 Vibrational temperatures:    177.51   249.28   275.28   539.80   664.53
          (Kelvin)            781.05   784.24  1229.82  1285.56  1417.11
                             1418.67  1546.97  1677.85  1799.72  1914.81
                             2074.42  2637.06  4335.36  4383.23  4400.33
                             4431.47

 Zero-point correction=                           0.060208 (Hartree/Particle)
 Thermal correction to Energy=                    0.066160
 Thermal correction to Enthalpy=                  0.067104
 Thermal correction to Gibbs Free Energy=         0.030329
 Sum of electronic and zero-point Energies=           -229.877054
 Sum of electronic and thermal Energies=              -229.871102
 Sum of electronic and thermal Enthalpies=            -229.870158
 Sum of electronic and thermal Free Energies=         -229.906933

                     E (Thermal)             CV                S
                      KCal/Mol        Cal/Mol-Kelvin    Cal/Mol-Kelvin
 Total                   41.516             19.595             77.400
 Electronic               0.000              0.000              2.755
 Translational            0.889              2.981             38.570
 Rotational               0.889              2.981             24.780
 Vibrational             39.738             13.633             11.295
 Vibration     1          0.610              1.930              3.047
 Vibration     2          0.627              1.875              2.400
 Vibration     3          0.634              1.852              2.215
 Vibration     4          0.746              1.523              1.059
 Vibration     5          0.820              1.335              0.761
 Vibration     6          0.898              1.155              0.559
 Vibration     7          0.900              1.150              0.554

 Normal termination of Gaussian 09 at Fri Mar  8 03:29:32 2019.
