 Gaussian 09, Revision E.01,
 Gaussian 09:  EM64L-G09RevE.01 30-Nov-2015

 ------------------------------------------------------
 #p b3lyp/6-311++G(3df,2p) freq IOp(2/17=3) IOp(2/18=3)
 ------------------------------------------------------

 ---------
 b3lyp opt
 ---------
 Symbolic Z-matrix:
 Charge = -1 Multiplicity = 2

                         Standard orientation:
 ---------------------------------------------------------------------
 Center     Atomic      Atomic             Coordinates (Angstroms)
 Number     Number       Type             X           Y           Z
 ---------------------------------------------------------------------
      1          6           0       -0.338707    0.910954   -0.000000
      2          6           0        0.015400   -1.520162   -0.678142
      3          8           0        0.000000    2.104374   -0.000000
      4          6           0        0.015400   -1.520162    0.678142
      5          6           0        0.536299   -0.245969    0.000000
      6          1           0       -1.420419    0.644134   -0.000000
      7          1           0       -0.775407   -1.603913    1.425862
      8          1           0       -0.775407   -1.603913   -1.425862
      9          1           0        1.600719   -0.019255   -0.000000
 ---------------------------------------------------------------------

 SCF Done:  E(UB3LYP) =  -230.029517417     A.U. after   18 cycles

 The electronic state is 2-A".
 Alpha  occ. eigenvalues --  -18.91888 -10.05323 -10.00326  -9.98561  -9.98496
 Alpha  occ. eigenvalues --   -0.83722  -0.67537  -0.47904  -0.38123  -0.37121
 Alpha  occ. eigenvalues --   -0.30587  -0.26089  -0.23958  -0.20868  -0.15988
 Alpha  occ. eigenvalues --   -0.10924  -0.08815  -0.06685   0.04211
 Alpha virt. eigenvalues --    0.11538   0.12751   0.13475   0.14560   0.16915
 Alpha virt. eigenvalues --    0.18533   0.19219   0.20180   0.20742   0.21080
 Alpha virt. eigenvalues --    0.23887   0.24866   0.25143   0.25630   0.25709

  Beta  occ. eigenvalues --  -18.91521 -10.05164 -10.00369  -9.98026  -9.97958
  Beta  occ. eigenvalues --   -0.83066  -0.67077  -0.47162  -0.37793  -0.35762
  Beta  occ. eigenvalues --   -0.30100  -0.25549  -0.23685  -0.19268  -0.15459
  Beta  occ. eigenvalues --   -0.09923  -0.07257  -0.04653
  Beta virt. eigenvalues --    0.11572   0.11870   0.13005   0.13454   0.14472
  Beta virt. eigenvalues --    0.18435   0.19088   0.19254   0.20520   0.20879
  Beta virt. eigenvalues --    0.21996   0.23925   0.24839   0.25125   0.25548

 Mulliken charges and spin densities:
               1          2
     1  C   -0.033559   0.170496
     2  C   -0.453599   0.358194
     3  O   -0.740793   0.121867
     4  C   -0.453599   0.358194
     5  C    0.319185  -0.099868
     6  H    0.064560  -0.016780
     7  H    0.077352   0.054570
     8  H    0.077352   0.054570
     9  H    0.143100  -0.001243
 Sum of Mulliken charges =  -1.00000   1.00000

 Dipole moment (field-independent basis, Debye):
    X=             -1.2398    Y=             -0.0651    Z=              0.0000  Tot=              1.2415
 Quadrupole moment (field-independent basis, Debye-Ang):
   XX=            -35.6694   YY=            -55.9178   ZZ=            -37.4855
   XY=              2.4796   XZ=              0.0000   YZ=              0.0000

  Exact polarizability:  82.124 -10.744 117.044  -0.000   0.000  85.122
 Approx polarizability: 102.262 -10.479 180.275   0.000  -0.000 115.849

                      1                      2                      3
                     A"                     A'                     A"
 Frequencies --    177.5756               324.9151               415.2391
 Red. masses --      4.5047                 3.1512                 2.0117
 Frc consts  --      0.0837                 0.1960                 0.2044
 IR Inten    --      3.4287                11.6879                 5.9029

                      4                      5                      6
                     A'                     A'                     A"
 Frequencies --    509.2495               617.3641               629.4522
 Red. masses --      5.7395                 1.1733                 3.2012
 Frc consts  --      0.8770                 0.2635                 0.7473
 IR Inten    --     34.3201               325.6217               140.4404

                      7                      8                      9
                     A"                     A"                     A'
 Frequencies --    823.7739               914.6372               918.3759
 Red. masses --      1.4415                 1.9393                 1.2825
 Frc consts  --      0.5764                 0.9559                 0.6373
 IR Inten    --     54.1959                 1.0472               124.0156

                     10                     11                     12
                     A"                     A'                     A"
 Frequencies --   1006.4792              1010.4827              1052.8454
 Red. masses --      1.3264                 4.1360                 1.2248
 Frc consts  --      0.7916                 2.4882                 0.7999
 IR Inten    --      0.2667                 4.0310                21.4152

                     13                     14                     15
                     A'                     A'                     A'
 Frequencies --   1135.1198              1262.6394              1381.3997
 Red. masses --      4.6746                 1.2475                 1.2504
 Frc consts  --      3.5488                 1.1718                 1.4059
 IR Inten    --      0.2955                 3.0275                52.5751

                     16                     17                     18
                     A'                     A'                     A'
 Frequencies --   1436.8866              1621.0197              2810.2186
 Red. masses --      5.9241                 6.9974                 1.0783
 Frc consts  --      7.2064                10.8334                 5.0174
 IR Inten    --    450.6587               644.7003               145.8684

                     19                     20                     21
                     A"                     A'                     A'
 Frequencies --   2979.8317              3031.1695              3057.5366
 Red. masses --      1.0812                 1.1038                 1.0866
 Frc consts  --      5.6566                 5.9751                 5.9849
 IR Inten    --    348.6773               190.4063                90.0458

 - Thermochemistry -
 -------------------
 Temperature   298.150 Kelvin.  Pressure   1.00000 Atm.
 Atom     1 has atomic number  6 and mass  12.00000

 Molecular mass:    68.02621 amu.
 Principal axes and moments of inertia in atomic units:
                           1         2         3
     Eigenvalues --    91.51309 546.79978 563.38303
           X           -0.03290  -0.00000   0.99946
           Y            0.99946   0.00000   0.03290
           Z           -0.00000   1.00000   0.00000
 This molecule is an asymmetric top.
 Rotational symmetry number  1.
 Rotational temperatures (Kelvin)      0.94646     0.15840     0.15374
 Rotational constants (GHZ):          19.72113     3.30055     3.20340
 Zero-point vibrational energy     162191.0 (Joules/Mol)
                                   38.76457 (Kcal/Mol)
 Warning -- explicit consideration of   5 degrees of freedom as
           vibrations may cause significant error
 Vibrational temperatures:    255.49   467.48   597.44   732.70   888.25
          (Kelvin)            905.64  1185.23  1315.96  1321.34  1448.10
                             1453.86  1514.81  1633.18  1816.65  1987.52
                             2067.36  2332.28  4043.27  4287.31  4361.17
                             4399.11

 Zero-point correction=                           0.061775 (Hartree/Particle)
 Thermal correction to Energy=                    0.066728
 Thermal correction to Enthalpy=                  0.067673
 Thermal correction to Gibbs Free Energy=         0.033637
 Sum of electronic and zero-point Energies=           -229.967742
 Sum of electronic and thermal Energies=              -229.962789
 Sum of electronic and thermal Enthalpies=            -229.961845
 Sum of electronic and thermal Free Energies=         -229.995881

                     E (Thermal)             CV                S
                      KCal/Mol        Cal/Mol-Kelvin    Cal/Mol-Kelvin
 Total                   41.873             17.391             71.634
 Electronic               0.000              0.000              1.377
 Translational            0.889              2.981             38.570
 Rotational               0.889              2.981             24.848
 Vibrational             40.095             11.429              6.840
 Vibration     1          0.628              1.870              2.354
 Vibration     2          0.709              1.626              1.285
 Vibration     3          0.779              1.437              0.908
 Vibration     4          0.864              1.230              0.635
 Vibration     5          0.977              0.995              0.421

 Optimization completed.
    -- Stationary point found.
 Normal termination of Gaussian 09 at Thu Mar  7 14:22:56 2019.
