 Gaussian 09, Revision E.01,
 Gaussian 09:  EM64L-G09RevE.01 30-Nov-2015

 ------------------------------------------------------
 #p b3lyp/6-311++G(3df,2p) freq IOp(2/17=3) IOp(2/18=3)
 ------------------------------------------------------

 ---------
 b3lyp opt
 ---------
 Symbolic Z-matrix:
 Charge = -1 Multiplicity = 4

                         Standard orientation:
 ---------------------------------------------------------------------
 Center     Atomic      Atomic             Coordinates (Angstroms)
 Number     Number       Type             X           Y           Z
 ---------------------------------------------------------------------
      1          6           0        1.442308    0.392716    0.043665
      2          6           0       -2.402480   -0.226864    0.003397
      3          8           0        1.985894   -0.739644   -0.015828
      4          6           0       -1.014826   -0.251496   -0.052351
      5          6           0        0.017230    0.637065   -0.006579
      6          1           0        2.062615    1.307858    0.050196
      7          1           0       -2.951547    0.713639   -0.049652
      8          1           0       -2.994007   -1.112731    0.217361
      9          1           0       -0.257601    1.699858   -0.020073
 ---------------------------------------------------------------------

 SCF Done:  E(UB3LYP) =  -229.977919848     A.U. after   31 cycles

 The electronic state is 4-A.
 Alpha  occ. eigenvalues --  -18.93177 -10.05836 -10.03992 -10.03831 -10.03130
 Alpha  occ. eigenvalues --   -0.84248  -0.65033  -0.56840  -0.45683  -0.35576
 Alpha  occ. eigenvalues --   -0.32983  -0.29792  -0.27133  -0.24334  -0.23389
 Alpha  occ. eigenvalues --   -0.17408  -0.09097  -0.07634  -0.06666   0.06536
 Alpha virt. eigenvalues --    0.09454   0.10601   0.11497   0.13860   0.16577
 Alpha virt. eigenvalues --    0.17353   0.18493   0.19304   0.20647   0.21483
 Alpha virt. eigenvalues --    0.22124   0.23049   0.23072   0.24555   0.24994

  Beta  occ. eigenvalues --  -18.92304 -10.05481 -10.03469 -10.02897 -10.01534
  Beta  occ. eigenvalues --   -0.82560  -0.61699  -0.54117  -0.43383  -0.33203
  Beta  occ. eigenvalues --   -0.31541  -0.28141  -0.25855  -0.23192  -0.19009
  Beta  occ. eigenvalues --   -0.11911  -0.08128
  Beta virt. eigenvalues --    0.03248   0.07347   0.10539   0.11135   0.12209
  Beta virt. eigenvalues --    0.14105   0.14631   0.16844   0.18990   0.19227
  Beta virt. eigenvalues --    0.19609   0.21082   0.22017   0.22309   0.23485

 Mulliken charges and spin densities:
               1          2
     1  C    0.091055   0.049694
     2  C    0.490772  -0.539044
     3  O   -0.725718   0.302467
     4  C   -0.528316   1.896660
     5  C    0.408028   0.079332
     6  H    0.039498  -0.020066
     7  H   -0.292210   0.456929
     8  H   -0.299010   0.442213
     9  H   -0.184100   0.331815
 Sum of Mulliken charges =  -1.00000   3.00000

 Dipole moment (field-independent basis, Debye):
    X=              1.7035    Y=              1.6021    Z=             -1.4308  Tot=              2.7415
 Quadrupole moment (field-independent basis, Debye-Ang):
   XX=            -68.1208   YY=            -43.5662   ZZ=            -41.1693
   XY=              3.9419   XZ=              4.6780   YZ=             -0.8183

  Exact polarizability:1145.799  99.332 968.843 -78.849 -61.619 125.442
 Approx polarizability: 962.655  25.649 384.336-103.730  -8.536 128.437

                      1                      2                      3
                      A                      A                      A
 Frequencies --    122.0525               150.9104               276.4664
 Red. masses --      4.1837                 4.0312                 1.5461
 Frc consts  --      0.0367                 0.0541                 0.0696
 IR Inten    --    459.8479                93.6711               159.0847

                      4                      5                      6
                      A                      A                      A
 Frequencies --    319.3240               432.3139               533.6923
 Red. masses --      4.0262                 1.4701                 1.3850
 Frc consts  --      0.2419                 0.1619                 0.2324
 IR Inten    --     23.3669               995.9254                16.8762

                      7                      8                      9
                      A                      A                      A
 Frequencies --    669.3242               720.9335               813.7161
 Red. masses --      1.5827                 4.7902                 1.4044
 Frc consts  --      0.4178                 1.4669                 0.5479
 IR Inten    --    251.7226              1116.1417               512.9833

                     10                     11                     12
                      A                      A                      A
 Frequencies --    855.3776               987.1395              1048.8023
 Red. masses --      2.2894                 1.7945                 3.2330
 Frc consts  --      0.9869                 1.0303                 2.0953
 IR Inten    --   1195.1864              1161.5634              1695.4109

                     13                     14                     15
                      A                      A                      A
 Frequencies --   1225.5791              1314.7269              1419.1305
 Red. masses --      2.2202                 1.5824                 1.1635
 Frc consts  --      1.9649                 1.6115                 1.3805
 IR Inten    --   8108.1931              3451.8184              1156.6519

                     16                     17                     18
                      A                      A                      A
 Frequencies --   1468.5051              1520.5794              2878.8027
 Red. masses --      1.7911                 8.1062                 1.0771
 Frc consts  --      2.2757                11.0430                 5.2594
 IR Inten    --   2801.9115               762.4452                 2.9943

                     19                     20                     21
                      A                      A                      A
 Frequencies --   2973.7076              3029.7301              3122.1973
 Red. masses --      1.0806                 1.0512                 1.1104
 Frc consts  --      5.6302                 5.6851                 6.3777
 IR Inten    --    438.8576               610.5700               562.8468

 - Thermochemistry -
 -------------------
 Temperature   298.150 Kelvin.  Pressure   1.00000 Atm.
 Atom     1 has atomic number  6 and mass  12.00000

 Molecular mass:    68.02621 amu.
 Principal axes and moments of inertia in atomic units:
                           1         2         3
     Eigenvalues --    82.82917 684.80450 766.85174
           X            0.99981   0.01952  -0.00229
           Y           -0.01954   0.99975  -0.01059
           Z            0.00209   0.01063   0.99994
 This molecule is an asymmetric top.
 Rotational symmetry number  1.
 Rotational temperatures (Kelvin)      1.04569     0.12648     0.11295
 Rotational constants (GHZ):          21.78871     2.63541     2.35344
 Zero-point vibrational energy     154814.8 (Joules/Mol)
                                   37.00162 (Kcal/Mol)
 Warning -- explicit consideration of   6 degrees of freedom as
           vibrations may cause significant error
 Vibrational temperatures:    175.61   217.13   397.77   459.44   622.00
          (Kelvin)            767.86   963.01  1037.26  1170.75  1230.70
                             1420.27  1508.99  1763.33  1891.60  2041.81
                             2112.85  2187.77  4141.95  4278.50  4359.10
                             4492.14

 Zero-point correction=                           0.058966 (Hartree/Particle)
 Thermal correction to Energy=                    0.064940
 Thermal correction to Enthalpy=                  0.065885
 Thermal correction to Gibbs Free Energy=         0.028872
 Sum of electronic and zero-point Energies=           -229.918954
 Sum of electronic and thermal Energies=              -229.912979
 Sum of electronic and thermal Enthalpies=            -229.912035
 Sum of electronic and thermal Free Energies=         -229.949048

                     E (Thermal)             CV                S
                      KCal/Mol        Cal/Mol-Kelvin    Cal/Mol-Kelvin
 Total                   40.751             19.895             77.900
 Electronic               0.000              0.000              2.755
 Translational            0.889              2.981             38.570
 Rotational               0.889              2.981             25.279
 Vibrational             38.973             13.934             11.296
 Vibration     1          0.610              1.931              3.068
 Vibration     2          0.618              1.902              2.661
 Vibration     3          0.678              1.717              1.555
 Vibration     4          0.705              1.637              1.314
 Vibration     5          0.793              1.400              0.851
 Vibration     6          0.889              1.175              0.579

 Normal termination of Gaussian 09 at Thu Mar  7 22:59:24 2019.
