 Gaussian 09, Revision E.01,
 Gaussian 09:  EM64L-G09RevE.01 30-Nov-2015

 ------------------------------------------------------
 #p b3lyp/6-311++G(3df,2p) freq IOp(2/17=3) IOp(2/18=3)
 ------------------------------------------------------

 ---------
 b3lyp opt
 ---------
 Symbolic Z-matrix:
 Charge = -1 Multiplicity = 2

                         Standard orientation:
 ---------------------------------------------------------------------
 Center     Atomic      Atomic             Coordinates (Angstroms)
 Number     Number       Type             X           Y           Z
 ---------------------------------------------------------------------
      1          6           0        1.244279    1.080957    0.002007
      2          6           0        0.396698   -0.189963    0.008669
      3          8           0        1.000725   -1.310390    0.001500
      4          6           0       -0.983868   -0.025898    0.031142
      5          6           0       -2.214260    0.145137   -0.124384
      6          1           0        1.892975    1.085423   -0.882385
      7          1           0        1.903295    1.099818    0.878013
      8          1           0        0.637598    1.988573   -0.001766
      9          1           0       -3.096765    0.247906    0.489531
 ---------------------------------------------------------------------

 SCF Done:  E(UB3LYP) =  -230.073863288     A.U. after   21 cycles

 The electronic state is 2-A.
 Alpha  occ. eigenvalues --  -18.88930 -10.04228 -10.00360  -9.98031  -9.97379
 Alpha  occ. eigenvalues --   -0.80356  -0.58670  -0.54554  -0.44425  -0.31243
 Alpha  occ. eigenvalues --   -0.27944  -0.26474  -0.24649  -0.21222  -0.17477
 Alpha  occ. eigenvalues --   -0.10499  -0.08724  -0.05754   0.03869
 Alpha virt. eigenvalues --    0.10927   0.11911   0.14108   0.14387   0.17256
 Alpha virt. eigenvalues --    0.18014   0.18431   0.20734   0.21712   0.22027
 Alpha virt. eigenvalues --    0.22660   0.23577   0.24254   0.24444   0.25816

  Beta  occ. eigenvalues --  -18.88211 -10.03848 -10.00400  -9.97987  -9.96831
  Beta  occ. eigenvalues --   -0.79033  -0.57893  -0.54181  -0.43133  -0.30437
  Beta  occ. eigenvalues --   -0.27563  -0.25765  -0.24327  -0.20655  -0.14636
  Beta  occ. eigenvalues --   -0.08385  -0.07046  -0.05093
  Beta virt. eigenvalues --    0.10902   0.11967   0.12108   0.14358   0.14385
  Beta virt. eigenvalues --    0.17320   0.18396   0.18758   0.20772   0.21805
  Beta virt. eigenvalues --    0.22130   0.22717   0.23842   0.24379   0.25115

 Mulliken charges and spin densities:
               1          2
     1  C   -0.208496  -0.020981
     2  C   -0.259628   0.422534
     3  O   -0.852128   0.259097
     4  C    0.423760   0.085449
     5  C   -0.511591   0.169447
     6  H    0.073861   0.032397
     7  H    0.093028   0.014501
     8  H    0.092384   0.005431
     9  H    0.148811   0.032125
 Sum of Mulliken charges =  -1.00000   1.00000

 Dipole moment (field-independent basis, Debye):
    X=              1.4075    Y=              2.9099    Z=              0.9789  Tot=              3.3774
 Quadrupole moment (field-independent basis, Debye-Ang):
   XX=            -47.6399   YY=            -41.6830   ZZ=            -35.5415
   XY=              3.8714   XZ=             -3.1223   YZ=              0.2574

  Exact polarizability: 138.034  -3.770  66.683   4.803  -1.570  65.941
 Approx polarizability: 189.288 -18.002  91.797   9.188  -2.249  80.856

                      1                      2                      3
                      A                      A                      A
 Frequencies --    118.8996               193.8772               268.5744
 Red. masses --      1.0520                 4.0008                 3.8413
 Frc consts  --      0.0088                 0.0886                 0.1633
 IR Inten    --      0.2076                 2.7362                 2.3178

                      4                      5                      6
                      A                      A                      A
 Frequencies --    425.9902               506.7923               615.4895
 Red. masses --      3.5358                 3.1330                 1.4514
 Frc consts  --      0.3780                 0.4741                 0.3240
 IR Inten    --      2.3745                10.7626                36.9160

                      7                      8                      9
                      A                      A                      A
 Frequencies --    622.3218               639.2548               764.1349
 Red. masses --      3.7583                 1.4013                 4.9480
 Frc consts  --      0.8576                 0.3374                 1.7023
 IR Inten    --     70.0258               286.6288                11.3061

                     10                     11                     12
                      A                      A                      A
 Frequencies --    977.3304              1007.4948              1202.6338
 Red. masses --      1.6673                 1.4608                 5.2776
 Frc consts  --      0.9383                 0.8736                 4.4973
 IR Inten    --     14.4559                 0.2474                66.8439

                     13                     14                     15
                      A                      A                      A
 Frequencies --   1356.1617              1451.7771              1464.7690
 Red. masses --      1.2406                 2.1373                 1.0513
 Frc consts  --      1.3443                 2.6541                 1.3289
 IR Inten    --     16.0948               266.2027                 3.2018

                     16                     17                     18
                      A                      A                      A
 Frequencies --   1495.4003              1960.1044              2962.5776
 Red. masses --      1.7054                 7.7473                 1.0367
 Frc consts  --      2.2470                17.5371                 5.3609
 IR Inten    --    191.9151                72.2618               192.8787

                     19                     20                     21
                      A                      A                      A
 Frequencies --   2991.1046              3061.8534              3159.6016
 Red. masses --      1.0997                 1.0966                 1.1160
 Frc consts  --      5.7970                 6.0572                 6.5640
 IR Inten    --    112.4008                50.1075               151.3686

 - Thermochemistry -
 -------------------
 Temperature   298.150 Kelvin.  Pressure   1.00000 Atm.
 Atom     1 has atomic number  6 and mass  12.00000

 Molecular mass:    68.02621 amu.
 Principal axes and moments of inertia in atomic units:
                           1         2         3
     Eigenvalues --   178.70752 451.86226 616.43148
           X            0.99803   0.06148  -0.01215
           Y           -0.06146   0.99811   0.00213
           Z            0.01225  -0.00138   0.99992
 This molecule is an asymmetric top.
 Rotational symmetry number  1.
 Rotational temperatures (Kelvin)      0.48467     0.19168     0.14051
 Rotational constants (GHZ):          10.09885     3.99401     2.92772
 Zero-point vibrational energy     162968.1 (Joules/Mol)
                                   38.95032 (Kcal/Mol)
 Warning -- explicit consideration of   6 degrees of freedom as
           vibrations may cause significant error
 Vibrational temperatures:    171.07   278.95   386.42   612.90   729.16
          (Kelvin)            885.55   895.38   919.74  1099.42  1406.16
                             1449.56  1730.32  1951.21  2088.78  2107.47
                             2151.54  2820.15  4262.48  4303.53  4405.32
                             4545.96

 Zero-point correction=                           0.062071 (Hartree/Particle)
 Thermal correction to Energy=                    0.067786
 Thermal correction to Enthalpy=                  0.068730
 Thermal correction to Gibbs Free Energy=         0.032836
 Sum of electronic and zero-point Energies=           -230.011792
 Sum of electronic and thermal Energies=              -230.006077
 Sum of electronic and thermal Enthalpies=            -230.005133
 Sum of electronic and thermal Free Energies=         -230.041028

                     E (Thermal)             CV                S
                      KCal/Mol        Cal/Mol-Kelvin    Cal/Mol-Kelvin
 Total                   42.536             19.130             75.546
 Electronic               0.000              0.000              1.377
 Translational            0.889              2.981             38.570
 Rotational               0.889              2.981             25.413
 Vibrational             40.759             13.169             10.187
 Vibration     1          0.609              1.934              3.118
 Vibration     2          0.635              1.848              2.190
 Vibration     3          0.673              1.731              1.605
 Vibration     4          0.788              1.414              0.872
 Vibration     5          0.862              1.235              0.641
 Vibration     6          0.975              0.999              0.424

 Normal termination of Gaussian 09 at Thu Mar  7 13:02:23 2019.
