 Gaussian 09, Revision E.01,
 Gaussian 09:  EM64L-G09RevE.01 30-Nov-2015

 ------------------------------------------------------
 #p b3lyp/6-311++G(3df,2p) freq IOp(2/17=3) IOp(2/18=3)
 ------------------------------------------------------

 ---------
 b3lyp opt
 ---------
 Symbolic Z-matrix:
 Charge = -1 Multiplicity = 2

                         Standard orientation:
 ---------------------------------------------------------------------
 Center     Atomic      Atomic             Coordinates (Angstroms)
 Number     Number       Type             X           Y           Z
 ---------------------------------------------------------------------
      1          8           0       -2.202579    0.180070    0.046157
      2          6           0        1.520838   -0.646491    0.067523
      3          6           0        1.230540    0.863799    0.021159
      4          6           0        0.175315   -0.153096   -0.217758
      5          6           0       -1.129139   -0.422694   -0.012167
      6          1           0        1.767702   -1.068401    1.046322
      7          1           0        2.144204   -1.063486   -0.728613
      8          1           0        1.649859    1.438100   -0.808152
      9          1           0        1.273540    1.404118    0.968652
 ---------------------------------------------------------------------

 SCF Done:  E(UB3LYP) =  -230.049927034     A.U. after   19 cycles

 The electronic state is 2-A.
 Alpha  occ. eigenvalues --  -18.91080 -10.01624 -10.00725 -10.00586  -9.96125
 Alpha  occ. eigenvalues --   -0.82131  -0.67034  -0.47095  -0.43375  -0.33973
 Alpha  occ. eigenvalues --   -0.29909  -0.25580  -0.20474  -0.19833  -0.17739
 Alpha  occ. eigenvalues --   -0.13872  -0.11809  -0.00458   0.04137
 Alpha virt. eigenvalues --    0.10907   0.12447   0.12874   0.15222   0.16912
 Alpha virt. eigenvalues --    0.18671   0.19446   0.20009   0.21819   0.22475
 Alpha virt. eigenvalues --    0.23237   0.24107   0.24871   0.26127   0.26660

  Beta  occ. eigenvalues --  -18.90229 -10.00727 -10.00586 -10.00557  -9.96004
  Beta  occ. eigenvalues --   -0.80427  -0.66812  -0.45502  -0.43197  -0.33533
  Beta  occ. eigenvalues --   -0.29851  -0.24132  -0.19863  -0.16880  -0.16808
  Beta  occ. eigenvalues --   -0.13455  -0.09816  -0.00130
  Beta virt. eigenvalues --    0.10838   0.12232   0.12793   0.14625   0.15150
  Beta virt. eigenvalues --    0.18246   0.18673   0.19655   0.20085   0.21894
  Beta virt. eigenvalues --    0.22962   0.23226   0.24267   0.25178   0.26149

 Mulliken charges and spin densities:
               1          2
     1  O   -0.654699   0.179005
     2  C   -0.310432   0.077059
     3  C   -0.576519   0.245912
     4  C    0.610425  -0.726744
     5  C   -0.335622   1.188813
     6  H    0.027795   0.034492
     7  H    0.079541   0.006285
     8  H    0.076454   0.001026
     9  H    0.083058  -0.005848
 Sum of Mulliken charges =  -1.00000   1.00000

 Dipole moment (field-independent basis, Debye):
    X=              3.9975    Y=              0.7976    Z=              0.3528  Tot=              4.0915
 Quadrupole moment (field-independent basis, Debye-Ang):
   XX=            -51.3808   YY=            -37.9451   ZZ=            -34.9348
   XY=             -0.3522   XZ=             -0.1049   YZ=             -0.0610

  Exact polarizability: 110.894   4.223  90.641   1.883  -3.668  66.702
 Approx polarizability: 155.582   0.437 107.509  -0.170  -2.556  85.409

                      1                      2                      3
                      A                      A                      A
 Frequencies --     87.2087               221.6721               395.3937
 Red. masses --      3.5636                 4.6683                 7.0614
 Frc consts  --      0.0160                 0.1352                 0.6504
 IR Inten    --      8.6557                 1.2114                 1.6642

                      4                      5                      6
                      A                      A                      A
 Frequencies --    564.5726               719.3200               792.2908
 Red. masses --      5.7946                 4.9798                 1.0227
 Frc consts  --      1.0882                 1.5181                 0.3782
 IR Inten    --     11.2361                16.4922                 3.3025

                      7                      8                      9
                      A                      A                      A
 Frequencies --    895.2373               916.1390               981.0982
 Red. masses --      2.5453                 1.5095                 2.4524
 Frc consts  --      1.2019                 0.7465                 1.3908
 IR Inten    --      3.5350                 0.1647                 4.0547

                     10                     11                     12
                      A                      A                      A
 Frequencies --   1003.9483              1051.5150              1062.8737
 Red. masses --      1.6398                 1.4327                 1.3672
 Frc consts  --      0.9738                 0.9333                 0.9100
 IR Inten    --     11.5089                 8.4889                 4.9896

                     13                     14                     15
                      A                      A                      A
 Frequencies --   1131.5612              1413.8384              1467.2243
 Red. masses --      1.3198                 2.8499                 1.0855
 Frc consts  --      0.9957                 3.3565                 1.3768
 IR Inten    --      0.4654                74.8645                 6.3473

                     16                     17                     18
                      A                      A                      A
 Frequencies --   1500.8136              1748.7710              2963.3498
 Red. masses --      1.5782                11.7422                 1.0479
 Frc consts  --      2.0945                21.1575                 5.4219
 IR Inten    --      9.0304               764.0944               281.3091

                     19                     20                     21
                      A                      A                      A
 Frequencies --   2983.3707              2996.3956              3031.4383
 Red. masses --      1.0515                 1.1138                 1.1121
 Frc consts  --      5.5140                 5.8921                 6.0212
 IR Inten    --    254.5820               106.6552               172.6833

 - Thermochemistry -
 -------------------
 Temperature   298.150 Kelvin.  Pressure   1.00000 Atm.
 Atom     1 has atomic number  8 and mass  15.99491

 Molecular mass:    68.02621 amu.
 Principal axes and moments of inertia in atomic units:
                           1         2         3
     Eigenvalues --    97.02887 552.01934 621.17595
           X            1.00000   0.00049   0.00158
           Y           -0.00047   0.99997  -0.00717
           Z           -0.00159   0.00717   0.99997
 This molecule is an asymmetric top.
 Rotational symmetry number  1.
 Rotational temperatures (Kelvin)      0.89266     0.15690     0.13944
 Rotational constants (GHZ):          18.60004     3.26934     2.90536
 Zero-point vibrational energy     167046.7 (Joules/Mol)
                                   39.92513 (Kcal/Mol)
 Warning -- explicit consideration of   4 degrees of freedom as
           vibrations may cause significant error
 Vibrational temperatures:    125.47   318.94   568.88   812.29  1034.94
          (Kelvin)           1139.93  1288.05  1318.12  1411.58  1444.46
                             1512.89  1529.24  1628.06  2034.20  2111.01
                             2159.33  2516.09  4263.59  4292.40  4311.14
                             4361.56

 Zero-point correction=                           0.063625 (Hartree/Particle)
 Thermal correction to Energy=                    0.068706
 Thermal correction to Enthalpy=                  0.069651
 Thermal correction to Gibbs Free Energy=         0.034807
 Sum of electronic and zero-point Energies=           -229.986302
 Sum of electronic and thermal Energies=              -229.981221
 Sum of electronic and thermal Enthalpies=            -229.980276
 Sum of electronic and thermal Free Energies=         -230.015120

                     E (Thermal)             CV                S
                      KCal/Mol        Cal/Mol-Kelvin    Cal/Mol-Kelvin
 Total                   43.114             16.711             73.335
 Electronic               0.000              0.000              1.377
 Translational            0.889              2.981             38.570
 Rotational               0.889              2.981             25.012
 Vibrational             41.336             10.749              8.375
 Vibration     1          0.601              1.958              3.722
 Vibration     2          0.648              1.808              1.945
 Vibration     3          0.762              1.480              0.980
 Vibration     4          0.920              1.108              0.515

 Normal termination of Gaussian 09 at Thu Mar  7 15:32:53 2019.
