 Gaussian 09, Revision E.01,
 Gaussian 09:  EM64L-G09RevE.01 30-Nov-2015

 ------------------------------------------------------
 #p b3lyp/6-311++G(3df,2p) freq IOp(2/17=3) IOp(2/18=3)
 ------------------------------------------------------

 ---------
 b3lyp opt
 ---------
 Symbolic Z-matrix:
 Charge = -1 Multiplicity = 4

                         Standard orientation:
 ---------------------------------------------------------------------
 Center     Atomic      Atomic             Coordinates (Angstroms)
 Number     Number       Type             X           Y           Z
 ---------------------------------------------------------------------
      1          8           0        2.272243    1.246751    0.000000
      2          6           0       -1.676025   -1.640193    0.000000
      3          6           0       -1.268068   -0.194244    0.000000
      4          6           0        0.000000    0.274177    0.000000
      5          6           0        1.157304    0.813839    0.000000
      6          1           0       -2.290114   -1.869535    0.879472
      7          1           0       -2.290114   -1.869535   -0.879472
      8          1           0       -0.818504   -2.311081    0.000000
      9          1           0       -2.058472    0.554665    0.000000
 ---------------------------------------------------------------------

 SCF Done:  E(UB3LYP) =  -229.987882832     A.U. after   28 cycles

 The electronic state is 4-A".
 Alpha  occ. eigenvalues --  -19.06994 -10.15526 -10.11072 -10.07364 -10.05047
 Alpha  occ. eigenvalues --   -0.98668  -0.70998  -0.63613  -0.53589  -0.40534
 Alpha  occ. eigenvalues --   -0.38011  -0.35027  -0.34272  -0.30681  -0.29927
 Alpha  occ. eigenvalues --   -0.26234  -0.19674  -0.15858  -0.04977   0.05491
 Alpha virt. eigenvalues --    0.09183   0.10110   0.11007   0.12389   0.15061
 Alpha virt. eigenvalues --    0.15445   0.15730   0.15879   0.17684   0.18365
 Alpha virt. eigenvalues --    0.19255   0.21571   0.21813   0.22420   0.22498

  Beta  occ. eigenvalues --  -19.05689 -10.14953 -10.10368 -10.06387 -10.04921
  Beta  occ. eigenvalues --   -0.96301  -0.67875  -0.61149  -0.51952  -0.38718
  Beta  occ. eigenvalues --   -0.36464  -0.31023  -0.30861  -0.28527  -0.28456
  Beta  occ. eigenvalues --   -0.25564  -0.16342
  Beta virt. eigenvalues --   -0.04258   0.05592   0.08839   0.10689   0.11182
  Beta virt. eigenvalues --    0.12588   0.13378   0.15744   0.15837   0.16236
  Beta virt. eigenvalues --    0.18391   0.18395   0.19047   0.20229   0.21919

 Mulliken charges and spin densities:
               1          2
     1  O   -0.632226   0.399563
     2  C    4.234271  -4.709788
     3  C   -4.728956   5.586779
     4  C    2.125980  -0.752651
     5  C    2.419563  -2.619257
     6  H   -0.601685   0.781585
     7  H   -0.601685   0.781585
     8  H   -1.189759   1.326549
     9  H   -2.025503   2.205635
 Sum of Mulliken charges =  -1.00000   3.00000

 Dipole moment (field-independent basis, Debye):
    X=              6.6802    Y=              3.0970    Z=              0.0000  Tot=              7.3632
 Quadrupole moment (field-independent basis, Debye-Ang):
   XX=            -80.0908   YY=            -65.1460   ZZ=            -53.2565
   XY=             -9.8641   XZ=             -0.0000   YZ=             -0.0000

  Exact polarizability: 992.409-189.2031461.936   0.000   0.000 764.058
 Approx polarizability: 854.091-130.3381210.449   0.000   0.000 552.103

                      1                      2                      3
                     A"                     A'                     A"
 Frequencies --     68.1135               120.5083               157.2821
 Red. masses --      1.1885                 4.3708                 8.4751
 Frc consts  --      0.0032                 0.0374                 0.1235
 IR Inten    --      7.7403                17.5044                34.5209

                      4                      5                      6
                     A"                     A'                     A'
 Frequencies --    251.4240               368.0539               471.4289
 Red. masses --      5.2555                 7.5772                 5.5771
 Frc consts  --      0.1957                 0.6048                 0.7303
 IR Inten    --     95.5993                89.0282               468.5053

                      7                      8                      9
                     A"                     A'                     A'
 Frequencies --    582.0268               766.6837              1004.3564
 Red. masses --      1.3000                 3.8007                 1.4066
 Frc consts  --      0.2595                 1.3163                 0.8360
 IR Inten    --    282.5132                17.1039                85.4527

                     10                     11                     12
                     A"                     A'                     A'
 Frequencies --   1020.1828              1076.3473              1277.9542
 Red. masses --      1.3468                 3.1839                 1.4734
 Frc consts  --      0.8259                 2.1733                 1.4177
 IR Inten    --     26.3018                 0.9089                86.3519

                     13                     14                     15
                     A'                     A'                     A"
 Frequencies --   1380.9427              1463.4865              1464.3302
 Red. masses --      1.2364                 1.1107                 1.0447
 Frc consts  --      1.3892                 1.4015                 1.3198
 IR Inten    --    379.2296               323.5160               393.4607

                     16                     17                     18
                     A'                     A'                     A'
 Frequencies --   1523.5806              2111.8564              2946.1821
 Red. masses --      5.3546                12.3296                 1.0411
 Frc consts  --      7.3233                32.3987                 5.3242
 IR Inten    --     60.7586                58.0687                 3.2661

                     19                     20                     21
                     A"                     A'                     A'
 Frequencies --   2994.8899              3066.2355              3087.3107
 Red. masses --      1.0991                 1.0809                 1.0945
 Frc consts  --      5.8083                 5.9876                 6.1467
 IR Inten    --     16.3232               435.5547                81.6552

 - Thermochemistry -
 -------------------
 Temperature   298.150 Kelvin.  Pressure   1.00000 Atm.
 Atom     1 has atomic number  8 and mass  15.99491

 Molecular mass:    68.02621 amu.
 Principal axes and moments of inertia in atomic units:
                           1         2         3
     Eigenvalues --    48.93960 837.55163 875.35631
           X            0.83570  -0.54919   0.00000
           Y            0.54919   0.83570   0.00000
           Z            0.00000   0.00000   1.00000
 This molecule is an asymmetric top.
 Rotational symmetry number  1.
 Rotational temperatures (Kelvin)      1.76981     0.10341     0.09895
 Rotational constants (GHZ):          36.87691     2.15478     2.06172
 Zero-point vibrational energy     162711.1 (Joules/Mol)
                                   38.88889 (Kcal/Mol)
 Warning -- explicit consideration of   7 degrees of freedom as
           vibrations may cause significant error
 Vibrational temperatures:     98.00   173.38   226.29   361.74   529.55
          (Kelvin)            678.28   837.41  1103.09  1445.04  1467.81
                             1548.62  1838.69  1986.87  2105.63  2106.84
                             2192.09  3038.49  4238.89  4308.97  4411.62
                             4441.95

 Zero-point correction=                           0.061973 (Hartree/Particle)
 Thermal correction to Energy=                    0.068396
 Thermal correction to Enthalpy=                  0.069340
 Thermal correction to Gibbs Free Energy=         0.030907
 Sum of electronic and zero-point Energies=           -229.925909
 Sum of electronic and thermal Energies=              -229.919487
 Sum of electronic and thermal Enthalpies=            -229.918543
 Sum of electronic and thermal Free Energies=         -229.956976

                     E (Thermal)             CV                S
                      KCal/Mol        Cal/Mol-Kelvin    Cal/Mol-Kelvin
 Total                   42.919             19.695             80.888
 Electronic               0.000              0.000              2.755
 Translational            0.889              2.981             38.570
 Rotational               0.889              2.981             25.087
 Vibrational             41.141             13.734             14.477
 Vibration     1          0.598              1.969              4.207
 Vibration     2          0.609              1.932              3.092
 Vibration     3          0.621              1.894              2.582
 Vibration     4          0.663              1.760              1.721
 Vibration     5          0.741              1.538              1.088
 Vibration     6          0.828              1.313              0.734
 Vibration     7          0.939              1.070              0.482

 Optimization completed.
    -- Stationary point found.
 Normal termination of Gaussian 09 at Fri Mar  8 01:35:48 2019.
