 Gaussian 09, Revision E.01,
 Gaussian 09:  EM64L-G09RevE.01 30-Nov-2015

 ------------------------------------------------------
 #p b3lyp/6-311++G(3df,2p) freq IOp(2/17=3) IOp(2/18=3)
 ------------------------------------------------------

 ---------
 b3lyp opt
 ---------
 Symbolic Z-matrix:
 Charge = -1 Multiplicity = 2

                         Standard orientation:
 ---------------------------------------------------------------------
 Center     Atomic      Atomic             Coordinates (Angstroms)
 Number     Number       Type             X           Y           Z
 ---------------------------------------------------------------------
      1          6           0       -0.000000    1.153631    0.000000
      2          6           0       -0.576760   -1.035208    0.000000
      3          8           0       -1.125060    0.367298    0.000000
      4          6           0        0.914302   -0.990450    0.000000
      5          6           0        1.168325    0.380848    0.000000
      6          1           0       -0.171337    2.220456    0.000000
      7          1           0       -1.008457   -1.525726    0.886774
      8          1           0       -1.008457   -1.525726   -0.886774
      9          1           0        2.153533    0.839684    0.000000
 ---------------------------------------------------------------------

 SCF Done:  E(UB3LYP) =  -230.027960710     A.U. after   19 cycles

 The electronic state is 2-A".
 Alpha  occ. eigenvalues --  -18.95870 -10.02781 -10.02465  -9.96444  -9.93018
 Alpha  occ. eigenvalues --   -0.86305  -0.57814  -0.53758  -0.39207  -0.35553
 Alpha  occ. eigenvalues --   -0.30055  -0.28120  -0.23708  -0.17344  -0.17096
 Alpha  occ. eigenvalues --   -0.15803  -0.08074  -0.00358   0.05445
 Alpha virt. eigenvalues --    0.11218   0.12720   0.13530   0.14516   0.18274
 Alpha virt. eigenvalues --    0.18716   0.20313   0.21203   0.21698   0.23121
 Alpha virt. eigenvalues --    0.23588   0.23783   0.25325   0.25746   0.26632

  Beta  occ. eigenvalues --  -18.95508 -10.02853 -10.01676  -9.96676  -9.92348
  Beta  occ. eigenvalues --   -0.85558  -0.57112  -0.52962  -0.38038  -0.35125
  Beta  occ. eigenvalues --   -0.29532  -0.27000  -0.23231  -0.17129  -0.15402
  Beta  occ. eigenvalues --   -0.14798  -0.06124   0.00711
  Beta virt. eigenvalues --    0.11209   0.12723   0.13487   0.13921   0.15343
  Beta virt. eigenvalues --    0.18229   0.18709   0.20966   0.21184   0.22701
  Beta virt. eigenvalues --    0.23070   0.23954   0.24359   0.25291   0.25851

 Mulliken charges and spin densities:
               1          2
     1  C    0.024971   0.695672
     2  C    0.018002  -0.124254
     3  O   -0.723594   0.071639
     4  C   -0.218928   0.624714
     5  C   -0.365985  -0.346299
     6  H    0.154531  -0.033861
     7  H    0.034364   0.057443
     8  H    0.034364   0.057443
     9  H    0.042276  -0.002497
 Sum of Mulliken charges =  -1.00000   1.00000

 Dipole moment (field-independent basis, Debye):
    X=             -2.7515    Y=              2.8061    Z=             -0.0000  Tot=              3.9300
 Quadrupole moment (field-independent basis, Debye-Ang):
   XX=            -43.9517   YY=            -43.1990   ZZ=            -36.9811
   XY=              7.6394   XZ=              0.0000   YZ=              0.0000

  Exact polarizability:  85.147  -8.455 112.060  -0.000   0.000  83.025
 Approx polarizability: 112.947 -10.532 145.163   0.000   0.000  94.573

                      1                      2                      3
                     A"                     A"                     A"
 Frequencies --    176.5118               340.1761               502.7555
 Red. masses --      2.5960                 1.1339                 4.1351
 Frc consts  --      0.0477                 0.0773                 0.6158
 IR Inten    --      4.8878                42.2979                 7.5336

                      4                      5                      6
                     A'                     A'                     A"
 Frequencies --    639.7279               775.9480               830.3800
 Red. masses --      8.7336                 7.5812                 1.3019
 Frc consts  --      2.1059                 2.6894                 0.5289
 IR Inten    --     55.7480                 7.8028                 4.7378

                      7                      8                      9
                     A'                     A'                     A"
 Frequencies --    853.0594               936.3232               938.2626
 Red. masses --      7.2652                 2.8359                 1.5883
 Frc consts  --      3.1150                 1.4648                 0.8238
 IR Inten    --     19.7374                63.2218                12.6357

                     10                     11                     12
                     A'                     A'                     A"
 Frequencies --   1012.5131              1094.2283              1134.3999
 Red. masses --      3.4503                 1.8765                 1.0681
 Frc consts  --      2.0841                 1.3238                 0.8099
 IR Inten    --      4.8187                33.3070                 0.6089

                     13                     14                     15
                     A'                     A'                     A'
 Frequencies --   1204.2542              1272.0153              1324.4418
 Red. masses --      2.6348                 1.4545                 2.0070
 Frc consts  --      2.2513                 1.3866                 2.0743
 IR Inten    --     25.7748                22.5917                17.4958

                     16                     17                     18
                     A'                     A'                     A"
 Frequencies --   1399.8077              1453.5933              2872.7197
 Red. masses --      2.3079                 1.0974                 1.1099
 Frc consts  --      2.6644                 1.3661                 5.3965
 IR Inten    --     15.6208                 2.3837               318.2211

                     19                     20                     21
                     A'                     A'                     A'
 Frequencies --   2899.1185              3095.8421              3189.9353
 Red. masses --      1.0522                 1.0875                 1.0920
 Frc consts  --      5.2107                 6.1407                 6.5468
 IR Inten    --    282.2304                70.9440                64.5721

 - Thermochemistry -
 -------------------
 Temperature   298.150 Kelvin.  Pressure   1.00000 Atm.
 Atom     1 has atomic number  6 and mass  12.00000

 Molecular mass:    68.02621 amu.
 Principal axes and moments of inertia in atomic units:
                           1         2         3
     Eigenvalues --   201.35659 210.90317 400.93918
           X            0.98650   0.16375   0.00000
           Y           -0.16375   0.98650   0.00000
           Z           -0.00000  -0.00000   1.00000
 This molecule is an asymmetric top.
 Rotational symmetry number  1.
 Rotational temperatures (Kelvin)      0.43015     0.41068     0.21603
 Rotational constants (GHZ):           8.96291     8.55720     4.50128
 Zero-point vibrational energy     167154.3 (Joules/Mol)
                                   39.95083 (Kcal/Mol)
 Warning -- explicit consideration of   3 degrees of freedom as
           vibrations may cause significant error
 Vibrational temperatures:    253.96   489.44   723.35   920.42  1116.41
          (Kelvin)           1194.73  1227.36  1347.16  1349.95  1456.78
                             1574.35  1632.15  1732.65  1830.14  1905.57
                             2014.01  2091.39  4133.20  4171.18  4454.22
                             4589.60

 Zero-point correction=                           0.063666 (Hartree/Particle)
 Thermal correction to Energy=                    0.068279
 Thermal correction to Enthalpy=                  0.069223
 Thermal correction to Gibbs Free Energy=         0.035934
 Sum of electronic and zero-point Energies=           -229.964295
 Sum of electronic and thermal Energies=              -229.959681
 Sum of electronic and thermal Enthalpies=            -229.958737
 Sum of electronic and thermal Free Energies=         -229.992027

                     E (Thermal)             CV                S
                      KCal/Mol        Cal/Mol-Kelvin    Cal/Mol-Kelvin
 Total                   42.846             15.980             70.063
 Electronic               0.000              0.000              1.377
 Translational            0.889              2.981             38.570
 Rotational               0.889              2.981             24.347
 Vibrational             41.068             10.018              5.770
 Vibration     1          0.628              1.871              2.365
 Vibration     2          0.720              1.595              1.211
 Vibration     3          0.858              1.244              0.651

 Optimization completed.
    -- Stationary point found.
 Normal termination of Gaussian 09 at Thu Mar  7 12:45:29 2019.
