 Gaussian 09, Revision E.01,
 Gaussian 09:  EM64L-G09RevE.01 30-Nov-2015

 ------------------------------------------------------
 #p b3lyp/6-311++G(3df,2p) freq IOp(2/17=3) IOp(2/18=3)
 ------------------------------------------------------

 ---------
 b3lyp opt
 ---------
 Symbolic Z-matrix:
 Charge = -1 Multiplicity = 2

                         Standard orientation:
 ---------------------------------------------------------------------
 Center     Atomic      Atomic             Coordinates (Angstroms)
 Number     Number       Type             X           Y           Z
 ---------------------------------------------------------------------
      1          6           0       -1.393588    0.296480    0.078222
      2          6           0        2.207333   -0.375549    0.120889
      3          8           0       -1.770175   -0.893781   -0.026926
      4          6           0        1.088653    0.157295   -0.315741
      5          6           0       -0.080390    0.822842   -0.011351
      6          1           0       -2.160652    1.083842    0.268514
      7          1           0        2.441995   -0.456126    1.193814
      8          1           0        2.964481   -0.791994   -0.541571
      9          1           0       -0.016469    1.908118    0.062540
 ---------------------------------------------------------------------

 SCF Done:  E(UB3LYP) =  -230.079697622     A.U. after   20 cycles

 The electronic state is 2-A.
 Alpha  occ. eigenvalues --  -18.89358 -10.03692  -9.99895  -9.99800  -9.98524
 Alpha  occ. eigenvalues --   -0.80992  -0.60992  -0.53830  -0.41947  -0.32413
 Alpha  occ. eigenvalues --   -0.29021  -0.27064  -0.25253  -0.20879  -0.19157
 Alpha  occ. eigenvalues --   -0.09786  -0.08761  -0.05542   0.03473
 Alpha virt. eigenvalues --    0.11116   0.11823   0.13026   0.14081   0.16341
 Alpha virt. eigenvalues --    0.17695   0.19530   0.19965   0.20896   0.22056
 Alpha virt. eigenvalues --    0.23332   0.24061   0.24232   0.24933   0.25720

  Beta  occ. eigenvalues --  -18.88826 -10.03456  -9.99913  -9.99016  -9.98475
  Beta  occ. eigenvalues --   -0.80021  -0.59920  -0.53188  -0.41066  -0.31641
  Beta  occ. eigenvalues --   -0.28741  -0.26215  -0.24579  -0.20386  -0.16763
  Beta  occ. eigenvalues --   -0.09353  -0.05786  -0.05047
  Beta virt. eigenvalues --    0.10589   0.11791   0.12240   0.13372   0.14052
  Beta virt. eigenvalues --    0.16779   0.17887   0.19663   0.20192   0.20962
  Beta virt. eigenvalues --    0.22480   0.23351   0.24376   0.24738   0.25202

 Mulliken charges and spin densities:
               1          2
     1  C    0.005307   0.206142
     2  C   -0.754608   0.160662
     3  O   -0.784838   0.183147
     4  C    0.349778   0.523976
     5  C    0.031009  -0.240479
     6  H   -0.005534  -0.020351
     7  H   -0.030072   0.181466
     8  H    0.132817  -0.009680
     9  H    0.056140   0.015116
 Sum of Mulliken charges =  -1.00000   1.00000

 Dipole moment (field-independent basis, Debye):
    X=              1.5221    Y=              1.8107    Z=              0.3761  Tot=              2.3952
 Quadrupole moment (field-independent basis, Debye-Ang):
   XX=            -49.1967   YY=            -38.8540   ZZ=            -37.0136
   XY=             -4.6462   XZ=             -0.0929   YZ=             -0.0298

  Exact polarizability: 136.994 -10.895  76.660  15.070   2.157  85.926
 Approx polarizability: 176.520 -10.274 108.090  13.754   1.512 103.366

                      1                      2                      3
                      A                      A                      A
 Frequencies --     66.3731               219.6476               249.3029
 Red. masses --      3.3411                 2.5136                 3.2341
 Frc consts  --      0.0087                 0.0715                 0.1184
 IR Inten    --      0.2764                27.0364                 6.8341

                      4                      5                      6
                      A                      A                      A
 Frequencies --    425.4998               541.6009               665.4356
 Red. masses --      2.4564                 1.7648                 1.3335
 Frc consts  --      0.2620                 0.3050                 0.3479
 IR Inten    --      5.7060                 8.1381                14.9874

                      7                      8                      9
                      A                      A                      A
 Frequencies --    801.3810               851.8879               887.4349
 Red. masses --      3.9370                 1.3514                 1.5937
 Frc consts  --      1.4897                 0.5778                 0.7395
 IR Inten    --     50.1486                30.3915                 2.5304

                     10                     11                     12
                      A                      A                      A
 Frequencies --    925.9827              1036.1513              1106.0662
 Red. masses --      4.0015                 1.4485                 1.6302
 Frc consts  --      2.0215                 0.9163                 1.1750
 IR Inten    --      3.3036                36.4760                18.2589

                     13                     14                     15
                      A                      A                      A
 Frequencies --   1370.5664              1381.0073              1459.0246
 Red. masses --      1.8648                 1.2905                 1.2637
 Frc consts  --      2.0639                 1.4501                 1.5850
 IR Inten    --      5.6689                94.7675                24.0951

                     16                     17                     18
                      A                      A                      A
 Frequencies --   1582.9047              1772.6969              2768.8100
 Red. masses --      5.2296                 9.8562                 1.0749
 Frc consts  --      7.7202                18.2485                 4.8552
 IR Inten    --    608.9869                36.2571               369.0140

                     19                     20                     21
                      A                      A                      A
 Frequencies --   2898.0467              3050.7021              3071.6701
 Red. masses --      1.0728                 1.0858                 1.0841
 Frc consts  --      5.3088                 5.9541                 6.0267
 IR Inten    --    473.8753                62.1652                51.4168

 - Thermochemistry -
 -------------------
 Temperature   298.150 Kelvin.  Pressure   1.00000 Atm.
 Atom     1 has atomic number  6 and mass  12.00000

 Molecular mass:    68.02621 amu.
 Principal axes and moments of inertia in atomic units:
                           1         2         3
     Eigenvalues --   116.44664 603.87794 697.14166
           X            0.99911  -0.04186   0.00435
           Y            0.04181   0.99906   0.01110
           Z           -0.00481  -0.01091   0.99993
 This molecule is an asymmetric top.
 Rotational symmetry number  1.
 Rotational temperatures (Kelvin)      0.74381     0.14343     0.12424
 Rotational constants (GHZ):          15.49844     2.98859     2.58877
 Zero-point vibrational energy     162286.5 (Joules/Mol)
                                   38.78742 (Kcal/Mol)
 Warning -- explicit consideration of   5 degrees of freedom as
           vibrations may cause significant error
 Vibrational temperatures:     95.50   316.02   358.69   612.20   779.24
          (Kelvin)            957.41  1153.01  1225.68  1276.82  1332.28
                             1490.79  1591.38  1971.94  1986.96  2099.21
                             2277.44  2550.51  3983.69  4169.64  4389.27
                             4419.44

 Zero-point correction=                           0.061812 (Hartree/Particle)
 Thermal correction to Energy=                    0.067403
 Thermal correction to Enthalpy=                  0.068347
 Thermal correction to Gibbs Free Energy=         0.032265
 Sum of electronic and zero-point Energies=           -230.017886
 Sum of electronic and thermal Energies=              -230.012295
 Sum of electronic and thermal Enthalpies=            -230.011350
 Sum of electronic and thermal Free Energies=         -230.047432

                     E (Thermal)             CV                S
                      KCal/Mol        Cal/Mol-Kelvin    Cal/Mol-Kelvin
 Total                   42.296             18.193             75.941
 Electronic               0.000              0.000              1.377
 Translational            0.889              2.981             38.570
 Rotational               0.889              2.981             25.397
 Vibrational             40.519             12.231             10.596
 Vibration     1          0.598              1.970              4.258
 Vibration     2          0.647              1.811              1.962
 Vibration     3          0.662              1.764              1.736
 Vibration     4          0.787              1.415              0.873
 Vibration     5          0.897              1.158              0.562

 Normal termination of Gaussian 09 at Thu Mar  7 14:09:36 2019.
