 Gaussian 09, Revision E.01,
 Gaussian 09:  EM64L-G09RevE.01 30-Nov-2015

 ------------------------------------------------------
 #p b3lyp/6-311++G(3df,2p) freq IOp(2/17=3) IOp(2/18=3)
 ------------------------------------------------------

 ---------
 b3lyp opt
 ---------
 Symbolic Z-matrix:
 Charge = -1 Multiplicity = 2

                         Standard orientation:
 ---------------------------------------------------------------------
 Center     Atomic      Atomic             Coordinates (Angstroms)
 Number     Number       Type             X           Y           Z
 ---------------------------------------------------------------------
      1          6           0        0.000000    1.093270    0.345154
      2          6           0       -0.000000   -1.093270    0.345154
      3          8           0        0.000000   -0.000000    1.158051
      4          6           0        0.000000   -0.715415   -0.955117
      5          6           0        0.000000    0.715415   -0.955117
      6          1           0        0.000000    2.049839    0.838717
      7          1           0       -0.000000   -2.049839    0.838717
      8          1           0        0.000000   -1.371457   -1.811137
      9          1           0        0.000000    1.371457   -1.811137
 ---------------------------------------------------------------------

 SCF Done:  E(UB3LYP) =  -230.080963862     A.U. after   19 cycles

 The electronic state is 2-A1.
 Alpha  occ. eigenvalues --  -19.07126 -10.09685 -10.09682 -10.04815 -10.04775
 Alpha  occ. eigenvalues --   -0.99224  -0.68116  -0.62612  -0.47923  -0.44971
 Alpha  occ. eigenvalues --   -0.42319  -0.33440  -0.32577  -0.29147  -0.27932
 Alpha  occ. eigenvalues --   -0.25704  -0.16480  -0.11489   0.05770
 Alpha virt. eigenvalues --    0.07895   0.08851   0.10316   0.11472   0.14635
 Alpha virt. eigenvalues --    0.15793   0.16617   0.17621   0.18376   0.18945
 Alpha virt. eigenvalues --    0.19837   0.20181   0.20925   0.21696   0.21861

  Beta  occ. eigenvalues --  -19.07127 -10.09658 -10.09654 -10.04792 -10.04752
  Beta  occ. eigenvalues --   -0.99213  -0.68073  -0.62557  -0.47871  -0.44882
  Beta  occ. eigenvalues --   -0.42230  -0.33427  -0.32502  -0.29077  -0.27882
  Beta  occ. eigenvalues --   -0.25669  -0.16463  -0.11466
  Beta virt. eigenvalues --    0.08955   0.09857   0.10416   0.11461   0.11830
  Beta virt. eigenvalues --    0.14929   0.15908   0.16661   0.17833   0.18845
  Beta virt. eigenvalues --    0.18990   0.20194   0.20323   0.21204   0.21950

 Mulliken charges and spin densities:
               1          2
     1  C    1.024930  -1.006097
     2  C    1.024930  -1.006097
     3  O   -0.618079   0.032039
     4  C    0.712346  -0.813684
     5  C    0.712346  -0.813684
     6  H   -1.044118   1.240219
     7  H   -1.044118   1.240219
     8  H   -0.884118   1.063542
     9  H   -0.884118   1.063542
 Sum of Mulliken charges =  -1.00000   1.00000

 Dipole moment (field-independent basis, Debye):
    X=              0.0000    Y=             -0.0000    Z=              2.3520  Tot=              2.3520
 Quadrupole moment (field-independent basis, Debye-Ang):
   XX=            -49.8428   YY=            -77.8470   ZZ=            -63.1298
   XY=             -0.0000   XZ=              0.0000   YZ=             -0.0000

  Exact polarizability: 213.922  -0.0003190.621  -0.000  -0.0002279.190
 Approx polarizability: 195.145   0.0003648.025  -0.000  -0.0001553.213

                      1                      2                      3
                     A2                     B1                     A2
 Frequencies --    612.2173               612.3211               730.9556
 Red. masses --      2.7517                 3.4095                 1.3222
 Frc consts  --      0.6077                 0.7532                 0.4162
 IR Inten    --      0.0000               145.0330                 0.0000

                      4                      5                      6
                     B1                     B2                     B1
 Frequencies --    774.8359               860.4732               865.6151
 Red. masses --      1.2251                 6.1650                 1.3163
 Frc consts  --      0.4334                 2.6894                 0.5811
 IR Inten    --   1248.6210                 1.4161                 4.6753

                      7                      8                      9
                     A1                     A2                     A1
 Frequencies --    880.7211               894.3099              1001.2556
 Red. masses --      4.8561                 1.3537                 1.4837
 Frc consts  --      2.2193                 0.6379                 0.8764
 IR Inten    --    500.4746                 0.0000               642.5341

                     10                     11                     12
                     B2                     A1                     A1
 Frequencies --   1049.2203              1076.3379              1159.9914
 Red. masses --      1.7401                 2.6497                 1.9024
 Frc consts  --      1.1287                 1.8086                 1.5082
 IR Inten    --      1.9944                 1.0629                 0.2753

                     13                     14                     15
                     B2                     B2                     A1
 Frequencies --   1186.7068              1285.8087              1408.6163
 Red. masses --      2.5746                 1.2383                 2.9814
 Frc consts  --      2.1362                 1.2062                 3.4854
 IR Inten    --    313.1889                17.0309               414.0663

                     16                     17                     18
                     A1                     B2                     B2
 Frequencies --   1505.9535              1586.6752              3200.1897
 Red. masses --      3.3466                 4.5411                 1.0892
 Frc consts  --      4.4718                 6.7358                 6.5719
 IR Inten    --     23.6676                 2.3262                11.8505

                     19                     20                     21
                     A1                     A1                     B2
 Frequencies --   3204.5892              3234.7237              3236.7142
 Red. masses --      1.0982                 1.1053                 1.0998
 Frc consts  --      6.6446                 6.8142                 6.7887
 IR Inten    --     50.7207                23.0213                 0.0530

 - Thermochemistry -
 -------------------
 Temperature   298.150 Kelvin.  Pressure   1.00000 Atm.
 Atom     1 has atomic number  6 and mass  12.00000

 Molecular mass:    68.02621 amu.
 Principal axes and moments of inertia in atomic units:
                           1         2         3
     Eigenvalues --   190.08797 193.47628 383.56426
           X            0.00000   0.00000   1.00000
           Y            0.00000   1.00000  -0.00000
           Z            1.00000  -0.00000   0.00000
 This molecule is an asymmetric top.
 Rotational symmetry number  2.
 Rotational temperatures (Kelvin)      0.45565     0.44767     0.22581
 Rotational constants (GHZ):           9.49424     9.32797     4.70519
 Zero-point vibrational energy     181642.4 (Joules/Mol)
                                   43.41357 (Kcal/Mol)
 Warning -- explicit consideration of   2 degrees of freedom as
           vibrations may cause significant error
 Vibrational temperatures:    880.84   880.99  1051.68  1114.81  1238.03
          (Kelvin)           1245.43  1267.16  1286.71  1440.58  1509.59
                             1548.61  1668.97  1707.40  1849.99  2026.68
                             2166.73  2282.87  4604.35  4610.68  4654.04
                             4656.90

 Zero-point correction=                           0.069184 (Hartree/Particle)
 Thermal correction to Energy=                    0.072906
 Thermal correction to Enthalpy=                  0.073851
 Thermal correction to Gibbs Free Energy=         0.042919
 Sum of electronic and zero-point Energies=           -230.011780
 Sum of electronic and thermal Energies=              -230.008058
 Sum of electronic and thermal Enthalpies=            -230.007113
 Sum of electronic and thermal Free Energies=         -230.038045

                     E (Thermal)             CV                S
                      KCal/Mol        Cal/Mol-Kelvin    Cal/Mol-Kelvin
 Total                   45.749             13.413             65.101
 Electronic               0.000              0.000              1.377
 Translational            0.889              2.981             38.570
 Rotational               0.889              2.981             22.782
 Vibrational             43.972              7.452              2.372
 Vibration     1          0.971              1.006              0.429
 Vibration     2          0.972              1.006              0.429

 Optimization completed.
    -- Stationary point found.
 Normal termination of Gaussian 09 at Thu Mar  7 15:26:52 2019.
