 Gaussian 09, Revision E.01,
 Gaussian 09:  EM64L-G09RevE.01 30-Nov-2015

 ------------------------------------------------------
 #p b3lyp/6-311++G(3df,2p) freq IOp(2/17=3) IOp(2/18=3)
 ------------------------------------------------------

 ---------
 b3lyp opt
 ---------
 Symbolic Z-matrix:
 Charge = -1 Multiplicity = 4

                         Standard orientation:
 ---------------------------------------------------------------------
 Center     Atomic      Atomic             Coordinates (Angstroms)
 Number     Number       Type             X           Y           Z
 ---------------------------------------------------------------------
      1          6           0       -1.343966    0.228761   -0.281368
      2          6           0        1.935444   -0.597014    0.043544
      3          8           0       -1.706234   -0.885136    0.051377
      4          6           0        1.112797    0.389075   -0.279135
      5          6           0       -0.133560    0.995382    0.190369
      6          1           0       -0.125252    1.013327    1.320137
      7          1           0        1.774188   -1.196509    0.940809
      8          1           0        2.786400   -0.871103   -0.570812
      9          1           0       -0.209750    2.038144   -0.141607
 ---------------------------------------------------------------------

 SCF Done:  E(UB3LYP) =  -229.964130871     A.U. after   25 cycles

 The electronic state is 4-A.
 Alpha  occ. eigenvalues --  -18.96121 -10.05652 -10.04303 -10.03860 -10.01052
 Alpha  occ. eigenvalues --   -0.87562  -0.64866  -0.56508  -0.40789  -0.35915
 Alpha  occ. eigenvalues --   -0.31225  -0.29456  -0.28282  -0.26373  -0.21378
 Alpha  occ. eigenvalues --   -0.20537  -0.12414  -0.06855  -0.01722   0.06671
 Alpha virt. eigenvalues --    0.10660   0.11435   0.11933   0.14135   0.14783
 Alpha virt. eigenvalues --    0.16520   0.17694   0.19597   0.20281   0.20795
 Alpha virt. eigenvalues --    0.22921   0.23435   0.23956   0.24260   0.25232

  Beta  occ. eigenvalues --  -18.94951 -10.04238 -10.03995 -10.02267 -10.00991
  Beta  occ. eigenvalues --   -0.85230  -0.62487  -0.55139  -0.37578  -0.33749
  Beta  occ. eigenvalues --   -0.28840  -0.27825  -0.25934  -0.24770  -0.18232
  Beta  occ. eigenvalues --   -0.16155  -0.10523
  Beta virt. eigenvalues --    0.07268   0.10185   0.10959   0.12027   0.12610
  Beta virt. eigenvalues --    0.14469   0.15342   0.16468   0.17432   0.18952
  Beta virt. eigenvalues --    0.19923   0.20943   0.21493   0.23343   0.24100

 Mulliken charges and spin densities:
               1          2
     1  C   -0.046666   1.204290
     2  C   -0.343806  -0.237941
     3  O   -0.602698   0.342043
     4  C   -0.156383   1.364943
     5  C    0.935705  -1.182165
     6  H   -0.768165   1.003446
     7  H    0.008334   0.183075
     8  H    0.088536   0.061292
     9  H   -0.114857   0.261017
 Sum of Mulliken charges =  -1.00000   3.00000

 Dipole moment (field-independent basis, Debye):
    X=              1.1192    Y=             -0.4902    Z=             -1.6227  Tot=              2.0313
 Quadrupole moment (field-independent basis, Debye-Ang):
   XX=            -51.8940   YY=            -43.6178   ZZ=            -47.2258
   XY=             -3.3264   XZ=             -2.9993   YZ=             -2.2652

  Exact polarizability: 307.896 -69.475 389.539  19.509 -18.662 469.606
 Approx polarizability: 332.751  -7.494 277.618  76.615  38.336 386.696

                      1                      2                      3
                      A                      A                      A
 Frequencies --    117.6368               198.3018               315.8934
 Red. masses --      4.4475                 3.3662                 2.0581
 Frc consts  --      0.0363                 0.0780                 0.1210
 IR Inten    --      3.4173                 4.1722                41.1907

                      4                      5                      6
                      A                      A                      A
 Frequencies --    358.9992               413.6659               530.5338
 Red. masses --      1.8851                 2.3172                 3.2727
 Frc consts  --      0.1431                 0.2336                 0.5427
 IR Inten    --     25.8828                29.2328                56.7493

                      7                      8                      9
                      A                      A                      A
 Frequencies --    727.5558               836.6023               855.9446
 Red. masses --      1.3519                 5.4449                 1.6890
 Frc consts  --      0.4216                 2.2453                 0.7291
 IR Inten    --     26.4111               159.1162                26.8829

                     10                     11                     12
                      A                      A                      A
 Frequencies --    930.6700              1016.7183              1138.1475
 Red. masses --      3.0559                 1.7562                 1.2267
 Frc consts  --      1.5595                 1.0696                 0.9362
 IR Inten    --     22.5253                65.2061               242.0916

                     13                     14                     15
                      A                      A                      A
 Frequencies --   1242.1458              1352.1505              1399.9983
 Red. masses --      1.3171                 1.0921                 1.1536
 Frc consts  --      1.1973                 1.1764                 1.3321
 IR Inten    --    337.2257               230.8830                72.9376

                     16                     17                     18
                      A                      A                      A
 Frequencies --   1544.2731              1611.5765              2564.6049
 Red. masses --      6.2862                 7.5841                 1.0665
 Frc consts  --      8.8326                11.6052                 4.1328
 IR Inten    --   3721.3662              1488.2794               485.4799

                     19                     20                     21
                      A                      A                      A
 Frequencies --   2956.4496              3037.1425              3130.0998
 Red. masses --      1.0809                 1.0616                 1.1004
 Frc consts  --      5.5662                 5.7694                 6.3518
 IR Inten    --    608.7321                 6.9322                 4.1921

 - Thermochemistry -
 -------------------
 Temperature   298.150 Kelvin.  Pressure   1.00000 Atm.
 Atom     1 has atomic number  6 and mass  12.00000

 Molecular mass:    68.02621 amu.
 Principal axes and moments of inertia in atomic units:
                           1         2         3
     Eigenvalues --   155.90186 516.56990 634.32292
           X            0.99877  -0.04954  -0.00021
           Y            0.04954   0.99868   0.01325
           Z           -0.00044  -0.01324   0.99991
 This molecule is an asymmetric top.
 Rotational symmetry number  1.
 Rotational temperatures (Kelvin)      0.55557     0.16767     0.13655
 Rotational constants (GHZ):          11.57614     3.49370     2.84515
 Zero-point vibrational energy     157184.0 (Joules/Mol)
                                   37.56787 (Kcal/Mol)
 Warning -- explicit consideration of   6 degrees of freedom as
           vibrations may cause significant error
 Vibrational temperatures:    169.25   285.31   454.50   516.52   595.17
          (Kelvin)            763.32  1046.79  1203.68  1231.51  1339.02
                             1462.83  1637.54  1787.17  1945.44  2014.28
                             2221.86  2318.70  3689.89  4253.67  4369.77
                             4503.51

 Zero-point correction=                           0.059868 (Hartree/Particle)
 Thermal correction to Energy=                    0.065593
 Thermal correction to Enthalpy=                  0.066537
 Thermal correction to Gibbs Free Energy=         0.029959
 Sum of electronic and zero-point Energies=           -229.904263
 Sum of electronic and thermal Energies=              -229.898538
 Sum of electronic and thermal Enthalpies=            -229.897594
 Sum of electronic and thermal Free Energies=         -229.934172

                     E (Thermal)             CV                S
                      KCal/Mol        Cal/Mol-Kelvin    Cal/Mol-Kelvin
 Total                   41.160             19.087             76.985
 Electronic               0.000              0.000              2.755
 Translational            0.889              2.981             38.570
 Rotational               0.889              2.981             25.438
 Vibrational             39.383             13.126             10.222
 Vibration     1          0.608              1.935              3.139
 Vibration     2          0.637              1.842              2.149
 Vibration     3          0.703              1.643              1.331
 Vibration     4          0.734              1.557              1.126
 Vibration     5          0.777              1.441              0.914
 Vibration     6          0.885              1.182              0.586

 Normal termination of Gaussian 09 at Thu Mar  7 23:02:34 2019.
