 Gaussian 09, Revision E.01,
 Gaussian 09:  EM64L-G09RevE.01 30-Nov-2015

 ------------------------------------------------------
 #p b3lyp/6-311++G(3df,2p) freq IOp(2/17=3) IOp(2/18=3)
 ------------------------------------------------------

 ---------
 b3lyp opt
 ---------
 Symbolic Z-matrix:
 Charge = -1 Multiplicity = 2

                         Standard orientation:
 ---------------------------------------------------------------------
 Center     Atomic      Atomic             Coordinates (Angstroms)
 Number     Number       Type             X           Y           Z
 ---------------------------------------------------------------------
      1          6           0       -0.445282   -0.948189   -0.000000
      2          6           0        0.000000    2.575196    0.000000
      3          8           0       -0.265037   -2.278291   -0.000000
      4          6           0        0.199202    1.385133    0.000000
      5          6           0        0.503752    0.002798    0.000000
      6          1           0       -1.495563   -0.688913   -0.000000
      7          1           0        0.685991   -2.513848   -0.000000
      8          1           0       -0.166132    3.624634    0.000000
      9          1           0        1.549967   -0.285177    0.000000
 ---------------------------------------------------------------------

 SCF Done:  E(UB3LYP) =  -230.033036138     A.U. after   28 cycles

 The electronic state is 2-A'.
 Alpha  occ. eigenvalues --  -19.04428 -10.12562 -10.06255 -10.06176 -10.04478
 Alpha  occ. eigenvalues --   -0.95295  -0.68360  -0.61254  -0.52459  -0.43634
 Alpha  occ. eigenvalues --   -0.40003  -0.38501  -0.30277  -0.29196  -0.26479
 Alpha  occ. eigenvalues --   -0.20666  -0.16525  -0.10692   0.05416
 Alpha virt. eigenvalues --    0.07202   0.09430   0.10013   0.11006   0.13446
 Alpha virt. eigenvalues --    0.15055   0.16477   0.16524   0.16917   0.17812
 Alpha virt. eigenvalues --    0.19901   0.20379   0.20979   0.21328   0.22340

  Beta  occ. eigenvalues --  -19.04325 -10.12558 -10.06221 -10.06167 -10.04447
  Beta  occ. eigenvalues --   -0.95109  -0.68303  -0.61201  -0.52275  -0.43555
  Beta  occ. eigenvalues --   -0.39849  -0.38449  -0.30169  -0.29127  -0.26361
  Beta  occ. eigenvalues --   -0.20626  -0.16472  -0.10649
  Beta virt. eigenvalues --    0.08198   0.09421   0.09695   0.10421   0.12291
  Beta virt. eigenvalues --    0.13629   0.15092   0.16678   0.16727   0.17241
  Beta virt. eigenvalues --    0.18494   0.20131   0.20462   0.21368   0.21771

 Mulliken charges and spin densities:
               1          2
     1  C    2.760339  -2.711352
     2  C   -1.263477   1.086899
     3  O   -0.667823   0.104143
     4  C    5.310331  -5.469656
     5  C   -3.517457   3.468055
     6  H   -0.014105   0.179586
     7  H   -0.825499   1.133959
     8  H   -1.325211   1.602349
     9  H   -1.457099   1.606017
 Sum of Mulliken charges =  -1.00000   1.00000

 Dipole moment (field-independent basis, Debye):
    X=             -4.8736    Y=              1.0701    Z=              0.0000  Tot=              4.9897
 Quadrupole moment (field-independent basis, Debye-Ang):
   XX=            -56.6686   YY=            -92.6642   ZZ=            -48.6402
   XY=              9.6259   XZ=             -0.0000   YZ=             -0.0000

  Exact polarizability: 835.441-669.1333073.424  -0.000  -0.059 201.781
 Approx polarizability: 743.720********4897.117   0.000   0.000 179.631

                      1                      2                      3
                     ?A                     ?A                     A"
 Frequencies --    168.0297               207.8520               435.0681
 Red. masses --      4.1306                 2.9787                 1.3364
 Frc consts  --      0.0687                 0.0758                 0.1490
 IR Inten    --     87.7907               158.8249                49.8916

                      4                      5                      6
                     A"                     A"                     A"
 Frequencies --    435.8686               543.1585               543.7931
 Red. masses --      3.2251                 5.8363                 3.2952
 Frc consts  --      0.3610                 1.0145                 0.5741
 IR Inten    --    159.7491               137.7180               251.1044

                      7                      8                      9
                     A"                     A'                     A"
 Frequencies --    618.5528               685.1786               883.9569
 Red. masses --      1.4396                 1.2723                 2.1145
 Frc consts  --      0.3245                 0.3519                 0.9735
 IR Inten    --    128.7839               360.9853               242.7573

                     10                     11                     12
                     A"                     A'                     A'
 Frequencies --    945.0604              1029.5368              1134.3531
 Red. masses --      1.0905                 3.2671                 2.2256
 Frc consts  --      0.5738                 2.0403                 1.6873
 IR Inten    --     77.1127               327.2834              1635.6484

                     13                     14                     15
                     A'                     A'                     A'
 Frequencies --   1258.4388              1338.9545              1378.2867
 Red. masses --      1.7478                 1.3858                 1.2798
 Frc consts  --      1.6308                 1.4638                 1.4324
 IR Inten    --    109.0578               171.8184               247.5922

                     16                     17                     18
                     A'                     A'                     A'
 Frequencies --   1652.1078              2165.9081              3113.5088
 Red. masses --      4.9051                 6.2166                 1.0883
 Frc consts  --      7.8882                17.1823                 6.2160
 IR Inten    --   2439.9937               187.7189               774.9738

                     19                     20                     21
                     A'                     A'                     A'
 Frequencies --   3174.8102              3395.9141              3433.9866
 Red. masses --      1.0904                 1.0697                 1.1503
 Frc consts  --      6.4757                 7.2681                 7.9922
 IR Inten    --    306.4984             14838.7076               834.0053

 - Thermochemistry -
 -------------------
 Temperature   298.150 Kelvin.  Pressure   1.00000 Atm.
 Atom     1 has atomic number  6 and mass  12.00000

 Molecular mass:    68.02621 amu.
 Principal axes and moments of inertia in atomic units:
                           1         2         3
     Eigenvalues --    38.94334 778.05088 816.99422
           X            0.07900   0.99687  -0.00000
           Y            0.99687  -0.07900  -0.00000
           Z            0.00000   0.00000   1.00000
 This molecule is an asymmetric top.
 Rotational symmetry number  1.
 Rotational temperatures (Kelvin)      2.22410     0.11132     0.10602
 Rotational constants (GHZ):          46.34274     2.31957     2.20900
 Zero-point vibrational energy     170721.0 (Joules/Mol)
                                   40.80330 (Kcal/Mol)
 Warning -- explicit consideration of   7 degrees of freedom as
           vibrations may cause significant error
 Vibrational temperatures:    241.76   299.05   625.97   627.12   781.48
          (Kelvin)            782.40   889.96   985.82  1271.82  1359.73
                             1481.27  1632.08  1810.61  1926.45  1983.04
                             2377.01  3116.25  4479.64  4567.84  4885.96
                             4940.73

 Zero-point correction=                           0.065024 (Hartree/Particle)
 Thermal correction to Energy=                    0.070419
 Thermal correction to Enthalpy=                  0.071363
 Thermal correction to Gibbs Free Energy=         0.036578
 Sum of electronic and zero-point Energies=           -229.968012
 Sum of electronic and thermal Energies=              -229.962618
 Sum of electronic and thermal Enthalpies=            -229.961673
 Sum of electronic and thermal Free Energies=         -229.996458

                     E (Thermal)             CV                S
                      KCal/Mol        Cal/Mol-Kelvin    Cal/Mol-Kelvin
 Total                   44.188             18.642             73.211
 Electronic               0.000              0.000              1.377
 Translational            0.889              2.981             38.570
 Rotational               0.889              2.981             24.719
 Vibrational             42.411             12.680              8.545
 Vibration     1          0.625              1.882              2.457
 Vibration     2          0.641              1.829              2.062
 Vibration     3          0.796              1.394              0.842
 Vibration     4          0.796              1.392              0.840
 Vibration     5          0.898              1.155              0.559
 Vibration     6          0.899              1.153              0.557
 Vibration     7          0.978              0.993              0.419

 Normal termination of Gaussian 09 at Thu Mar  7 14:41:43 2019.
