 Gaussian 09, Revision E.01,
 Gaussian 09:  EM64L-G09RevE.01 30-Nov-2015

 ------------------------------------------------------
 #p b3lyp/6-311++G(3df,2p) freq IOp(2/17=3) IOp(2/18=3)
 ------------------------------------------------------

 ---------
 b3lyp opt
 ---------
 Symbolic Z-matrix:
 Charge = -1 Multiplicity = 2

                         Standard orientation:
 ---------------------------------------------------------------------
 Center     Atomic      Atomic             Coordinates (Angstroms)
 Number     Number       Type             X           Y           Z
 ---------------------------------------------------------------------
      1          6           0        1.366824    0.191176    0.681062
      2          6           0       -1.145127    0.093026    0.000000
      3          8           0       -1.363469   -1.126182    0.000000
      4          6           0        0.120520    0.800449    0.000000
      5          6           0        1.366824    0.191176   -0.681062
      6          1           0        1.340651   -0.655884    1.369260
      7          1           0        0.000000    1.883227    0.000000
      8          1           0       -2.027570    0.783112    0.000000
      9          1           0        1.340651   -0.655884   -1.369260
 ---------------------------------------------------------------------

 SCF Done:  E(UB3LYP) =  -230.018813708     A.U. after   17 cycles

 The electronic state is 2-A".
 Alpha  occ. eigenvalues --  -18.91826 -10.05645 -10.00170  -9.97707  -9.97645
 Alpha  occ. eigenvalues --   -0.83839  -0.66210  -0.49411  -0.35909  -0.35282
 Alpha  occ. eigenvalues --   -0.30564  -0.27760  -0.22600  -0.20735  -0.15421
 Alpha  occ. eigenvalues --   -0.10471  -0.08022  -0.06623   0.04833
 Alpha virt. eigenvalues --    0.11685   0.13197   0.13367   0.14173   0.15431
 Alpha virt. eigenvalues --    0.18258   0.19765   0.20434   0.21253   0.21605
 Alpha virt. eigenvalues --    0.24009   0.24582   0.25382   0.25623   0.25903

  Beta  occ. eigenvalues --  -18.91412 -10.05521 -10.00197  -9.97132  -9.97066
  Beta  occ. eigenvalues --   -0.83121  -0.65727  -0.48755  -0.34873  -0.34466
  Beta  occ. eigenvalues --   -0.30115  -0.27253  -0.22198  -0.19035  -0.14792
  Beta  occ. eigenvalues --   -0.09325  -0.06954  -0.03776
  Beta virt. eigenvalues --    0.11666   0.13089   0.13264   0.13649   0.14150
  Beta virt. eigenvalues --    0.17009   0.18240   0.19793   0.20692   0.21409
  Beta virt. eigenvalues --    0.22488   0.24027   0.24576   0.25536   0.25597

 Mulliken charges and spin densities:
               1          2
     1  C   -0.386341   0.370990
     2  C   -0.069838   0.122948
     3  O   -0.743775   0.123310
     4  C    0.280193  -0.071449
     5  C   -0.386341   0.370990
     6  H    0.096800   0.048835
     7  H    0.120673  -0.003393
     8  H   -0.008172  -0.011067
     9  H    0.096800   0.048835
 Sum of Mulliken charges =  -1.00000   1.00000

 Dipole moment (field-independent basis, Debye):
    X=             -1.6691    Y=              0.4074    Z=              0.0000  Tot=              1.7181
 Quadrupole moment (field-independent basis, Debye-Ang):
   XX=            -47.8444   YY=            -39.9099   ZZ=            -37.6094
   XY=             -7.9440   XZ=              0.0000   YZ=             -0.0000

  Exact polarizability: 123.181   9.652  72.242   0.000   0.000  75.081
 Approx polarizability: 172.906  13.287 101.990  -0.000   0.000 107.495

                      1                      2                      3
                     A"                     A'                     A"
 Frequencies --    147.0025               246.4078               307.7784
 Red. masses --      2.6850                 4.8887                 2.5246
 Frc consts  --      0.0342                 0.1749                 0.1409
 IR Inten    --      5.3281                14.3241                 1.7790

                      4                      5                      6
                     A"                     A'                     A'
 Frequencies --    591.6351               646.1616               696.9987
 Red. masses --      4.3120                 1.5128                 1.7689
 Frc consts  --      0.8893                 0.3721                 0.5063
 IR Inten    --    105.6562               242.4363                90.7029

                      7                      8                      9
                     A"                     A'                     A'
 Frequencies --    849.5485               866.4387               933.0697
 Red. masses --      1.3174                 5.4971                 1.5155
 Frc consts  --      0.5602                 2.4314                 0.7774
 IR Inten    --     89.5283                21.5995               297.8859

                     10                     11                     12
                     A"                     A"                     A'
 Frequencies --    943.0295              1006.6693              1059.0749
 Red. masses --      1.7874                 1.3062                 3.1232
 Frc consts  --      0.9365                 0.7799                 2.0640
 IR Inten    --      7.3257                 1.5091                49.7019

                     13                     14                     15
                     A"                     A'                     A'
 Frequencies --   1064.9825              1299.0519              1377.8268
 Red. masses --      1.2356                 1.4049                 1.3997
 Frc consts  --      0.8257                 1.3968                 1.5656
 IR Inten    --     28.0372               147.0399                84.0652

                     16                     17                     18
                     A'                     A'                     A'
 Frequencies --   1451.7689              1627.7551              2728.8858
 Red. masses --      3.5754                 6.0057                 1.0748
 Frc consts  --      4.4398                 9.3755                 4.7155
 IR Inten    --     72.1708               532.4952               340.9857

                     19                     20                     21
                     A"                     A'                     A'
 Frequencies --   2976.2453              3021.7977              3034.5550
 Red. masses --      1.0816                 1.1004                 1.0861
 Frc consts  --      5.6450                 5.9202                 5.8929
 IR Inten    --    144.2601               119.1269               126.3746

 - Thermochemistry -
 -------------------
 Temperature   298.150 Kelvin.  Pressure   1.00000 Atm.
 Atom     1 has atomic number  6 and mass  12.00000

 Molecular mass:    68.02621 amu.
 Principal axes and moments of inertia in atomic units:
                           1         2         3
     Eigenvalues --   138.73897 439.96652 472.20645
           X            0.93854  -0.34516   0.00000
           Y            0.34516   0.93854   0.00000
           Z            0.00000   0.00000   1.00000
 This molecule is an asymmetric top.
 Rotational symmetry number  1.
 Rotational temperatures (Kelvin)      0.62429     0.19686     0.18342
 Rotational constants (GHZ):          13.00818     4.10200     3.82193
 Zero-point vibrational energy     160758.3 (Joules/Mol)
                                   38.42215 (Kcal/Mol)
 Warning -- explicit consideration of   4 degrees of freedom as
           vibrations may cause significant error
 Vibrational temperatures:    211.50   354.53   442.82   851.23   929.68
          (Kelvin)           1002.82  1222.31  1246.61  1342.48  1356.81
                             1448.37  1523.77  1532.27  1869.04  1982.38
                             2088.77  2341.97  3926.25  4282.15  4347.69
                             4366.04

 Zero-point correction=                           0.061230 (Hartree/Particle)
 Thermal correction to Energy=                    0.066370
 Thermal correction to Enthalpy=                  0.067314
 Thermal correction to Gibbs Free Energy=         0.032779
 Sum of electronic and zero-point Energies=           -229.957584
 Sum of electronic and thermal Energies=              -229.952444
 Sum of electronic and thermal Enthalpies=            -229.951500
 Sum of electronic and thermal Free Energies=         -229.986034

                     E (Thermal)             CV                S
                      KCal/Mol        Cal/Mol-Kelvin    Cal/Mol-Kelvin
 Total                   41.648             17.534             72.684
 Electronic               0.000              0.000              1.377
 Translational            0.889              2.981             38.570
 Rotational               0.889              2.981             24.870
 Vibrational             39.870             11.572              7.867
 Vibration     1          0.617              1.906              2.711
 Vibration     2          0.661              1.769              1.756
 Vibration     3          0.698              1.659              1.374
 Vibration     4          0.949              1.050              0.464

 Optimization completed.
    -- Stationary point found.
 Normal termination of Gaussian 09 at Thu Mar  7 16:34:23 2019.
