 Gaussian 09, Revision E.01,
 Gaussian 09:  EM64L-G09RevE.01 30-Nov-2015

 ------------------------------------------------------
 #p b3lyp/6-311++G(3df,2p) freq IOp(2/17=3) IOp(2/18=3)
 ------------------------------------------------------

 ---------
 b3lyp opt
 ---------
 Symbolic Z-matrix:
 Charge = -1 Multiplicity = 2

                         Standard orientation:
 ---------------------------------------------------------------------
 Center     Atomic      Atomic             Coordinates (Angstroms)
 Number     Number       Type             X           Y           Z
 ---------------------------------------------------------------------
      1          8           0        2.371475   -0.495068    0.017495
      2          6           0       -2.472446   -0.157664    0.142963
      3          6           0       -1.113092    0.106532   -0.368461
      4          6           0        0.093149    0.201035   -0.074689
      5          6           0        1.463993    0.387116    0.085864
      6          1           0       -2.498773   -0.274282    1.244112
      7          1           0       -2.891206   -1.071721   -0.288651
      8          1           0       -3.166308    0.648154   -0.112884
      9          1           0        1.754868    1.436278    0.303390
 ---------------------------------------------------------------------

 SCF Done:  E(UB3LYP) =  -230.071951272     A.U. after   23 cycles

 The electronic state is 2-A.
 Alpha  occ. eigenvalues --  -18.89478 -10.03979 -10.03358  -9.98560  -9.97767
 Alpha  occ. eigenvalues --   -0.80490  -0.61265  -0.54354  -0.45169  -0.31251
 Alpha  occ. eigenvalues --   -0.28249  -0.27388  -0.26774  -0.23120  -0.19395
 Alpha  occ. eigenvalues --   -0.09868  -0.08296  -0.06018   0.04152
 Alpha virt. eigenvalues --    0.09642   0.12514   0.12693   0.13209   0.16714
 Alpha virt. eigenvalues --    0.18204   0.19108   0.20044   0.20256   0.21519
 Alpha virt. eigenvalues --    0.21981   0.22072   0.22604   0.24807   0.25224

  Beta  occ. eigenvalues --  -18.88748 -10.03647 -10.03296  -9.98033  -9.97765
  Beta  occ. eigenvalues --   -0.79148  -0.60627  -0.53795  -0.44051  -0.30707
  Beta  occ. eigenvalues --   -0.27719  -0.27202  -0.26354  -0.22346  -0.16280
  Beta  occ. eigenvalues --   -0.08023  -0.06893  -0.05366
  Beta virt. eigenvalues --    0.09203   0.12273   0.12597   0.13037   0.13324
  Beta virt. eigenvalues --    0.17020   0.18230   0.19292   0.20159   0.20202
  Beta virt. eigenvalues --    0.21580   0.22012   0.22378   0.22826   0.24933

 Mulliken charges and spin densities:
               1          2
     1  O   -0.767769   0.242033
     2  C    0.148749  -0.610790
     3  C   -0.727133   0.476914
     4  C    0.679468   0.154369
     5  C   -0.343150   0.365158
     6  H   -0.114292   0.259934
     7  H    0.049037   0.068366
     8  H    0.060123   0.053994
     9  H    0.014966  -0.009977
 Sum of Mulliken charges =  -1.00000   1.00000

 Dipole moment (field-independent basis, Debye):
    X=             -3.5345    Y=              1.0697    Z=              0.4441  Tot=              3.7194
 Quadrupole moment (field-independent basis, Debye-Ang):
   XX=            -55.6067   YY=            -36.3370   ZZ=            -38.3873
   XY=              3.9399   XZ=              0.2152   YZ=              0.3609

  Exact polarizability: 265.646  18.380  80.052 -40.207  -6.316 132.618
 Approx polarizability: 320.012  11.704  98.097 -27.467  -3.639 135.652

                      1                      2                      3
                      A                      A                      A
 Frequencies --    103.2945               140.4146               179.7996
 Red. masses --      1.2022                 4.2869                 3.1113
 Frc consts  --      0.0076                 0.0498                 0.0593
 IR Inten    --      1.0364                 7.9931                20.4380

                      4                      5                      6
                      A                      A                      A
 Frequencies --    308.3700               383.8104               597.5226
 Red. masses --      4.7028                 4.9018                 7.6531
 Frc consts  --      0.2635                 0.4254                 1.6099
 IR Inten    --     10.6991                14.4898                42.0766

                      7                      8                      9
                      A                      A                      A
 Frequencies --    796.7058               828.4274              1015.5468
 Red. masses --      1.6778                 5.2342                 1.3803
 Frc consts  --      0.6275                 2.1165                 0.8387
 IR Inten    --     10.2297                40.5677                42.6339

                     10                     11                     12
                      A                      A                      A
 Frequencies --   1049.2196              1156.5642              1336.8014
 Red. masses --      1.3725                 5.3049                 1.4446
 Frc consts  --      0.8902                 4.1809                 1.5210
 IR Inten    --      2.4082                25.4522               492.9075

                     13                     14                     15
                      A                      A                      A
 Frequencies --   1384.6653              1467.3856              1475.5521
 Red. masses --      1.2127                 1.0493                 1.0599
 Frc consts  --      1.3699                 1.3311                 1.3596
 IR Inten    --      1.8665                 7.1373                 7.1666

                     16                     17                     18
                      A                      A                      A
 Frequencies --   1497.9901              2031.5228              2819.0567
 Red. masses --      3.7031                11.6369                 1.0743
 Frc consts  --      4.8959                28.2964                 5.0300
 IR Inten    --   1278.5458               437.8960               304.3307

                     19                     20                     21
                      A                      A                      A
 Frequencies --   2838.7854              2999.9164              3021.8961
 Red. masses --      1.0652                 1.0624                 1.0995
 Frc consts  --      5.0577                 5.6330                 5.9159
 IR Inten    --    649.6367                27.4075                19.2027

 - Thermochemistry -
 -------------------
 Temperature   298.150 Kelvin.  Pressure   1.00000 Atm.
 Atom     1 has atomic number  8 and mass  15.99491

 Molecular mass:    68.02621 amu.
 Principal axes and moments of inertia in atomic units:
                           1         2         3
     Eigenvalues --    50.15147 839.50869 862.94470
           X            0.99980   0.01904  -0.00565
           Y           -0.01874   0.99868   0.04777
           Z            0.00656  -0.04765   0.99884
 This molecule is an asymmetric top.
 Rotational symmetry number  1.
 Rotational temperatures (Kelvin)      1.72704     0.10317     0.10037
 Rotational constants (GHZ):          35.98581     2.14976     2.09138
 Zero-point vibrational energy     164087.3 (Joules/Mol)
                                   39.21780 (Kcal/Mol)
 Warning -- explicit consideration of   6 degrees of freedom as
           vibrations may cause significant error
 Vibrational temperatures:    148.62   202.03   258.69   443.68   552.22
          (Kelvin)            859.70  1146.28  1191.92  1461.14  1509.59
                             1664.04  1923.36  1992.22  2111.24  2122.99
                             2155.27  2922.90  4055.99  4084.37  4316.21
                             4347.83

 Zero-point correction=                           0.062498 (Hartree/Particle)
 Thermal correction to Energy=                    0.068477
 Thermal correction to Enthalpy=                  0.069422
 Thermal correction to Gibbs Free Energy=         0.032785
 Sum of electronic and zero-point Energies=           -230.009454
 Sum of electronic and thermal Energies=              -230.003474
 Sum of electronic and thermal Enthalpies=            -230.002530
 Sum of electronic and thermal Free Energies=         -230.039166

                     E (Thermal)             CV                S
                      KCal/Mol        Cal/Mol-Kelvin    Cal/Mol-Kelvin
 Total                   42.970             18.566             77.107
 Electronic               0.000              0.000              1.377
 Translational            0.889              2.981             38.570
 Rotational               0.889              2.981             25.100
 Vibrational             41.193             12.604             12.061
 Vibration     1          0.605              1.947              3.391
 Vibration     2          0.615              1.913              2.798
 Vibration     3          0.629              1.867              2.330
 Vibration     4          0.698              1.658              1.371
 Vibration     5          0.753              1.505              1.024
 Vibration     6          0.955              1.037              0.454

 Optimization completed.
    -- Stationary point found.
 Normal termination of Gaussian 09 at Thu Mar  7 16:06:16 2019.
