 Gaussian 09, Revision E.01,
 Gaussian 09:  EM64L-G09RevE.01 30-Nov-2015

 ------------------------------------------------------
 #p b3lyp/6-311++G(3df,2p) freq IOp(2/17=3) IOp(2/18=3)
 ------------------------------------------------------

 ---------
 b3lyp opt
 ---------
 Symbolic Z-matrix:
 Charge = -1 Multiplicity = 2

                         Standard orientation:
 ---------------------------------------------------------------------
 Center     Atomic      Atomic             Coordinates (Angstroms)
 Number     Number       Type             X           Y           Z
 ---------------------------------------------------------------------
      1          6           0        0.338704    0.910972    0.000000
      2          6           0       -0.015425   -1.520204    0.678101
      3          8           0       -0.000000    2.104407    0.000000
      4          6           0       -0.015425   -1.520204   -0.678101
      5          6           0       -0.536291   -0.245917   -0.000000
      6          1           0        1.420395    0.644177    0.000000
      7          1           0        0.775484   -1.603937   -1.425789
      8          1           0        0.775484   -1.603937    1.425789
      9          1           0       -1.600731   -0.019432    0.000000
 ---------------------------------------------------------------------

 SCF Done:  E(UB3LYP) =  -230.029517419     A.U. after   18 cycles

 The electronic state is 2-A".
 Alpha  occ. eigenvalues --  -18.91887 -10.05323 -10.00326  -9.98562  -9.98496
 Alpha  occ. eigenvalues --   -0.83721  -0.67537  -0.47905  -0.38124  -0.37119
 Alpha  occ. eigenvalues --   -0.30586  -0.26088  -0.23959  -0.20867  -0.15990
 Alpha  occ. eigenvalues --   -0.10922  -0.08816  -0.06685   0.04211
 Alpha virt. eigenvalues --    0.11538   0.12751   0.13475   0.14560   0.16915
 Alpha virt. eigenvalues --    0.18533   0.19219   0.20179   0.20742   0.21079
 Alpha virt. eigenvalues --    0.23887   0.24866   0.25144   0.25629   0.25709

  Beta  occ. eigenvalues --  -18.91520 -10.05164 -10.00369  -9.98026  -9.97958
  Beta  occ. eigenvalues --   -0.83064  -0.67078  -0.47163  -0.37794  -0.35760
  Beta  occ. eigenvalues --   -0.30099  -0.25549  -0.23686  -0.19267  -0.15460
  Beta  occ. eigenvalues --   -0.09921  -0.07257  -0.04654
  Beta virt. eigenvalues --    0.11572   0.11870   0.13005   0.13454   0.14472
  Beta virt. eigenvalues --    0.18435   0.19088   0.19254   0.20520   0.20879
  Beta virt. eigenvalues --    0.21996   0.23925   0.24839   0.25126   0.25547

 Mulliken charges and spin densities:
               1          2
     1  C   -0.033603   0.170492
     2  C   -0.453502   0.358153
     3  O   -0.740807   0.121884
     4  C   -0.453502   0.358153
     5  C    0.319125  -0.099856
     6  H    0.064581  -0.016779
     7  H    0.077299   0.054596
     8  H    0.077299   0.054596
     9  H    0.143112  -0.001239
 Sum of Mulliken charges =  -1.00000   1.00000

 Dipole moment (field-independent basis, Debye):
    X=              1.2398    Y=             -0.0656    Z=             -0.0000  Tot=              1.2415
 Quadrupole moment (field-independent basis, Debye-Ang):
   XX=            -35.6688   YY=            -55.9181   ZZ=            -37.4863
   XY=             -2.4793   XZ=             -0.0000   YZ=              0.0000

  Exact polarizability:  82.124  10.742 117.042  -0.000  -0.000  85.124
 Approx polarizability: 102.261  10.478 180.276  -0.000   0.000 115.849

                      1                      2                      3
                     A"                     A'                     A"
 Frequencies --    177.5591               324.9503               415.1888
 Red. masses --      4.5052                 3.1526                 2.0125
 Frc consts  --      0.0837                 0.1961                 0.2044
 IR Inten    --      3.4214                11.6667                 5.9380

                      4                      5                      6
                     A'                     A'                     A"
 Frequencies --    509.2448               617.7336               629.4759
 Red. masses --      5.7430                 1.1730                 3.2048
 Frc consts  --      0.8775                 0.2637                 0.7482
 IR Inten    --     34.2098               325.6548               140.2152

                      7                      8                      9
                     A"                     A"                     A'
 Frequencies --    823.9084               914.5974               918.5275
 Red. masses --      1.4406                 1.9395                 1.2826
 Frc consts  --      0.5762                 0.9559                 0.6376
 IR Inten    --     54.3947                 1.0598               124.0040

                     10                     11                     12
                     A"                     A'                     A"
 Frequencies --   1006.4521              1010.4688              1052.9229
 Red. masses --      1.3253                 4.1342                 1.2255
 Frc consts  --      0.7909                 2.4870                 0.8005
 IR Inten    --      0.2561                 3.9989                21.4478

                     13                     14                     15
                     A'                     A'                     A'
 Frequencies --   1135.1769              1262.6289              1381.3857
 Red. masses --      4.6730                 1.2475                 1.2505
 Frc consts  --      3.5479                 1.1718                 1.4060
 IR Inten    --      0.2962                 3.0011                52.7533

                     16                     17                     18
                     A'                     A'                     A'
 Frequencies --   1437.1311              1620.9942              2810.4480
 Red. masses --      5.9253                 6.9970                 1.0783
 Frc consts  --      7.2103                10.8324                 5.0182
 IR Inten    --    451.0207               644.2732               145.7935

                     19                     20                     21
                     A"                     A'                     A'
 Frequencies --   2979.3059              3030.6872              3057.8129
 Red. masses --      1.0812                 1.1038                 1.0866
 Frc consts  --      5.6545                 5.9732                 5.9861
 IR Inten    --    348.9516               190.5872                89.9245

 - Thermochemistry -
 -------------------
 Temperature   298.150 Kelvin.  Pressure   1.00000 Atm.
 Atom     1 has atomic number  6 and mass  12.00000

 Molecular mass:    68.02621 amu.
 Principal axes and moments of inertia in atomic units:
                           1         2         3
     Eigenvalues --    91.50687 546.82004 563.39687
           X            0.03290   0.00000   0.99946
           Y            0.99946   0.00000  -0.03290
           Z           -0.00000   1.00000  -0.00000
 This molecule is an asymmetric top.
 Rotational symmetry number  1.
 Rotational temperatures (Kelvin)      0.94653     0.15840     0.15373
 Rotational constants (GHZ):          19.72247     3.30043     3.20332
 Zero-point vibrational energy     162193.3 (Joules/Mol)
                                   38.76513 (Kcal/Mol)
 Warning -- explicit consideration of   5 degrees of freedom as
           vibrations may cause significant error
 Vibrational temperatures:    255.47   467.53   597.36   732.69   888.78
          (Kelvin)            905.67  1185.42  1315.90  1321.55  1448.06
                             1453.84  1514.92  1633.26  1816.64  1987.50
                             2067.71  2332.25  4043.60  4286.55  4360.48
                             4399.51

 Zero-point correction=                           0.061776 (Hartree/Particle)
 Thermal correction to Energy=                    0.066729
 Thermal correction to Enthalpy=                  0.067673
 Thermal correction to Gibbs Free Energy=         0.033638
 Sum of electronic and zero-point Energies=           -229.967741
 Sum of electronic and thermal Energies=              -229.962788
 Sum of electronic and thermal Enthalpies=            -229.961844
 Sum of electronic and thermal Free Energies=         -229.995880

                     E (Thermal)             CV                S
                      KCal/Mol        Cal/Mol-Kelvin    Cal/Mol-Kelvin
 Total                   41.873             17.389             71.634
 Electronic               0.000              0.000              1.377
 Translational            0.889              2.981             38.570
 Rotational               0.889              2.981             24.848
 Vibrational             40.096             11.428              6.839
 Vibration     1          0.628              1.870              2.354
 Vibration     2          0.709              1.626              1.285
 Vibration     3          0.779              1.437              0.908
 Vibration     4          0.864              1.230              0.635
 Vibration     5          0.978              0.994              0.420

 Optimization completed.
    -- Stationary point found.
 Normal termination of Gaussian 09 at Thu Mar  7 16:55:20 2019.
