 Gaussian 09, Revision E.01,
 Gaussian 09:  EM64L-G09RevE.01 30-Nov-2015

 ------------------------------------------------------
 #p b3lyp/6-311++G(3df,2p) freq IOp(2/17=3) IOp(2/18=3)
 ------------------------------------------------------

 ---------
 b3lyp opt
 ---------
 Symbolic Z-matrix:
 Charge = -1 Multiplicity = 2

                         Standard orientation:
 ---------------------------------------------------------------------
 Center     Atomic      Atomic             Coordinates (Angstroms)
 Number     Number       Type             X           Y           Z
 ---------------------------------------------------------------------
      1          6           0        1.256023    0.228016   -0.446554
      2          6           0       -2.261017   -0.128848   -0.343616
      3          8           0        2.033164   -0.542140    0.019951
      4          6           0       -1.088664   -0.276206    0.282926
      5          6           0        0.006839    0.793081    0.211883
      6          1           0        0.325250    1.126465    1.212024
      7          1           0       -2.930322   -0.982367   -0.127232
      8          1           0       -0.768721   -1.140608    0.886251
      9          1           0       -0.370606    1.637368   -0.358490
 ---------------------------------------------------------------------

 SCF Done:  E(UB3LYP) =  -230.020346191     A.U. after   21 cycles

 The electronic state is 2-A.
 Alpha  occ. eigenvalues --  -19.01135 -10.10462 -10.02713  -9.97843  -9.93678
 Alpha  occ. eigenvalues --   -0.93541  -0.61952  -0.51359  -0.39030  -0.34825
 Alpha  occ. eigenvalues --   -0.31609  -0.30357  -0.26507  -0.25055  -0.20322
 Alpha  occ. eigenvalues --   -0.17325  -0.07105  -0.03418   0.00295
 Alpha virt. eigenvalues --    0.11356   0.12045   0.12983   0.13822   0.14828
 Alpha virt. eigenvalues --    0.16124   0.18652   0.19582   0.20149   0.20845
 Alpha virt. eigenvalues --    0.22121   0.22763   0.24061   0.25053   0.25264

  Beta  occ. eigenvalues --  -19.00380 -10.09569 -10.02414  -9.97857  -9.93556
  Beta  occ. eigenvalues --   -0.92091  -0.61185  -0.50726  -0.37386  -0.34540
  Beta  occ. eigenvalues --   -0.29715  -0.29256  -0.25171  -0.23075  -0.19230
  Beta  occ. eigenvalues --   -0.17062  -0.06225   0.00718
  Beta virt. eigenvalues --    0.07862   0.11909   0.13007   0.13224   0.13941
  Beta virt. eigenvalues --    0.15015   0.16191   0.18895   0.19807   0.20279
  Beta virt. eigenvalues --    0.20977   0.22177   0.22962   0.24161   0.25138

 Mulliken charges and spin densities:
               1          2
     1  C   -0.023861   0.781863
     2  C   -0.760894   0.130816
     3  O   -0.518655   0.191561
     4  C   -0.447088  -0.132837
     5  C    0.594016   0.023116
     6  H    0.076645   0.029926
     7  H    0.092078   0.008296
     8  H    0.006466  -0.012621
     9  H   -0.018707  -0.020121
 Sum of Mulliken charges =  -1.00000   1.00000

 Dipole moment (field-independent basis, Debye):
    X=              4.7570    Y=              0.1205    Z=              2.3047  Tot=              5.2872
 Quadrupole moment (field-independent basis, Debye-Ang):
   XX=            -61.7205   YY=            -36.5595   ZZ=            -39.0264
   XY=              4.4665   XZ=             -3.8580   YZ=              1.5438

  Exact polarizability: 145.276   0.685  81.101   8.967  -9.278  78.892
 Approx polarizability: 203.338  -0.047 106.777  15.427 -10.809 104.273

                      1                      2                      3
                      A                      A                      A
 Frequencies --     89.5858               113.3380               279.2810
 Red. masses --      8.0289                 4.1414                 3.7467
 Frc consts  --      0.0380                 0.0313                 0.1722
 IR Inten    --      5.8345                21.7797                 8.3143

                      4                      5                      6
                      A                      A                      A
 Frequencies --    436.3752               476.6045               638.7922
 Red. masses --      3.8743                 2.3162                 1.5041
 Frc consts  --      0.4347                 0.3100                 0.3616
 IR Inten    --     69.9398                 5.9047                65.0621

                      7                      8                      9
                      A                      A                      A
 Frequencies --    799.8273               842.9690               918.6228
 Red. masses --      5.4564                 2.6674                 1.4689
 Frc consts  --      2.0566                 1.1168                 0.7303
 IR Inten    --     14.9175               114.9109                66.6788

                     10                     11                     12
                      A                      A                      A
 Frequencies --    968.2906              1064.0076              1143.5147
 Red. masses --      1.1965                 1.7090                 1.1927
 Frc consts  --      0.6609                 1.1400                 0.9189
 IR Inten    --     37.6636                76.7238                12.4645

                     13                     14                     15
                      A                      A                      A
 Frequencies --   1210.3393              1272.5833              1444.2851
 Red. masses --      1.1949                 1.2306                 1.0899
 Frc consts  --      1.0313                 1.1742                 1.3395
 IR Inten    --      7.5573                27.7381                 4.3481

                     16                     17                     18
                      A                      A                      A
 Frequencies --   1510.9794              1836.1092              2854.2786
 Red. masses --      5.0533                11.8950                 1.0745
 Frc consts  --      6.7974                23.6272                 5.1575
 IR Inten    --    184.3181               386.0105               177.4098

                     19                     20                     21
                      A                      A                      A
 Frequencies --   2916.6069              2929.0083              3106.9949
 Red. masses --      1.0869                 1.0747                 1.0899
 Frc consts  --      5.4476                 5.4323                 6.1992
 IR Inten    --    294.2848               139.1234                17.5442

 - Thermochemistry -
 -------------------
 Temperature   298.150 Kelvin.  Pressure   1.00000 Atm.
 Atom     1 has atomic number  6 and mass  12.00000

 Molecular mass:    68.02621 amu.
 Principal axes and moments of inertia in atomic units:
                           1         2         3
     Eigenvalues --    99.49852 634.53064 679.07053
           X            0.99973   0.02302   0.00065
           Y           -0.02302   0.99971  -0.00714
           Z           -0.00081   0.00712   0.99997
 This molecule is an asymmetric top.
 Rotational symmetry number  1.
 Rotational temperatures (Kelvin)      0.87050     0.13650     0.12755
 Rotational constants (GHZ):          18.13837     2.84421     2.65766
 Zero-point vibrational energy     160613.0 (Joules/Mol)
                                   38.38742 (Kcal/Mol)
 Warning -- explicit consideration of   5 degrees of freedom as
           vibrations may cause significant error
 Vibrational temperatures:    128.89   163.07   401.82   627.85   685.73
          (Kelvin)            919.08  1150.77  1212.84  1321.69  1393.15
                             1530.87  1645.26  1741.41  1830.96  2078.00
                             2173.96  2641.75  4106.67  4196.34  4214.18
                             4470.27

 Zero-point correction=                           0.061174 (Hartree/Particle)
 Thermal correction to Energy=                    0.066903
 Thermal correction to Enthalpy=                  0.067847
 Thermal correction to Gibbs Free Energy=         0.031539
 Sum of electronic and zero-point Energies=           -229.959172
 Sum of electronic and thermal Energies=              -229.953443
 Sum of electronic and thermal Enthalpies=            -229.952499
 Sum of electronic and thermal Free Energies=         -229.988807

                     E (Thermal)             CV                S
                      KCal/Mol        Cal/Mol-Kelvin    Cal/Mol-Kelvin
 Total                   41.982             18.438             76.416
 Electronic               0.000              0.000              1.377
 Translational            0.889              2.981             38.570
 Rotational               0.889              2.981             25.264
 Vibrational             40.205             12.476             11.205
 Vibration     1          0.602              1.957              3.669
 Vibration     2          0.607              1.938              3.211
 Vibration     3          0.680              1.712              1.538
 Vibration     4          0.797              1.391              0.838
 Vibration     5          0.833              1.302              0.719

 Normal termination of Gaussian 09 at Thu Mar  7 14:26:32 2019.
