 Gaussian 09, Revision E.01,
 Gaussian 09:  EM64L-G09RevE.01 30-Nov-2015

 ------------------------------------------------------
 #p b3lyp/6-311++G(3df,2p) freq IOp(2/17=3) IOp(2/18=3)
 ------------------------------------------------------

 ---------
 b3lyp opt
 ---------
 Symbolic Z-matrix:
 Charge = -1 Multiplicity = 2

                         Standard orientation:
 ---------------------------------------------------------------------
 Center     Atomic      Atomic             Coordinates (Angstroms)
 Number     Number       Type             X           Y           Z
 ---------------------------------------------------------------------
      1          6           0        0.000000    1.093072    0.345434
      2          6           0       -0.000000   -1.093072    0.345434
      3          8           0        0.000000    0.000000    1.157510
      4          6           0        0.000000   -0.715472   -0.955135
      5          6           0        0.000000    0.715472   -0.955135
      6          1           0        0.000000    2.049283    0.839710
      7          1           0       -0.000000   -2.049283    0.839710
      8          1           0        0.000000   -1.370900   -1.811551
      9          1           0        0.000000    1.370900   -1.811551
 ---------------------------------------------------------------------

 SCF Done:  E(UB3LYP) =  -230.080963135     A.U. after   19 cycles

 The electronic state is 2-A1.
 Alpha  occ. eigenvalues --  -19.07131 -10.09684 -10.09680 -10.04815 -10.04775
 Alpha  occ. eigenvalues --   -0.99264  -0.68108  -0.62625  -0.47934  -0.44965
 Alpha  occ. eigenvalues --   -0.42328  -0.33463  -0.32585  -0.29150  -0.27930
 Alpha  occ. eigenvalues --   -0.25698  -0.16475  -0.11485   0.05770
 Alpha virt. eigenvalues --    0.07895   0.08849   0.10316   0.11477   0.14637
 Alpha virt. eigenvalues --    0.15793   0.16613   0.17618   0.18376   0.18945
 Alpha virt. eigenvalues --    0.19837   0.20181   0.20927   0.21697   0.21860

  Beta  occ. eigenvalues --  -19.07132 -10.09656 -10.09653 -10.04791 -10.04751
  Beta  occ. eigenvalues --   -0.99253  -0.68065  -0.62570  -0.47882  -0.44876
  Beta  occ. eigenvalues --   -0.42239  -0.33449  -0.32510  -0.29080  -0.27880
  Beta  occ. eigenvalues --   -0.25663  -0.16459  -0.11463
  Beta virt. eigenvalues --    0.08955   0.09857   0.10414   0.11467   0.11829
  Beta virt. eigenvalues --    0.14933   0.15909   0.16656   0.17831   0.18846
  Beta virt. eigenvalues --    0.18990   0.20193   0.20322   0.21205   0.21950

 Mulliken charges and spin densities:
               1          2
     1  C    1.025328  -1.006440
     2  C    1.025328  -1.006440
     3  O   -0.617392   0.032132
     4  C    0.711909  -0.813780
     5  C    0.711909  -0.813780
     6  H   -1.045682   1.241824
     7  H   -1.045682   1.241824
     8  H   -0.882859   1.062330
     9  H   -0.882859   1.062330
 Sum of Mulliken charges =  -1.00000   1.00000

 Dipole moment (field-independent basis, Debye):
    X=              0.0000    Y=              0.0000    Z=              2.3425  Tot=              2.3425
 Quadrupole moment (field-independent basis, Debye-Ang):
   XX=            -49.8457   YY=            -77.8433   ZZ=            -63.1306
   XY=             -0.0000   XZ=              0.0000   YZ=             -0.0000

  Exact polarizability: 214.054  -0.0003190.723   0.000  -0.0002282.559
 Approx polarizability: 195.229   0.0003646.388  -0.000  -0.0001555.655

                      1                      2                      3
                     B1                     A2                     A2
 Frequencies --    612.2271               612.3756               731.2490
 Red. masses --      3.4121                 2.7510                 1.3218
 Frc consts  --      0.7535                 0.6078                 0.4164
 IR Inten    --    145.2219                 0.0000                 0.0000

                      4                      5                      6
                     B1                     B2                     B1
 Frequencies --    774.7957               860.6948               865.3187
 Red. masses --      1.2246                 6.1673                 1.3167
 Frc consts  --      0.4331                 2.6918                 0.5809
 IR Inten    --   1248.3320                 1.3698                 5.3641

                      7                      8                      9
                     A1                     A2                     A1
 Frequencies --    880.8623               894.0783              1001.7298
 Red. masses --      4.8485                 1.3541                 1.4743
 Frc consts  --      2.2165                 0.6378                 0.8716
 IR Inten    --    501.7836                 0.0000               645.2257

                     10                     11                     12
                     B2                     A1                     A1
 Frequencies --   1049.8771              1077.2556              1160.0893
 Red. masses --      1.7189                 2.6646                 1.9115
 Frc consts  --      1.1163                 1.8219                 1.5157
 IR Inten    --      2.5579                 1.9584                 0.3171

                     13                     14                     15
                     B2                     B2                     A1
 Frequencies --   1188.5457              1285.9625              1408.2672
 Red. masses --      2.6247                 1.2383                 3.0006
 Frc consts  --      2.1845                 1.2066                 3.5062
 IR Inten    --    311.6588                16.7840               415.2512

                     16                     17                     18
                     A1                     B2                     B2
 Frequencies --   1505.6849              1586.0354              3200.7171
 Red. masses --      3.3233                 4.5330                 1.0891
 Frc consts  --      4.4390                 6.7183                 6.5738
 IR Inten    --     22.6132                 2.3086                11.8209

                     19                     20                     21
                     A1                     A1                     B2
 Frequencies --   3205.1716              3234.6297              3236.6389
 Red. masses --      1.0981                 1.1054                 1.0999
 Frc consts  --      6.6466                 6.8141                 6.7887
 IR Inten    --     50.9939                22.4191                 0.0873

 - Thermochemistry -
 -------------------
 Temperature   298.150 Kelvin.  Pressure   1.00000 Atm.
 Atom     1 has atomic number  6 and mass  12.00000

 Molecular mass:    68.02621 amu.
 Principal axes and moments of inertia in atomic units:
                           1         2         3
     Eigenvalues --   190.03046 193.44728 383.47775
           X            0.00000   0.00000   1.00000
           Y            0.00000   1.00000  -0.00000
           Z            1.00000  -0.00000   0.00000
 This molecule is an asymmetric top.
 Rotational symmetry number  2.
 Rotational temperatures (Kelvin)      0.45579     0.44774     0.22586
 Rotational constants (GHZ):           9.49712     9.32937     4.70625
 Zero-point vibrational energy     181666.1 (Joules/Mol)
                                   43.41925 (Kcal/Mol)
 Warning -- explicit consideration of   2 degrees of freedom as
           vibrations may cause significant error
 Vibrational temperatures:    880.86   881.07  1052.10  1114.76  1238.35
          (Kelvin)           1245.00  1267.36  1286.38  1441.26  1510.54
                             1549.93  1669.11  1710.05  1850.21  2026.18
                             2166.34  2281.95  4605.11  4611.52  4653.90
                             4656.80

 Zero-point correction=                           0.069193 (Hartree/Particle)
 Thermal correction to Energy=                    0.072915
 Thermal correction to Enthalpy=                  0.073859
 Thermal correction to Gibbs Free Energy=         0.042928
 Sum of electronic and zero-point Energies=           -230.011770
 Sum of electronic and thermal Energies=              -230.008048
 Sum of electronic and thermal Enthalpies=            -230.007104
 Sum of electronic and thermal Free Energies=         -230.038035

                     E (Thermal)             CV                S
                      KCal/Mol        Cal/Mol-Kelvin    Cal/Mol-Kelvin
 Total                   45.755             13.410             65.100
 Electronic               0.000              0.000              1.377
 Translational            0.889              2.981             38.570
 Rotational               0.889              2.981             22.782
 Vibrational             43.977              7.448              2.371
 Vibration     1          0.971              1.006              0.429
 Vibration     2          0.972              1.006              0.429

 Normal termination of Gaussian 09 at Thu Mar  7 12:55:15 2019.
