 Gaussian 09, Revision E.01,
 Gaussian 09:  EM64L-G09RevE.01 30-Nov-2015

 ------------------------------------------------------
 #p b3lyp/6-311++G(3df,2p) freq IOp(2/17=3) IOp(2/18=3)
 ------------------------------------------------------

 ---------
 b3lyp opt
 ---------
 Symbolic Z-matrix:
 Charge = -1 Multiplicity = 4

                         Standard orientation:
 ---------------------------------------------------------------------
 Center     Atomic      Atomic             Coordinates (Angstroms)
 Number     Number       Type             X           Y           Z
 ---------------------------------------------------------------------
      1          6           0        0.684155    0.140540   -0.014416
      2          1           0       -2.548844    0.926763    0.004827
      3          1           0        1.079315    0.004943    1.019189
      4          1           0        1.347456   -0.497047   -0.624233
      5          1           0        0.802817    1.202854   -0.267541
      6          8           0       -0.598209   -0.310094   -0.005718
 ---------------------------------------------------------------------

 SCF Done:  E(UB3LYP) =  -115.578397984     A.U. after   19 cycles

 The electronic state is 4-A.
 Alpha  occ. eigenvalues --  -19.04570 -10.08244  -0.90521  -0.53871  -0.35040
 Alpha  occ. eigenvalues --   -0.33122  -0.31810  -0.19989  -0.19081  -0.14987
 Alpha  occ. eigenvalues --    0.06382
 Alpha virt. eigenvalues --    0.11478   0.11529   0.13970   0.15774   0.19538
 Alpha virt. eigenvalues --    0.20477   0.22292   0.28317   0.28645   0.29651
 Alpha virt. eigenvalues --    0.31638   0.32562   0.35497   0.37827   0.44320

  Beta  occ. eigenvalues --  -19.02097 -10.08151  -0.85146  -0.51601  -0.32127
  Beta  occ. eigenvalues --   -0.29694  -0.29328  -0.14356
  Beta virt. eigenvalues --   -0.01882   0.02918   0.10792   0.13629   0.13950
  Beta virt. eigenvalues --    0.16508   0.16585   0.20237   0.21112   0.23083
  Beta virt. eigenvalues --    0.28916   0.29307   0.30327   0.33333   0.33855

 Mulliken charges and spin densities:
               1          2
     1  C    3.531552  -3.552609
     2  H   -0.069688   1.008183
     3  H   -1.498025   1.782715
     4  H   -1.315752   1.510847
     5  H   -1.026551   1.167920
     6  O   -0.621536   1.082943
 Sum of Mulliken charges =  -1.00000   3.00000

 Dipole moment (field-independent basis, Debye):
    X=             -6.2767    Y=             -0.9733    Z=             -0.8331  Tot=              6.4062
 Quadrupole moment (field-independent basis, Debye-Ang):
   XX=            -48.5030   YY=            -38.4964   ZZ=            -38.9108
   XY=              1.0088   XZ=             -1.0296   YZ=             -0.2298

  Exact polarizability: 263.743-138.906 753.896 -42.055  -6.474 775.570
 Approx polarizability: 213.968-117.458 579.502 -34.162   0.712 663.363

                      1                      2                      3
                      A                      A                      A
 Frequencies --     80.3687               108.7472               257.4776
 Red. masses --      1.1511                 1.1603                 1.0963
 Frc consts  --      0.0044                 0.0081                 0.0428
 IR Inten    --     86.1104                54.6150                37.2444

                      4                      5                      6
                      A                      A                      A
 Frequencies --    766.7627              1000.4971              1113.3499
 Red. masses --      1.3750                 2.2130                 2.2015
 Frc consts  --      0.4763                 1.3052                 1.6078
 IR Inten    --    720.3296               225.0440                83.9542

                      7                      8                      9
                      A                      A                      A
 Frequencies --   1305.1068              1343.6429              1488.6133
 Red. masses --      1.0815                 1.0470                 1.1072
 Frc consts  --      1.0853                 1.1137                 1.4455
 IR Inten    --    586.8067               741.5540               603.4443

                     10                     11                     12
                      A                      A                      A
 Frequencies --   2776.4049              2878.7728              2974.8723
 Red. masses --      1.0520                 1.0616                 1.0989
 Frc consts  --      4.7780                 5.1835                 5.7297
 IR Inten    --    132.8884                 8.1403                26.7842

 - Thermochemistry -
 -------------------
 Temperature   298.150 Kelvin.  Pressure   1.00000 Atm.
 Atom     1 has atomic number  6 and mass  12.00000

 Molecular mass:    32.02621 amu.
 Principal axes and moments of inertia in atomic units:
                           1         2         3
     Eigenvalues --    19.81538  83.10783  92.10879
           X            0.99346  -0.11414   0.00167
           Y            0.11414   0.99346   0.00047
           Z           -0.00171  -0.00028   1.00000
 This molecule is an asymmetric top.
 Rotational symmetry number  1.
 Rotational temperatures (Kelvin)      4.37104     1.04219     0.94034
 Rotational constants (GHZ):          91.07780    21.71566    19.59358
 Zero-point vibrational energy      96267.2 (Joules/Mol)
                                   23.00841 (Kcal/Mol)
 Warning -- explicit consideration of   3 degrees of freedom as
           vibrations may cause significant error
 Vibrational temperatures:    115.63   156.46   370.45  1103.20  1439.49
          (Kelvin)           1601.86  1877.76  1933.20  2141.78  3994.62
                             4141.91  4280.17

 Zero-point correction=                           0.036666 (Hartree/Particle)
 Thermal correction to Energy=                    0.041640
 Thermal correction to Enthalpy=                  0.042584
 Thermal correction to Gibbs Free Energy=         0.010258
 Sum of electronic and zero-point Energies=           -115.541732
 Sum of electronic and thermal Energies=              -115.536758
 Sum of electronic and thermal Enthalpies=            -115.535814
 Sum of electronic and thermal Free Energies=         -115.568140

                     E (Thermal)             CV                S
                      KCal/Mol        Cal/Mol-Kelvin    Cal/Mol-Kelvin
 Total                   26.130             13.322             68.037
 Electronic               0.000              0.000              2.755
 Translational            0.889              2.981             36.324
 Rotational               0.889              2.981             19.656
 Vibrational             24.352              7.360              9.302
 Vibration     1          0.600              1.962              3.882
 Vibration     2          0.606              1.942              3.291
 Vibration     3          0.667              1.750              1.679

 Normal termination of Gaussian 09 at Fri Mar  8 03:40:18 2019.
