 Gaussian 09, Revision E.01,
 Gaussian 09:  EM64L-G09RevE.01 30-Nov-2015

 -------------------------------------------------
 #p b3lyp/6-311++G(3df,2p) opt freq symmetry=Loose
 -------------------------------------------------

 ---------
 b3lyp opt
 ---------
 Symbolic Z-matrix:
 Charge = -1 Multiplicity = 1

 SCF Done:  E(RB3LYP) =  -38.5004074035     A.U. after   11 cycles
 SCF Done:  E(RB3LYP) =  -38.5004357553     A.U. after    8 cycles
 SCF Done:  E(RB3LYP) =  -38.5004365411     A.U. after    7 cycles
 Optimization completed.
    -- Stationary point found.
 Normal termination of Gaussian 09 at Wed Jan 23 21:58:52 2019.

 ----------------------------------------------------------------------
 #P Geom=AllCheck Guess=TCheck SCRF=Check GenChk RB3LYP/6-311++G(3df,2p
 ) Freq
 ----------------------------------------------------------------------

 Structure from the checkpoint file:  "/scratch/sergio/HC.q-1.m1-1.com-4919746/Gau-7228.chk"
 ---------
 b3lyp opt
 ---------
 Charge = -1 Multiplicity = 1

                         Standard orientation:
 ---------------------------------------------------------------------
 Center     Atomic      Atomic             Coordinates (Angstroms)
 Number     Number       Type             X           Y           Z
 ---------------------------------------------------------------------
      1          6           0        0.000000    0.000000    0.161521
      2          1           0        0.000000    0.000000   -0.969124
 ---------------------------------------------------------------------

 SCF Done:  E(RB3LYP) =  -38.5004365411     A.U. after    1 cycles

 Unable to determine electronic state:  an orbital has unidentified symmetry.
 Alpha  occ. eigenvalues --   -9.96068  -0.33666  -0.03720   0.07295
 Alpha virt. eigenvalues --    0.12310   0.14512   0.23231   0.24434   0.25065
 Alpha virt. eigenvalues --    0.27786   0.35187   0.54847   0.55965   0.57271
 Alpha virt. eigenvalues --    0.57640   0.59819   0.78688   0.79015   0.79516

 Mulliken charges:
               1
     1  C   -1.062354
     2  H    0.062354
 Sum of Mulliken charges =  -1.00000

 Dipole moment (field-independent basis, Debye):
    X=              0.0000    Y=              0.0000    Z=             -1.7251  Tot=              1.7251
 Quadrupole moment (field-independent basis, Debye-Ang):
   XX=            -10.3727   YY=            -19.9282   ZZ=            -13.8556
   XY=              0.0000   XZ=              0.0000   YZ=              0.0000

  Exact polarizability:  18.797   0.000 115.400  -0.000  -0.000  35.264
 Approx polarizability:  27.715  -0.000  94.819  -0.000  -0.000  40.526

                      1
                     SG
 Frequencies --   2690.9228
 Red. masses --      1.0848
 Frc consts  --      4.6282
 IR Inten    --    505.7570

 - Thermochemistry -
 -------------------
 Temperature   298.150 Kelvin.  Pressure   1.00000 Atm.
 Atom     1 has atomic number  6 and mass  12.00000

 Molecular mass:    13.00783 amu.
 Principal axes and moments of inertia in atomic units:
                           1         2         3
     Eigenvalues --     0.00000   4.24436   4.24436
           X            0.00000  -0.00000   1.00000
           Y            0.00000   1.00000   0.00000
           Z            1.00000   0.00000   0.00000
 This molecule is a prolate symmetric top.
 Rotational symmetry number  1.
 Rotational temperature (Kelvin)     20.40681
 Rotational constant (GHZ):         425.209411
 Zero-point vibrational energy      16095.3 (Joules/Mol)
                                    3.84687 (Kcal/Mol)
 Vibrational temperatures:   3871.63
          (Kelvin)

 Zero-point correction=                           0.006130 (Hartree/Particle)
 Thermal correction to Energy=                    0.008491
 Thermal correction to Enthalpy=                  0.009435
 Thermal correction to Gibbs Free Energy=        -0.010024
 Sum of electronic and zero-point Energies=            -38.494306
 Sum of electronic and thermal Energies=               -38.491946
 Sum of electronic and thermal Enthalpies=             -38.491001
 Sum of electronic and thermal Free Energies=          -38.510460

                     E (Thermal)             CV                S
                      KCal/Mol        Cal/Mol-Kelvin    Cal/Mol-Kelvin
 Total                    5.328              4.969             40.955
 Electronic               0.000              0.000              0.000
 Translational            0.889              2.981             33.638
 Rotational               0.592              1.987              7.316
 Vibrational              3.847              0.001              0.000

 Optimization completed.
    -- Stationary point found.
 Normal termination of Gaussian 09 at Wed Jan 23 21:59:00 2019.
