 Gaussian 09, Revision E.01,
 Gaussian 09:  EM64L-G09RevE.01 30-Nov-2015

 -------------------------------------------------
 #p b3lyp/6-311++G(3df,2p) opt freq symmetry=Loose
 -------------------------------------------------

 ---------
 b3lyp opt
 ---------
 Symbolic Z-matrix:
 Charge = -1 Multiplicity = 3

 SCF Done:  E(UB3LYP) =  -38.5449879362     A.U. after   12 cycles
 SCF Done:  E(UB3LYP) =  -38.5450715778     A.U. after    9 cycles
 SCF Done:  E(UB3LYP) =  -38.5450749812     A.U. after    8 cycles
 Optimization completed.
    -- Stationary point found.
 Normal termination of Gaussian 09 at Wed Jan 23 21:59:53 2019.

 ----------------------------------------------------------------------
 #P Geom=AllCheck Guess=TCheck SCRF=Check GenChk UB3LYP/6-311++G(3df,2p
 ) Freq
 ----------------------------------------------------------------------

 Structure from the checkpoint file:  "/scratch/sergio/HC.q-1.m3-1.com-4919747/Gau-7352.chk"
 ---------
 b3lyp opt
 ---------
 Charge = -1 Multiplicity = 3

                         Standard orientation:
 ---------------------------------------------------------------------
 Center     Atomic      Atomic             Coordinates (Angstroms)
 Number     Number       Type             X           Y           Z
 ---------------------------------------------------------------------
      1          6           0        0.000000    0.000000    0.162395
      2          1           0        0.000000    0.000000   -0.974372
 ---------------------------------------------------------------------

 SCF Done:  E(UB3LYP) =  -38.5450749812     A.U. after    1 cycles

 The electronic state is 3-SG.
 Alpha  occ. eigenvalues --   -9.93071  -0.34503  -0.03152   0.04630   0.04630
 Alpha virt. eigenvalues --    0.14733   0.23521   0.23967   0.23967   0.27651
 Alpha virt. eigenvalues --    0.35749   0.55516   0.55516   0.56653   0.56653
 Alpha virt. eigenvalues --    0.60048   0.77797   0.77797   0.79924   0.84647

  Beta  occ. eigenvalues --   -9.90817  -0.27685   0.00249
  Beta virt. eigenvalues --    0.14810   0.17121   0.17121   0.23824   0.28772
  Beta virt. eigenvalues --    0.28772   0.29098   0.36674   0.57436   0.57436
  Beta virt. eigenvalues --    0.60564   0.60565   0.61560   0.81374   0.84197

 Mulliken charges and spin densities:
               1          2
     1  C   -1.038180   2.038045
     2  H    0.038180  -0.038045
 Sum of Mulliken charges =  -1.00000   2.00000

 Dipole moment (field-independent basis, Debye):
    X=              0.0000    Y=              0.0000    Z=             -1.6739  Tot=              1.6739
 Quadrupole moment (field-independent basis, Debye-Ang):
   XX=            -13.4497   YY=            -13.4497   ZZ=            -13.7125
   XY=              0.0000   XZ=              0.0000   YZ=              0.0000

  Exact polarizability:  45.736  -0.000  45.736  -0.000  -0.000  43.064
 Approx polarizability:  42.366  -0.000  42.366  -0.000  -0.000  46.896

                      1
                     SG
 Frequencies --   2607.8386
 Red. masses --      1.0848
 Frc consts  --      4.3468
 IR Inten    --    756.9755

 - Thermochemistry -
 -------------------
 Temperature   298.150 Kelvin.  Pressure   1.00000 Atm.
 Atom     1 has atomic number  6 and mass  12.00000

 Molecular mass:    13.00783 amu.
 Principal axes and moments of inertia in atomic units:
                           1         2         3
     Eigenvalues --     0.00000   4.29045   4.29045
           X            0.00000  -0.00000   1.00000
           Y            0.00000   1.00000   0.00000
           Z            1.00000   0.00000   0.00000
 This molecule is a prolate symmetric top.
 Rotational symmetry number  1.
 Rotational temperature (Kelvin)     20.18758
 Rotational constant (GHZ):         420.641408
 Zero-point vibrational energy      15598.3 (Joules/Mol)
                                    3.72809 (Kcal/Mol)
 Vibrational temperatures:   3752.09
          (Kelvin)

 Zero-point correction=                           0.005941 (Hartree/Particle)
 Thermal correction to Energy=                    0.008302
 Thermal correction to Enthalpy=                  0.009246
 Thermal correction to Gibbs Free Energy=        -0.011261
 Sum of electronic and zero-point Energies=            -38.539134
 Sum of electronic and thermal Energies=               -38.536773
 Sum of electronic and thermal Enthalpies=             -38.535829
 Sum of electronic and thermal Free Energies=          -38.556336

                     E (Thermal)             CV                S
                      KCal/Mol        Cal/Mol-Kelvin    Cal/Mol-Kelvin
 Total                    5.209              4.969             43.159
 Electronic               0.000              0.000              2.183
 Translational            0.889              2.981             33.638
 Rotational               0.592              1.987              7.338
 Vibrational              3.728              0.001              0.000

 Optimization completed.
    -- Stationary point found.
 Normal termination of Gaussian 09 at Wed Jan 23 22:00:03 2019.
