 Gaussian 09, Revision E.01,
 Gaussian 09:  EM64L-G09RevE.01 30-Nov-2015

 -------------------------------------------------
 #p b3lyp/6-311++G(3df,2p) opt freq symmetry=Loose
 -------------------------------------------------

 ---------
 b3lyp opt
 ---------
 Symbolic Z-matrix:
 Charge = -1 Multiplicity = 1

 SCF Done:  E(RB3LYP) =  -76.7135052754     A.U. after   10 cycles
 SCF Done:  E(RB3LYP) =  -76.7136435602     A.U. after    8 cycles
 SCF Done:  E(RB3LYP) =  -76.7136548965     A.U. after    7 cycles
 SCF Done:  E(RB3LYP) =  -76.7136552887     A.U. after    7 cycles
 Optimization completed.
    -- Stationary point found.
 Normal termination of Gaussian 09 at Fri Jan 25 14:34:46 2019.

 ----------------------------------------------------------------------
 #P Geom=AllCheck Guess=TCheck SCRF=Check GenChk RB3LYP/6-311++G(3df,2p
 ) Freq
 ----------------------------------------------------------------------

 Structure from the checkpoint file:  "/scratch/sergio/HC2.q-1.m1-2.com-4921601/Gau-1685.chk"
 ---------
 b3lyp opt
 ---------
 Charge = -1 Multiplicity = 1

                         Standard orientation:
 ---------------------------------------------------------------------
 Center     Atomic      Atomic             Coordinates (Angstroms)
 Number     Number       Type             X           Y           Z
 ---------------------------------------------------------------------
      1          1           0        0.000000    0.000000    1.005323
      2          6           0        0.000000    0.636314   -0.083777
      3          6           0       -0.000000   -0.636314   -0.083777
 ---------------------------------------------------------------------

 SCF Done:  E(RB3LYP) =  -76.7136552887     A.U. after    1 cycles

 The electronic state is 1-A1.
 Alpha  occ. eigenvalues --   -9.93172  -9.93043  -0.55904  -0.16308  -0.11920
 Alpha  occ. eigenvalues --   -0.04695  -0.02380
 Alpha virt. eigenvalues --    0.15181   0.19455   0.20950   0.20966   0.21925
 Alpha virt. eigenvalues --    0.22326   0.23643   0.29248   0.30431   0.30924
 Alpha virt. eigenvalues --    0.32527   0.32592   0.49458   0.53551   0.58365

 Mulliken charges:
               1
     1  H   -0.021344
     2  C   -0.489328
     3  C   -0.489328
 Sum of Mulliken charges =  -1.00000

 Dipole moment (field-independent basis, Debye):
    X=              0.0000    Y=              0.0000    Z=              0.8386  Tot=              0.8386
 Quadrupole moment (field-independent basis, Debye-Ang):
   XX=            -18.5489   YY=            -24.5483   ZZ=            -16.0348
   XY=             -0.0000   XZ=             -0.0000   YZ=             -0.0000

  Exact polarizability:  36.969   0.000  54.341  -0.000  -0.000  38.634
 Approx polarizability:  44.753  -0.000  68.431   0.000  -0.000  52.029

                      1                      2                      3
                     B2                     A1                     A1
 Frequencies --    636.9138              1790.7004              2348.7771
 Red. masses --      1.1581                11.1271                 1.0537
 Frc consts  --      0.2768                21.0222                 3.4248
 IR Inten    --      2.4286                18.5706                35.0621

 - Thermochemistry -
 -------------------
 Temperature   298.150 Kelvin.  Pressure   1.00000 Atm.
 Atom     1 has atomic number  1 and mass   1.00783

 Molecular mass:    25.00783 amu.
 Principal axes and moments of inertia in atomic units:
                           1         2         3
     Eigenvalues --     4.09689  34.70176  38.79864
           X            0.00000   0.00000   1.00000
           Y            1.00000   0.00000   0.00000
           Z            0.00000   1.00000   0.00000
 This molecule is an asymmetric top.
 Rotational symmetry number  2.
 Rotational temperatures (Kelvin)     21.14138     2.49595     2.23239
 Rotational constants (GHZ):         440.51538    52.00720    46.51557
 Zero-point vibrational energy      28569.2 (Joules/Mol)
                                    6.82819 (Kcal/Mol)
 Vibrational temperatures:    916.38  2576.42  3379.36
          (Kelvin)

 Zero-point correction=                           0.010881 (Hartree/Particle)
 Thermal correction to Energy=                    0.013856
 Thermal correction to Enthalpy=                  0.014800
 Thermal correction to Gibbs Free Energy=        -0.009415
 Sum of electronic and zero-point Energies=            -76.702774
 Sum of electronic and thermal Energies=               -76.699799
 Sum of electronic and thermal Enthalpies=             -76.698855
 Sum of electronic and thermal Free Energies=          -76.723071

                     E (Thermal)             CV                S
                      KCal/Mol        Cal/Mol-Kelvin    Cal/Mol-Kelvin
 Total                    8.695              6.946             50.967
 Electronic               0.000              0.000              0.000
 Translational            0.889              2.981             35.587
 Rotational               0.889              2.981             14.986
 Vibrational              6.917              0.984              0.394

 Optimization completed.
    -- Stationary point found.
 Normal termination of Gaussian 09 at Fri Jan 25 14:35:09 2019.
