 Gaussian 09, Revision E.01,
 Gaussian 09:  EM64L-G09RevE.01 30-Nov-2015

 -------------------------------------------------
 #p b3lyp/6-311++G(3df,2p) opt freq symmetry=Loose
 -------------------------------------------------

 ---------
 b3lyp opt
 ---------
 Symbolic Z-matrix:
 Charge = -1 Multiplicity = 3

 SCF Done:  E(UB3LYP) =  -76.6061429236     A.U. after   19 cycles
 SCF Done:  E(UB3LYP) =  -76.6129458386     A.U. after   18 cycles
 SCF Done:  E(UB3LYP) =  -76.6133824932     A.U. after   18 cycles
 SCF Done:  E(UB3LYP) =  -76.6134344675     A.U. after   18 cycles
 SCF Done:  E(UB3LYP) =  -76.6134380671     A.U. after   17 cycles
 Optimization completed.
    -- Stationary point found.
 Normal termination of Gaussian 09 at Fri Jan 25 14:37:24 2019.

 ----------------------------------------------------------------------
 #P Geom=AllCheck Guess=TCheck SCRF=Check GenChk UB3LYP/6-311++G(3df,2p
 ) Freq
 ----------------------------------------------------------------------

 Structure from the checkpoint file:  "/scratch/sergio/HC2.q-1.m3-3.com-4921606/Gau-2479.chk"
 ---------
 b3lyp opt
 ---------
 Charge = -1 Multiplicity = 3

                         Standard orientation:
 ---------------------------------------------------------------------
 Center     Atomic      Atomic             Coordinates (Angstroms)
 Number     Number       Type             X           Y           Z
 ---------------------------------------------------------------------
      1          1           0        0.899747   -1.167627    0.000000
      2          6           0       -0.074979   -0.574109    0.000000
      3          6           0       -0.074979    0.768714    0.000000
 ---------------------------------------------------------------------

 SCF Done:  E(UB3LYP) =  -76.6134380671     A.U. after    1 cycles

 The electronic state is 3-A'.
 Alpha  occ. eigenvalues --   -9.96909  -9.95852  -0.51435  -0.27784  -0.10664
 Alpha  occ. eigenvalues --   -0.08136  -0.04856   0.08607
 Alpha virt. eigenvalues --    0.13367   0.19292   0.19935   0.21014   0.22246
 Alpha virt. eigenvalues --    0.24325   0.24843   0.28190   0.29283   0.29905
 Alpha virt. eigenvalues --    0.34618   0.50038   0.53317   0.55402   0.58877

  Beta  occ. eigenvalues --   -9.95902  -9.94248  -0.47153  -0.24077  -0.04863
  Beta  occ. eigenvalues --   -0.03432
  Beta virt. eigenvalues --    0.06275   0.13967   0.19322   0.19781   0.20684
  Beta virt. eigenvalues --    0.22240   0.22524   0.24283   0.27614   0.29117
  Beta virt. eigenvalues --    0.30338   0.30545   0.36866   0.51022   0.54905

 Mulliken charges and spin densities:
               1          2
     1  H   -0.062433   0.195938
     2  C   -0.328129   0.618528
     3  C   -0.609438   1.185534
 Sum of Mulliken charges =  -1.00000   2.00000

 Dipole moment (field-independent basis, Debye):
    X=             -0.4585    Y=             -1.1266    Z=              0.0000  Tot=              1.2164
 Quadrupole moment (field-independent basis, Debye-Ang):
   XX=            -20.2522   YY=            -23.9406   ZZ=            -18.6026
   XY=              0.1453   XZ=              0.0000   YZ=              0.0000

  Exact polarizability: 188.647-124.594 192.577   0.000   0.000  52.690
 Approx polarizability:  98.187 -45.793 149.262  -0.000  -0.000  46.511

                      1                      2                      3
                     A'                     A'                     A'
 Frequencies --    832.0715              1257.9793              2288.1082
 Red. masses --      1.2239                11.1928                 1.0797
 Frc consts  --      0.4993                10.4361                 3.3304
 IR Inten    --    953.0275              6224.0602              8943.8453

 - Thermochemistry -
 -------------------
 Temperature   298.150 Kelvin.  Pressure   1.00000 Atm.
 Atom     1 has atomic number  1 and mass   1.00783

 Molecular mass:    25.00783 amu.
 Principal axes and moments of inertia in atomic units:
                           1         2         3
     Eigenvalues --     2.84267  44.60094  47.44361
           X           -0.10252   0.99473   0.00000
           Y            0.99473   0.10252   0.00000
           Z           -0.00000   0.00000   1.00000
 This molecule is an asymmetric top.
 Rotational symmetry number  1.
 Rotational temperatures (Kelvin)     30.46918     1.94197     1.82562
 Rotational constants (GHZ):         634.87544    40.46419    38.03971
 Zero-point vibrational energy      26187.2 (Joules/Mol)
                                    6.25889 (Kcal/Mol)
 Vibrational temperatures:   1197.16  1809.95  3292.07
          (Kelvin)

 Zero-point correction=                           0.009974 (Hartree/Particle)
 Thermal correction to Energy=                    0.012890
 Thermal correction to Enthalpy=                  0.013834
 Thermal correction to Gibbs Free Energy=        -0.012030
 Sum of electronic and zero-point Energies=            -76.603464
 Sum of electronic and thermal Energies=               -76.600548
 Sum of electronic and thermal Enthalpies=             -76.599604
 Sum of electronic and thermal Free Energies=          -76.625468

                     E (Thermal)             CV                S
                      KCal/Mol        Cal/Mol-Kelvin    Cal/Mol-Kelvin
 Total                    8.088              6.735             54.435
 Electronic               0.000              0.000              2.183
 Translational            0.889              2.981             35.587
 Rotational               0.889              2.981             16.449
 Vibrational              6.311              0.773              0.216

 Optimization completed.
    -- Stationary point found.
 Normal termination of Gaussian 09 at Fri Jan 25 14:38:04 2019.
