 Gaussian 09, Revision E.01,
 Gaussian 09:  EM64L-G09RevE.01 30-Nov-2015

 ------------------------------------------------------
 #p b3lyp/6-311++G(3df,2p) freq IOp(2/17=3) IOp(2/18=3)
 ------------------------------------------------------

 ---------
 b3lyp opt
 ---------
 Symbolic Z-matrix:
 Charge = -1 Multiplicity = 1

                         Standard orientation:
 ---------------------------------------------------------------------
 Center     Atomic      Atomic             Coordinates (Angstroms)
 Number     Number       Type             X           Y           Z
 ---------------------------------------------------------------------
      1          1           0        0.000000    0.000000   -1.557164
      2          6           0       -0.000000   -0.000000    0.749141
      3          6           0        0.000000    0.000000   -0.489613
 ---------------------------------------------------------------------

 SCF Done:  E(RB3LYP) =  -76.7502549597     A.U. after   13 cycles

 The electronic state is 1-SG.
 Alpha  occ. eigenvalues --   -9.90734  -9.90565  -0.47898  -0.29818  -0.02958
 Alpha  occ. eigenvalues --   -0.02958  -0.02819
 Alpha virt. eigenvalues --    0.12575   0.20227   0.21330   0.21330   0.23117
 Alpha virt. eigenvalues --    0.23117   0.24110   0.26383   0.31101   0.33374
 Alpha virt. eigenvalues --    0.33374   0.40626   0.53071   0.53071   0.54486

 Mulliken charges:
               1
     1  H    0.125024
     2  C   -0.762237
     3  C   -0.362787
 Sum of Mulliken charges =  -1.00000

 Dipole moment (field-independent basis, Debye):
    X=              0.0000    Y=              0.0000    Z=             -3.4401  Tot=              3.4401
 Quadrupole moment (field-independent basis, Debye-Ang):
   XX=            -18.0640   YY=            -18.0640   ZZ=            -20.2072
   XY=              0.0000   XZ=              0.0000   YZ=              0.0000

  Exact polarizability:  36.418   0.000  36.418   0.000  -0.000  56.042
 Approx polarizability:  44.920   0.000  44.920   0.000  -0.000  80.763

                      1                      2                      3
                     PI                     PI                     SG
 Frequencies --    543.7969               543.7969              1888.1736
 Red. masses --      1.3248                 1.3248                 6.1093
 Frc consts  --      0.2308                 0.2308                12.8329
 IR Inten    --    102.0417               102.0417                75.7599

                      4
                     SG
 Frequencies --   3368.3052
 Red. masses --      1.1425
 Frc consts  --      7.6373
 IR Inten    --      0.1587

 - Thermochemistry -
 -------------------
 Temperature   298.150 Kelvin.  Pressure   1.00000 Atm.
 Atom     1 has atomic number  1 and mass   1.00783

 Molecular mass:    25.00783 amu.
 Principal axes and moments of inertia in atomic units:
                           1         2         3
     Eigenvalues --     0.00000  42.70810  42.70810
           X           -0.00000   1.00000   0.00003
           Y           -0.00000  -0.00003   1.00000
           Z            1.00000   0.00000   0.00000
 This molecule is a prolate symmetric top.
 Rotational symmetry number  1.
 Rotational temperature (Kelvin)      2.02804
 Rotational constant (GHZ):          42.257585
 Zero-point vibrational energy      37946.0 (Joules/Mol)
                                    9.06931 (Kcal/Mol)
 Warning -- explicit consideration of   2 degrees of freedom as
           vibrations may cause significant error
 Vibrational temperatures:    782.40   782.40  2716.66  4846.23
          (Kelvin)

 Zero-point correction=                           0.014453 (Hartree/Particle)
 Thermal correction to Energy=                    0.017202
 Thermal correction to Enthalpy=                  0.018146
 Thermal correction to Gibbs Free Energy=        -0.004949
 Sum of electronic and zero-point Energies=            -76.735802
 Sum of electronic and thermal Energies=               -76.733053
 Sum of electronic and thermal Enthalpies=             -76.732109
 Sum of electronic and thermal Free Energies=          -76.755204

                     E (Thermal)             CV                S
                      KCal/Mol        Cal/Mol-Kelvin    Cal/Mol-Kelvin
 Total                   10.794              7.293             48.608
 Electronic               0.000              0.000              0.000
 Translational            0.889              2.981             35.587
 Rotational               0.592              1.987             11.904
 Vibrational              9.313              2.325              1.117
 Vibration     1          0.899              1.153              0.557
 Vibration     2          0.899              1.153              0.557

 Optimization completed.
    -- Stationary point found.
 Normal termination of Gaussian 09 at Mon Mar 11 18:59:02 2019.
