 Gaussian 09, Revision E.01,
 Gaussian 09:  EM64L-G09RevE.01 30-Nov-2015

 -------------------------------------------------
 #p b3lyp/6-311++G(3df,2p) opt freq symmetry=Loose
 -------------------------------------------------

 ---------
 b3lyp opt
 ---------
 Symbolic Z-matrix:
 Charge = -1 Multiplicity = 3

 SCF Done:  E(UB3LYP) =  -76.6052254607     A.U. after   21 cycles
 SCF Done:  E(UB3LYP) =  -76.6052306660     A.U. after   19 cycles
 Optimization completed.
    -- Stationary point found.
 Normal termination of Gaussian 09 at Fri Jan 25 14:35:46 2019.

 ----------------------------------------------------------------------
 #P Geom=AllCheck Guess=TCheck SCRF=Check GenChk UB3LYP/6-311++G(3df,2p
 ) Freq
 ----------------------------------------------------------------------

 Structure from the checkpoint file:  "/scratch/sergio/HC2.q-1.m3-1.com-4921604/Gau-2148.chk"
 ---------
 b3lyp opt
 ---------
 Charge = -1 Multiplicity = 3

                         Standard orientation:
 ---------------------------------------------------------------------
 Center     Atomic      Atomic             Coordinates (Angstroms)
 Number     Number       Type             X           Y           Z
 ---------------------------------------------------------------------
      1          1           0        0.000000    0.000000   -1.535790
      2          6           0        0.000000    0.000000   -0.472542
      3          6           0        0.000000    0.000000    0.728506
 ---------------------------------------------------------------------

 SCF Done:  E(UB3LYP) =  -76.6052306659     A.U. after    1 cycles

 The electronic state is 3-SG.
 Alpha  occ. eigenvalues --  -10.10540 -10.06413  -0.64735  -0.41841  -0.27825
 Alpha  occ. eigenvalues --   -0.18803  -0.18803   0.07255
 Alpha virt. eigenvalues --    0.12452   0.13199   0.13199   0.16832   0.16832
 Alpha virt. eigenvalues --    0.18108   0.22902   0.23288   0.23288   0.25634
 Alpha virt. eigenvalues --    0.34808   0.43214   0.43214   0.46340   0.52835

  Beta  occ. eigenvalues --  -10.08442 -10.06286  -0.62631  -0.40585  -0.17390
  Beta  occ. eigenvalues --   -0.17390
  Beta virt. eigenvalues --   -0.07472   0.12025   0.14514   0.14514   0.14523
  Beta virt. eigenvalues --    0.17200   0.17200   0.18977   0.24201   0.24610
  Beta virt. eigenvalues --    0.24610   0.26649   0.35942   0.43300   0.43300

 Mulliken charges and spin densities:
               1          2
     1  H   -5.365229   5.711661
     2  C   -3.962968   3.708283
     3  C    8.328198  -7.419944
 Sum of Mulliken charges =  -1.00000   2.00000

 Dipole moment (field-independent basis, Debye):
    X=              0.0000    Y=              0.0000    Z=             10.6086  Tot=             10.6086
 Quadrupole moment (field-independent basis, Debye-Ang):
   XX=            -32.3707   YY=            -32.3707   ZZ=            -61.0306
   XY=              0.0000   XZ=              0.0000   YZ=              0.0000

  Exact polarizability: 232.712   0.000 232.712   0.000   0.000 541.552
 Approx polarizability: 175.012  -0.000 175.012  -0.000  -0.000 444.754

                      1                      2                      3
                     PI                     PI                     SG
 Frequencies --    667.9259               667.9263              2071.1045
 Red. masses --      1.3342                 1.3342                 5.4421
 Frc consts  --      0.3507                 0.3507                13.7536
 IR Inten    --   8017.5374              8017.5372                57.7410

                      4
                     SG
 Frequencies --   3403.8076
 Red. masses --      1.1693
 Frc consts  --      7.9821
 IR Inten    --   1692.1361

 - Thermochemistry -
 -------------------
 Temperature   298.150 Kelvin.  Pressure   1.00000 Atm.
 Atom     1 has atomic number  1 and mass   1.00783

 Molecular mass:    25.00783 amu.
 Principal axes and moments of inertia in atomic units:
                           1         2         3
     Eigenvalues --     0.00000  40.46898  40.46898
           X            0.00000  -0.00000   1.00000
           Y            0.00000   1.00000   0.00000
           Z            1.00000   0.00000   0.00000
 This molecule is a prolate symmetric top.
 Rotational symmetry number  1.
 Rotational temperature (Kelvin)      2.14025
 Rotational constant (GHZ):          44.595673
 Zero-point vibrational energy      40737.4 (Joules/Mol)
                                    9.73648 (Kcal/Mol)
 Vibrational temperatures:    961.00   961.00  2979.85  4897.31
          (Kelvin)

 Zero-point correction=                           0.015516 (Hartree/Particle)
 Thermal correction to Energy=                    0.018129
 Thermal correction to Enthalpy=                  0.019074
 Thermal correction to Gibbs Free Energy=        -0.004807
 Sum of electronic and zero-point Energies=            -76.589715
 Sum of electronic and thermal Energies=               -76.587101
 Sum of electronic and thermal Enthalpies=             -76.586157
 Sum of electronic and thermal Free Energies=          -76.610038

                     E (Thermal)             CV                S
                      KCal/Mol        Cal/Mol-Kelvin    Cal/Mol-Kelvin
 Total                   11.376              6.761             50.261
 Electronic               0.000              0.000              2.183
 Translational            0.889              2.981             35.587
 Rotational               0.592              1.987             11.797
 Vibrational              9.895              1.793              0.694

 Optimization completed.
    -- Stationary point found.
 Normal termination of Gaussian 09 at Fri Jan 25 14:36:21 2019.
