 Gaussian 09, Revision E.01,
 Gaussian 09:  EM64L-G09RevE.01 30-Nov-2015

 -------------------------------------------------
 #p b3lyp/6-311++G(3df,2p) opt freq symmetry=Loose
 -------------------------------------------------

 ---------
 b3lyp opt
 ---------
 Symbolic Z-matrix:
 Charge = -1 Multiplicity = 1

 SCF Done:  E(RB3LYP) =  -76.7476551028     A.U. after   14 cycles
 SCF Done:  E(RB3LYP) =  -76.7502385859     A.U. after   10 cycles
 SCF Done:  E(RB3LYP) =  -76.7502549554     A.U. after    9 cycles
 Optimization completed.
    -- Stationary point found.
 Normal termination of Gaussian 09 at Fri Jan 25 14:34:48 2019.

 ----------------------------------------------------------------------
 #P Geom=AllCheck Guess=TCheck SCRF=Check GenChk RB3LYP/6-311++G(3df,2p
 ) Freq
 ----------------------------------------------------------------------

 Structure from the checkpoint file:  "/scratch/sergio/HC2.q-1.m1-1.com-4921600/Gau-1697.chk"
 ---------
 b3lyp opt
 ---------
 Charge = -1 Multiplicity = 1

                         Standard orientation:
 ---------------------------------------------------------------------
 Center     Atomic      Atomic             Coordinates (Angstroms)
 Number     Number       Type             X           Y           Z
 ---------------------------------------------------------------------
      1          1           0        0.000000    0.000000   -1.557259
      2          6           0        0.000000    0.000000   -0.489627
      3          6           0        0.000000    0.000000    0.749171
 ---------------------------------------------------------------------

 SCF Done:  E(RB3LYP) =  -76.7502549554     A.U. after    1 cycles

 The electronic state is 1-SG.
 Alpha  occ. eigenvalues --   -9.90736  -9.90566  -0.47897  -0.29817  -0.02958
 Alpha  occ. eigenvalues --   -0.02958  -0.02819
 Alpha virt. eigenvalues --    0.12575   0.20227   0.21330   0.21330   0.23117
 Alpha virt. eigenvalues --    0.23117   0.24110   0.26383   0.31101   0.33373
 Alpha virt. eigenvalues --    0.33373   0.40624   0.53071   0.53071   0.54486

 Mulliken charges:
               1
     1  H    0.124984
     2  C   -0.362821
     3  C   -0.762163
 Sum of Mulliken charges =  -1.00000

 Dipole moment (field-independent basis, Debye):
    X=              0.0000    Y=              0.0000    Z=             -3.4399  Tot=              3.4399
 Quadrupole moment (field-independent basis, Debye-Ang):
   XX=            -18.0643   YY=            -18.0643   ZZ=            -20.2072
   XY=              0.0000   XZ=              0.0000   YZ=              0.0000

  Exact polarizability:  36.419  -0.000  36.419   0.000   0.000  56.046
 Approx polarizability:  44.921  -0.000  44.921  -0.000  -0.000  80.772

                      1                      2                      3
                     PI                     PI                     SG
 Frequencies --    544.4041               544.4041              1887.9201
 Red. masses --      1.3248                 1.3248                 6.1086
 Frc consts  --      0.2313                 0.2313                12.8281
 IR Inten    --    102.0382               102.0382                75.7640

                      4
                     SG
 Frequencies --   3367.5458
 Red. masses --      1.1425
 Frc consts  --      7.6340
 IR Inten    --      0.1599

 - Thermochemistry -
 -------------------
 Temperature   298.150 Kelvin.  Pressure   1.00000 Atm.
 Atom     1 has atomic number  1 and mass   1.00783

 Molecular mass:    25.00783 amu.
 Principal axes and moments of inertia in atomic units:
                           1         2         3
     Eigenvalues --     0.00000  42.71161  42.71161
           X            0.00000  -0.00000   1.00000
           Y            0.00000   1.00000   0.00000
           Z            1.00000   0.00000   0.00000
 This molecule is a prolate symmetric top.
 Rotational symmetry number  1.
 Rotational temperature (Kelvin)      2.02788
 Rotational constant (GHZ):          42.254115
 Zero-point vibrational energy      37947.2 (Joules/Mol)
                                    9.06960 (Kcal/Mol)
 Warning -- explicit consideration of   2 degrees of freedom as
           vibrations may cause significant error
 Vibrational temperatures:    783.28   783.28  2716.29  4845.14
          (Kelvin)

 Zero-point correction=                           0.014453 (Hartree/Particle)
 Thermal correction to Energy=                    0.017201
 Thermal correction to Enthalpy=                  0.018145
 Thermal correction to Gibbs Free Energy=        -0.004948
 Sum of electronic and zero-point Energies=            -76.735802
 Sum of electronic and thermal Energies=               -76.733054
 Sum of electronic and thermal Enthalpies=             -76.732109
 Sum of electronic and thermal Free Energies=          -76.755203

                     E (Thermal)             CV                S
                      KCal/Mol        Cal/Mol-Kelvin    Cal/Mol-Kelvin
 Total                   10.794              7.290             48.605
 Electronic               0.000              0.000              0.000
 Translational            0.889              2.981             35.587
 Rotational               0.592              1.987             11.905
 Vibrational              9.313              2.322              1.114
 Vibration     1          0.900              1.152              0.556
 Vibration     2          0.900              1.152              0.556

 Optimization completed.
    -- Stationary point found.
 Normal termination of Gaussian 09 at Fri Jan 25 14:35:14 2019.
