 Gaussian 09, Revision E.01,
 Gaussian 09:  EM64L-G09RevE.01 30-Nov-2015

 ------------------------------------------------------
 #p b3lyp/6-311++G(3df,2p) freq IOp(2/17=3) IOp(2/18=3)
 ------------------------------------------------------

 ---------
 b3lyp opt
 ---------
 Symbolic Z-matrix:
 Charge = -1 Multiplicity = 1

                         Standard orientation:
 ---------------------------------------------------------------------
 Center     Atomic      Atomic             Coordinates (Angstroms)
 Number     Number       Type             X           Y           Z
 ---------------------------------------------------------------------
      1          6           0       -0.105669    0.787344    0.040860
      2          6           0        0.878057   -0.202967   -0.181374
      3          1           0        1.353114   -0.502348    0.767262
      4          8           0       -0.748430   -0.375489    0.009478
 ---------------------------------------------------------------------

 SCF Done:  E(RB3LYP) =  -151.938458352     A.U. after   13 cycles

 The electronic state is 1-A.
 Alpha  occ. eigenvalues --  -18.93271 -10.00153  -9.96661  -0.84524  -0.44899
 Alpha  occ. eigenvalues --   -0.30745  -0.21865  -0.17059  -0.13902  -0.00809
 Alpha  occ. eigenvalues --    0.00157
 Alpha virt. eigenvalues --    0.13771   0.17499   0.17919   0.19113   0.20745
 Alpha virt. eigenvalues --    0.22776   0.23716   0.25761   0.26286   0.28737
 Alpha virt. eigenvalues --    0.30372   0.33255   0.37324   0.39963   0.42050

 Mulliken charges:
               1
     1  C   -0.256854
     2  C   -0.321818
     3  H    0.048041
     4  O   -0.469369
 Sum of Mulliken charges =  -1.00000

 Dipole moment (field-independent basis, Debye):
    X=             -0.3718    Y=             -1.0641    Z=              1.3816  Tot=              1.7831
 Quadrupole moment (field-independent basis, Debye-Ang):
   XX=            -25.4769   YY=            -27.4655   ZZ=            -22.7766
   XY=              1.4910   XZ=              2.7277   YZ=             -1.5050

  Exact polarizability:  50.952 -10.834  51.514  -4.469   2.714  45.135
 Approx polarizability:  79.733  -9.628  62.867  -5.237   2.101  55.599

                      1                      2                      3
                      A                      A                      A
 Frequencies --    479.9182               702.4998               828.4386
 Red. masses --     10.6006                 2.1600                 1.6678
 Frc consts  --      1.4385                 0.6280                 0.6744
 IR Inten    --      4.0070               249.8075                84.9780

                      4                      5                      6
                      A                      A                      A
 Frequencies --   1096.6141              1398.1899              2914.6054
 Red. masses --      1.3989                10.8850                 1.0867
 Frc consts  --      0.9911                12.5375                 5.4388
 IR Inten    --      7.7138                70.2312               134.2952

 - Thermochemistry -
 -------------------
 Temperature   298.150 Kelvin.  Pressure   1.00000 Atm.
 Atom     1 has atomic number  6 and mass  12.00000

 Molecular mass:    41.00274 amu.
 Principal axes and moments of inertia in atomic units:
                           1         2         3
     Eigenvalues --    40.45573  75.59308 109.49172
           X            0.99628  -0.06528   0.05633
           Y            0.06786   0.99667  -0.04513
           Z           -0.05320   0.04878   0.99739
 This molecule is an asymmetric top.
 Rotational symmetry number  1.
 Rotational temperatures (Kelvin)      2.14095     1.14579     0.79105
 Rotational constants (GHZ):          44.61028    23.87442    16.48290
 Zero-point vibrational energy      44383.0 (Joules/Mol)
                                   10.60780 (Kcal/Mol)
 Warning -- explicit consideration of   1 degrees of freedom as
           vibrations may cause significant error
 Vibrational temperatures:    690.49  1010.74  1191.94  1577.78  2011.68
          (Kelvin)           4193.46

 Zero-point correction=                           0.016905 (Hartree/Particle)
 Thermal correction to Energy=                    0.020192
 Thermal correction to Enthalpy=                  0.021136
 Thermal correction to Gibbs Free Energy=        -0.006794
 Sum of electronic and zero-point Energies=           -151.921554
 Sum of electronic and thermal Energies=              -151.918267
 Sum of electronic and thermal Enthalpies=            -151.917323
 Sum of electronic and thermal Free Energies=         -151.945253

                     E (Thermal)             CV                S
                      KCal/Mol        Cal/Mol-Kelvin    Cal/Mol-Kelvin
 Total                   12.670              9.075             58.784
 Electronic               0.000              0.000              0.000
 Translational            0.889              2.981             37.061
 Rotational               0.889              2.981             20.443
 Vibrational             10.893              3.114              1.280
 Vibration     1          0.836              1.295              0.710

 Optimization completed.
    -- Stationary point found.
 Normal termination of Gaussian 09 at Fri Mar  8 03:51:22 2019.
