 Gaussian 09, Revision E.01,
 Gaussian 09:  EM64L-G09RevE.01 30-Nov-2015

 ------------------------------------------------------
 #p b3lyp/6-311++G(3df,2p) freq IOp(2/17=3) IOp(2/18=3)
 ------------------------------------------------------

 ---------
 b3lyp opt
 ---------
 Symbolic Z-matrix:
 Charge = -1 Multiplicity = 3

                         Standard orientation:
 ---------------------------------------------------------------------
 Center     Atomic      Atomic             Coordinates (Angstroms)
 Number     Number       Type             X           Y           Z
 ---------------------------------------------------------------------
      1          6           0        0.318529   -0.104431   -0.000000
      2          6           0       -0.000000    1.282010    0.000000
      3          1           0        0.927857    1.871258    0.000000
      4          8           0       -0.354879   -1.117092   -0.000000
 ---------------------------------------------------------------------

 SCF Done:  E(UB3LYP) =  -151.972153433     A.U. after   17 cycles

 The electronic state is 3-A".
 Alpha  occ. eigenvalues --  -18.94255 -10.03398  -9.97486  -0.85691  -0.51753
 Alpha  occ. eigenvalues --   -0.31028  -0.24260  -0.21695  -0.19101  -0.06469
 Alpha  occ. eigenvalues --   -0.03905   0.05494
 Alpha virt. eigenvalues --    0.13720   0.17496   0.19350   0.20463   0.20597
 Alpha virt. eigenvalues --    0.22751   0.23478   0.26272   0.26716   0.29010
 Alpha virt. eigenvalues --    0.32949   0.36576   0.37983   0.40719   0.43627

  Beta  occ. eigenvalues --  -18.93079 -10.02679  -9.96237  -0.83387  -0.47526
  Beta  occ. eigenvalues --   -0.29000  -0.21899  -0.17804  -0.15778  -0.02738
  Beta virt. eigenvalues --    0.08174   0.12620   0.15544   0.18175   0.19889
  Beta virt. eigenvalues --    0.21377   0.22029   0.23222   0.24096   0.27807
  Beta virt. eigenvalues --    0.29363   0.30097   0.33541   0.36584   0.38751

 Mulliken charges and spin densities:
               1          2
     1  C   -0.537198   1.376393
     2  C    0.001374   0.302776
     3  H   -0.070969   0.141451
     4  O   -0.393206   0.179380
 Sum of Mulliken charges =  -1.00000   2.00000

 Dipole moment (field-independent basis, Debye):
    X=              0.9144    Y=             -1.3016    Z=              0.0000  Tot=              1.5907
 Quadrupole moment (field-independent basis, Debye-Ang):
   XX=            -26.5934   YY=            -31.6243   ZZ=            -22.3905
   XY=              2.4778   XZ=             -0.0000   YZ=             -0.0000

  Exact polarizability:  88.070 -12.055  98.287   0.000  -0.000  54.566
 Approx polarizability:  87.470  -5.213 123.608   0.000  -0.000  58.398

                      1                      2                      3
                     A"                     A'                     A'
 Frequencies --    313.9729               557.7866               979.6925
 Red. masses --      1.3069                 5.9752                 8.3050
 Frc consts  --      0.0759                 1.0953                 4.6964
 IR Inten    --     14.9412                27.4959                43.7707

                      4                      5                      6
                     A'                     A'                     A'
 Frequencies --   1038.1371              1629.9687              2961.1039
 Red. masses --      1.2805                10.8530                 1.0824
 Frc consts  --      0.8131                16.9887                 5.5916
 IR Inten    --     74.9137               449.6807                 8.3884

 - Thermochemistry -
 -------------------
 Temperature   298.150 Kelvin.  Pressure   1.00000 Atm.
 Atom     1 has atomic number  6 and mass  12.00000

 Molecular mass:    41.00274 amu.
 Principal axes and moments of inertia in atomic units:
                           1         2         3
     Eigenvalues --     9.42129 159.62524 169.04652
           X            0.18508   0.98272   0.00000
           Y            0.98272  -0.18508   0.00000
           Z            0.00000   0.00000   1.00000
 This molecule is an asymmetric top.
 Rotational symmetry number  1.
 Rotational temperatures (Kelvin)      9.19342     0.54261     0.51237
 Rotational constants (GHZ):         191.55995    11.30611    10.67600
 Zero-point vibrational energy      44744.3 (Joules/Mol)
                                   10.69414 (Kcal/Mol)
 Warning -- explicit consideration of   2 degrees of freedom as
           vibrations may cause significant error
 Vibrational temperatures:    451.74   802.53  1409.56  1493.65  2345.16
          (Kelvin)           4260.36

 Zero-point correction=                           0.017042 (Hartree/Particle)
 Thermal correction to Energy=                    0.020537
 Thermal correction to Enthalpy=                  0.021481
 Thermal correction to Gibbs Free Energy=        -0.007726
 Sum of electronic and zero-point Energies=           -151.955111
 Sum of electronic and thermal Energies=              -151.951616
 Sum of electronic and thermal Enthalpies=            -151.950672
 Sum of electronic and thermal Free Energies=         -151.979879

                     E (Thermal)             CV                S
                      KCal/Mol        Cal/Mol-Kelvin    Cal/Mol-Kelvin
 Total                   12.887              9.516             61.471
 Electronic               0.000              0.000              2.183
 Translational            0.889              2.981             37.061
 Rotational               0.889              2.981             20.169
 Vibrational             11.110              3.554              2.058
 Vibration     1          0.702              1.647              1.341
 Vibration     2          0.913              1.123              0.528

 Optimization completed.
    -- Stationary point found.
 Normal termination of Gaussian 09 at Fri Mar  8 03:57:03 2019.
