 Gaussian 09, Revision E.01,
 Gaussian 09:  EM64L-G09RevE.01 30-Nov-2015

 ------------------------------------------------------
 #p b3lyp/6-311++G(3df,2p) freq IOp(2/17=3) IOp(2/18=3)
 ------------------------------------------------------

 ---------
 b3lyp opt
 ---------
 Symbolic Z-matrix:
 Charge = -1 Multiplicity = 3

                         Standard orientation:
 ---------------------------------------------------------------------
 Center     Atomic      Atomic             Coordinates (Angstroms)
 Number     Number       Type             X           Y           Z
 ---------------------------------------------------------------------
      1          6           0       -0.038968   -0.205947   -0.000000
      2          6           0       -0.769475   -1.261096    0.000000
      3          1           0       -0.000000    1.773826    0.000000
      4          8           0        0.606332    0.878554   -0.000000
 ---------------------------------------------------------------------

 SCF Done:  E(UB3LYP) =  -151.898913267     A.U. after   16 cycles

 The electronic state is 3-A".
 Alpha  occ. eigenvalues --  -19.06587 -10.09592 -10.03034  -0.96845  -0.60238
 Alpha  occ. eigenvalues --   -0.47124  -0.33044  -0.31281  -0.14033  -0.12148
 Alpha  occ. eigenvalues --   -0.11315   0.05040
 Alpha virt. eigenvalues --    0.15175   0.16837   0.17458   0.17891   0.19110
 Alpha virt. eigenvalues --    0.20047   0.21470   0.23494   0.24172   0.27588
 Alpha virt. eigenvalues --    0.29041   0.32880   0.36324   0.36552   0.39528

  Beta  occ. eigenvalues --  -19.05646 -10.09171 -10.02230  -0.95049  -0.56773
  Beta  occ. eigenvalues --   -0.45455  -0.32043  -0.27159  -0.12398  -0.10090
  Beta virt. eigenvalues --    0.00005   0.11430   0.16011   0.17217   0.18657
  Beta virt. eigenvalues --    0.18765   0.20584   0.21157   0.22907   0.24069
  Beta virt. eigenvalues --    0.27779   0.27876   0.30356   0.34283   0.37031

 Mulliken charges and spin densities:
               1          2
     1  C    0.381629   0.406750
     2  C    0.131739  -0.091184
     3  H   -1.197925   1.666646
     4  O   -0.315442   0.017788
 Sum of Mulliken charges =  -1.00000   2.00000

 Dipole moment (field-independent basis, Debye):
    X=              2.4389    Y=             -3.7666    Z=              0.0000  Tot=              4.4872
 Quadrupole moment (field-independent basis, Debye-Ang):
   XX=            -30.8771   YY=            -52.5377   ZZ=            -25.9366
   XY=             -2.1915   XZ=              0.0000   YZ=             -0.0000

  Exact polarizability: 107.481   3.392 197.152  -0.000  -0.000  74.187
 Approx polarizability: 113.122  13.018 188.960   0.000   0.000  76.629

                      1                      2                      3
                     A'                     A"                     A'
 Frequencies --    274.2813               287.6898              1038.9059
 Red. masses --      5.7308                10.6209                 1.1907
 Frc consts  --      0.2540                 0.5179                 0.7572
 IR Inten    --    242.0094                13.9275               313.9484

                      4                      5                      6
                     A'                     A'                     A'
 Frequencies --   1072.9681              1466.1321              1982.3877
 Red. masses --      9.9601                 1.1776                 6.8517
 Frc consts  --      6.7560                 1.4914                15.8646
 IR Inten    --    306.2312              4091.3166                48.8926

 - Thermochemistry -
 -------------------
 Temperature   298.150 Kelvin.  Pressure   1.00000 Atm.
 Atom     1 has atomic number  6 and mass  12.00000

 Molecular mass:    41.00274 amu.
 Principal axes and moments of inertia in atomic units:
                           1         2         3
     Eigenvalues --     3.41771 168.12875 171.54646
           X            0.51106   0.85955   0.00000
           Y            0.85955  -0.51106  -0.00000
           Z           -0.00000  -0.00000   1.00000
 This molecule is an asymmetric top.
 Rotational symmetry number  1.
 Rotational temperatures (Kelvin)     25.34265     0.51516     0.50490
 Rotational constants (GHZ):         528.05580    10.73428    10.52042
 Zero-point vibrational energy      36619.9 (Joules/Mol)
                                    8.75236 (Kcal/Mol)
 Warning -- explicit consideration of   2 degrees of freedom as
           vibrations may cause significant error
 Vibrational temperatures:    394.63   413.92  1494.75  1543.76  2109.43
          (Kelvin)           2852.21

 Zero-point correction=                           0.013948 (Hartree/Particle)
 Thermal correction to Energy=                    0.017735
 Thermal correction to Enthalpy=                  0.018679
 Thermal correction to Gibbs Free Energy=        -0.010633
 Sum of electronic and zero-point Energies=           -151.884965
 Sum of electronic and thermal Energies=              -151.881178
 Sum of electronic and thermal Enthalpies=            -151.880234
 Sum of electronic and thermal Free Energies=         -151.909546

                     E (Thermal)             CV                S
                      KCal/Mol        Cal/Mol-Kelvin    Cal/Mol-Kelvin
 Total                   11.129             10.117             61.693
 Electronic               0.000              0.000              2.183
 Translational            0.889              2.981             37.061
 Rotational               0.889              2.981             19.228
 Vibrational              9.351              4.155              3.221
 Vibration     1          0.677              1.721              1.569
 Vibration     2          0.685              1.697              1.488

 Optimization completed.
    -- Stationary point found.
 Normal termination of Gaussian 09 at Fri Mar  8 03:57:01 2019.
