 Gaussian 09, Revision E.01,
 Gaussian 09:  EM64L-G09RevE.01 30-Nov-2015

 ------------------------------------------------------
 #p b3lyp/6-311++G(3df,2p) freq IOp(2/17=3) IOp(2/18=3)
 ------------------------------------------------------

 ---------
 b3lyp opt
 ---------
 Symbolic Z-matrix:
 Charge = -1 Multiplicity = 3

                         Standard orientation:
 ---------------------------------------------------------------------
 Center     Atomic      Atomic             Coordinates (Angstroms)
 Number     Number       Type             X           Y           Z
 ---------------------------------------------------------------------
      1          6           0        0.768825   -1.261298   -0.000000
      2          6           0        0.039173   -0.205697   -0.000000
      3          1           0       -0.000000    1.774025    0.000000
      4          8           0       -0.605999    0.878493    0.000000
 ---------------------------------------------------------------------

 SCF Done:  E(UB3LYP) =  -151.898913362     A.U. after   16 cycles

 The electronic state is 3-A".
 Alpha  occ. eigenvalues --  -19.06589 -10.09589 -10.03029  -0.96861  -0.60241
 Alpha  occ. eigenvalues --   -0.47135  -0.33052  -0.31293  -0.14030  -0.12147
 Alpha  occ. eigenvalues --   -0.11314   0.05040
 Alpha virt. eigenvalues --    0.15175   0.16839   0.17460   0.17893   0.19112
 Alpha virt. eigenvalues --    0.20046   0.21467   0.23498   0.24174   0.27588
 Alpha virt. eigenvalues --    0.29045   0.32888   0.36324   0.36553   0.39526

  Beta  occ. eigenvalues --  -19.05648 -10.09169 -10.02225  -0.95066  -0.56776
  Beta  occ. eigenvalues --   -0.45465  -0.32051  -0.27171  -0.12394  -0.10090
  Beta virt. eigenvalues --    0.00007   0.11431   0.16009   0.17217   0.18661
  Beta virt. eigenvalues --    0.18764   0.20585   0.21155   0.22906   0.24072
  Beta virt. eigenvalues --    0.27784   0.27877   0.30358   0.34291   0.37030

 Mulliken charges and spin densities:
               1          2
     1  C    0.133165  -0.093321
     2  C    0.380919   0.408091
     3  H   -1.198387   1.667203
     4  O   -0.315697   0.018027
 Sum of Mulliken charges =  -1.00000   2.00000

 Dipole moment (field-independent basis, Debye):
    X=             -2.4392    Y=             -3.7678    Z=             -0.0000  Tot=              4.4884
 Quadrupole moment (field-independent basis, Debye-Ang):
   XX=            -30.8723   YY=            -52.5528   ZZ=            -25.9362
   XY=              2.1899   XZ=              0.0000   YZ=             -0.0000

  Exact polarizability: 107.433  -3.414 197.061   0.000   0.000  74.192
 Approx polarizability: 113.054 -13.028 188.822   0.000   0.000  76.629

                      1                      2                      3
                     A'                     A"                     A'
 Frequencies --    273.9230               287.1547              1038.5943
 Red. masses --      5.7294                10.6553                 1.1887
 Frc consts  --      0.2533                 0.5177                 0.7555
 IR Inten    --    242.2086                14.2154               314.4378

                      4                      5                      6
                     A'                     A'                     A'
 Frequencies --   1073.9607              1465.0463              1983.5683
 Red. masses --     10.0814                 1.1774                 6.8696
 Frc consts  --      6.8509                 1.4889                15.9249
 IR Inten    --    308.6808              4098.5787                48.5487

 - Thermochemistry -
 -------------------
 Temperature   298.150 Kelvin.  Pressure   1.00000 Atm.
 Atom     1 has atomic number  6 and mass  12.00000

 Molecular mass:    41.00274 amu.
 Principal axes and moments of inertia in atomic units:
                           1         2         3
     Eigenvalues --     3.41343 168.08166 171.49508
           X           -0.51076   0.85972  -0.00000
           Y            0.85972   0.51076  -0.00000
           Z            0.00000   0.00000   1.00000
 This molecule is an asymmetric top.
 Rotational symmetry number  1.
 Rotational temperatures (Kelvin)     25.37446     0.51531     0.50505
 Rotational constants (GHZ):         528.71850    10.73729    10.52357
 Zero-point vibrational energy      36619.2 (Joules/Mol)
                                    8.75219 (Kcal/Mol)
 Warning -- explicit consideration of   2 degrees of freedom as
           vibrations may cause significant error
 Vibrational temperatures:    394.11   413.15  1494.30  1545.19  2107.87
          (Kelvin)           2853.91

 Zero-point correction=                           0.013948 (Hartree/Particle)
 Thermal correction to Energy=                    0.017736
 Thermal correction to Enthalpy=                  0.018680
 Thermal correction to Gibbs Free Energy=        -0.010634
 Sum of electronic and zero-point Energies=           -151.884966
 Sum of electronic and thermal Energies=              -151.881177
 Sum of electronic and thermal Enthalpies=            -151.880233
 Sum of electronic and thermal Free Energies=         -151.909547

                     E (Thermal)             CV                S
                      KCal/Mol        Cal/Mol-Kelvin    Cal/Mol-Kelvin
 Total                   11.129             10.118             61.696
 Electronic               0.000              0.000              2.183
 Translational            0.889              2.981             37.061
 Rotational               0.889              2.981             19.226
 Vibrational              9.352              4.156              3.226
 Vibration     1          0.676              1.721              1.571
 Vibration     2          0.684              1.698              1.491

 Optimization completed.
    -- Stationary point found.
 Normal termination of Gaussian 09 at Fri Mar  8 04:08:17 2019.
