 Gaussian 09, Revision E.01,
 Gaussian 09:  EM64L-G09RevE.01 30-Nov-2015

 ------------------------------------------------------
 #p b3lyp/6-311++G(3df,2p) freq IOp(2/17=3) IOp(2/18=3)
 ------------------------------------------------------

 ---------
 b3lyp opt
 ---------
 Symbolic Z-matrix:
 Charge = -1 Multiplicity = 1

                         Standard orientation:
 ---------------------------------------------------------------------
 Center     Atomic      Atomic             Coordinates (Angstroms)
 Number     Number       Type             X           Y           Z
 ---------------------------------------------------------------------
      1          6           0        0.000000    1.233624   -0.000000
      2          6           0       -0.189332   -1.309464    0.000000
      3          1           0        1.080528    1.479609   -0.000000
      4          8           0        0.006933   -0.128071    0.000000
 ---------------------------------------------------------------------

 SCF Done:  E(RB3LYP) =  -151.879417116     A.U. after   15 cycles

 The electronic state is 1-A'.
 Alpha  occ. eigenvalues --  -19.07054 -10.03065  -9.97416  -0.96682  -0.59220
 Alpha  occ. eigenvalues --   -0.31574  -0.29371  -0.26099  -0.15623  -0.01806
 Alpha  occ. eigenvalues --    0.04254
 Alpha virt. eigenvalues --    0.13276   0.14455   0.15090   0.18107   0.20718
 Alpha virt. eigenvalues --    0.22046   0.23262   0.23699   0.24442   0.25677
 Alpha virt. eigenvalues --    0.26529   0.34107   0.38779   0.40529   0.41121

 Mulliken charges:
               1
     1  C   -0.679177
     2  C   -0.344164
     3  H    0.112591
     4  O   -0.089251
 Sum of Mulliken charges =  -1.00000

 Dipole moment (field-independent basis, Debye):
    X=              1.5986    Y=             -1.3132    Z=             -0.0000  Tot=              2.0688
 Quadrupole moment (field-independent basis, Debye-Ang):
   XX=            -21.9844   YY=            -37.5800   ZZ=            -24.9467
   XY=              1.2073   XZ=              0.0000   YZ=              0.0000

  Exact polarizability:  41.092   5.550 119.554  -0.000  -0.017  51.075
 Approx polarizability:  53.161  18.843 269.935   0.000  -0.000  57.765

                      1                      2                      3
                     A'                     A"                     A'
 Frequencies --    404.0738               495.7203               804.9921
 Red. masses --      6.8215                 6.3244                11.3289
 Frc consts  --      0.6562                 0.9157                 4.3254
 IR Inten    --     10.2057                 5.9164               194.1411

                      4                      5                      6
                     A'                     A'                     A'
 Frequencies --   1255.2244              1641.2466              2848.9402
 Red. masses --      1.2343                 8.3728                 1.0814
 Frc consts  --      1.1458                13.2882                 5.1715
 IR Inten    --     58.7836               616.9599               237.7856

 - Thermochemistry -
 -------------------
 Temperature   298.150 Kelvin.  Pressure   1.00000 Atm.
 Atom     1 has atomic number  6 and mass  12.00000

 Molecular mass:    41.00274 amu.
 Principal axes and moments of inertia in atomic units:
                           1         2         3
     Eigenvalues --     3.81417 149.14908 152.96326
           X            0.11211   0.99370   0.00000
           Y            0.99370  -0.11211   0.00000
           Z           -0.00000  -0.00000   1.00000
 This molecule is an asymmetric top.
 Rotational symmetry number  1.
 Rotational temperatures (Kelvin)     22.70842     0.58072     0.56624
 Rotational constants (GHZ):         473.16725    12.10025    11.79853
 Zero-point vibrational energy      44562.1 (Joules/Mol)
                                   10.65059 (Kcal/Mol)
 Warning -- explicit consideration of   2 degrees of freedom as
           vibrations may cause significant error
 Vibrational temperatures:    581.37   713.23  1158.20  1805.99  2361.38
          (Kelvin)           4098.98

 Zero-point correction=                           0.016973 (Hartree/Particle)
 Thermal correction to Energy=                    0.020431
 Thermal correction to Enthalpy=                  0.021375
 Thermal correction to Gibbs Free Energy=        -0.006194
 Sum of electronic and zero-point Energies=           -151.862444
 Sum of electronic and thermal Energies=              -151.858986
 Sum of electronic and thermal Enthalpies=            -151.858042
 Sum of electronic and thermal Free Energies=         -151.885611

                     E (Thermal)             CV                S
                      KCal/Mol        Cal/Mol-Kelvin    Cal/Mol-Kelvin
 Total                   12.821              9.542             58.024
 Electronic               0.000              0.000              0.000
 Translational            0.889              2.981             37.061
 Rotational               0.889              2.981             19.104
 Vibrational             11.043              3.581              1.859
 Vibration     1          0.769              1.461              0.948
 Vibration     2          0.851              1.260              0.669

 Optimization completed.
    -- Stationary point found.
 Normal termination of Gaussian 09 at Fri Mar  8 03:43:51 2019.
