 Gaussian 09, Revision E.01,
 Gaussian 09:  EM64L-G09RevE.01 30-Nov-2015

 ------------------------------------------------------
 #p b3lyp/6-311++G(3df,2p) freq IOp(2/17=3) IOp(2/18=3)
 ------------------------------------------------------

 ---------
 b3lyp opt
 ---------
 Symbolic Z-matrix:
 Charge = -1 Multiplicity = 1

                         Standard orientation:
 ---------------------------------------------------------------------
 Center     Atomic      Atomic             Coordinates (Angstroms)
 Number     Number       Type             X           Y           Z
 ---------------------------------------------------------------------
      1          6           0       -0.727069   -1.294925    0.000000
      2          6           0       -0.103971   -0.224290    0.000000
      3          1           0       -0.000000    1.663492    0.000000
      4          8           0        0.623280    0.931474   -0.000000
 ---------------------------------------------------------------------

 SCF Done:  E(RB3LYP) =  -151.983859487     A.U. after   15 cycles

 The electronic state is 1-A'.
 Alpha  occ. eigenvalues --  -18.98948  -9.95705  -9.89700  -0.87974  -0.48219
 Alpha  occ. eigenvalues --   -0.38748  -0.26270  -0.20669  -0.02473  -0.01998
 Alpha  occ. eigenvalues --   -0.00321
 Alpha virt. eigenvalues --    0.10908   0.18476   0.20422   0.22145   0.22327
 Alpha virt. eigenvalues --    0.23640   0.24068   0.25820   0.29208   0.30961
 Alpha virt. eigenvalues --    0.34318   0.34760   0.36450   0.38302   0.38521

 Mulliken charges:
               1
     1  C   -0.818644
     2  C    0.119692
     3  H    0.251849
     4  O   -0.552898
 Sum of Mulliken charges =  -1.00000

 Dipole moment (field-independent basis, Debye):
    X=              2.2713    Y=              6.8569    Z=             -0.0000  Tot=              7.2233
 Quadrupole moment (field-independent basis, Debye-Ang):
   XX=            -26.6896   YY=            -29.4463   ZZ=            -23.0655
   XY=             -7.3478   XZ=              0.0000   YZ=              0.0000

  Exact polarizability:  42.655  10.013  57.376   0.000   0.000  37.932
 Approx polarizability:  58.157  15.742  80.380  -0.000  -0.000  48.371

                      1                      2                      3
                     A'                     A"                     A'
 Frequencies --    306.2452               364.4773               932.6840
 Red. masses --      6.6562                11.6670                13.4882
 Frc consts  --      0.3678                 0.9132                 6.9131
 IR Inten    --      9.6151                 3.5297                93.7683

                      4                      5                      6
                     A'                     A'                     A'
 Frequencies --   1219.5453              2051.3636              3772.8558
 Red. masses --      1.1483                11.4311                 1.0668
 Frc consts  --      1.0062                28.3414                 8.9468
 IR Inten    --     45.0088                20.0135                31.5211

 - Thermochemistry -
 -------------------
 Temperature   298.150 Kelvin.  Pressure   1.00000 Atm.
 Atom     1 has atomic number  6 and mass  12.00000

 Molecular mass:    41.00274 amu.
 Principal axes and moments of inertia in atomic units:
                           1         2         3
     Eigenvalues --     2.77403 175.82385 178.59789
           X            0.49576   0.86846   0.00000
           Y            0.86846  -0.49576  -0.00000
           Z           -0.00000  -0.00000   1.00000
 This molecule is an asymmetric top.
 Rotational symmetry number  1.
 Rotational temperatures (Kelvin)     31.22305     0.49262     0.48497
 Rotational constants (GHZ):         650.58357    10.26448    10.10505
 Zero-point vibrational energy      51721.6 (Joules/Mol)
                                   12.36175 (Kcal/Mol)
 Warning -- explicit consideration of   2 degrees of freedom as
           vibrations may cause significant error
 Vibrational temperatures:    440.62   524.40  1341.92  1754.65  2951.45
          (Kelvin)           5428.29

 Zero-point correction=                           0.019700 (Hartree/Particle)
 Thermal correction to Energy=                    0.023354
 Thermal correction to Enthalpy=                  0.024298
 Thermal correction to Gibbs Free Energy=        -0.003646
 Sum of electronic and zero-point Energies=           -151.964160
 Sum of electronic and thermal Energies=              -151.960506
 Sum of electronic and thermal Enthalpies=            -151.959561
 Sum of electronic and thermal Free Energies=         -151.987505

                     E (Thermal)             CV                S
                      KCal/Mol        Cal/Mol-Kelvin    Cal/Mol-Kelvin
 Total                   14.655              9.828             58.813
 Electronic               0.000              0.000              0.000
 Translational            0.889              2.981             37.061
 Rotational               0.889              2.981             19.105
 Vibrational             12.877              3.866              2.647
 Vibration     1          0.697              1.662              1.383
 Vibration     2          0.738              1.545              1.103

 Optimization completed.
    -- Stationary point found.
 Normal termination of Gaussian 09 at Fri Mar  8 03:50:54 2019.
