 Gaussian 09, Revision E.01,
 Gaussian 09:  EM64L-G09RevE.01 30-Nov-2015

 ------------------------------------------------------
 #p b3lyp/6-311++G(3df,2p) freq IOp(2/17=3) IOp(2/18=3)
 ------------------------------------------------------

 ---------
 b3lyp opt
 ---------
 Symbolic Z-matrix:
 Charge = -1 Multiplicity = 1

                         Standard orientation:
 ---------------------------------------------------------------------
 Center     Atomic      Atomic             Coordinates (Angstroms)
 Number     Number       Type             X           Y           Z
 ---------------------------------------------------------------------
      1          6           0       -0.103856   -0.224312   -0.000000
      2          6           0       -0.727097   -1.295046   -0.000000
      3          1           0        0.000000    1.663679    0.000000
      4          8           0        0.623215    0.931559    0.000000
 ---------------------------------------------------------------------

 SCF Done:  E(RB3LYP) =  -151.983859441     A.U. after   15 cycles

 The electronic state is 1-A'.
 Alpha  occ. eigenvalues --  -18.98949  -9.95709  -9.89705  -0.87973  -0.48217
 Alpha  occ. eigenvalues --   -0.38750  -0.26268  -0.20669  -0.02476  -0.01996
 Alpha  occ. eigenvalues --   -0.00320
 Alpha virt. eigenvalues --    0.10907   0.18476   0.20422   0.22145   0.22327
 Alpha virt. eigenvalues --    0.23639   0.24068   0.25819   0.29205   0.30961
 Alpha virt. eigenvalues --    0.34313   0.34760   0.36449   0.38303   0.38520

 Mulliken charges:
               1
     1  C    0.119516
     2  C   -0.818455
     3  H    0.251838
     4  O   -0.552899
 Sum of Mulliken charges =  -1.00000

 Dipole moment (field-independent basis, Debye):
    X=              2.2707    Y=              6.8572    Z=              0.0000  Tot=              7.2233
 Quadrupole moment (field-independent basis, Debye-Ang):
   XX=            -26.6894   YY=            -29.4466   ZZ=            -23.0664
   XY=             -7.3470   XZ=              0.0000   YZ=             -0.0000

  Exact polarizability:  42.659  10.017  57.384   0.000   0.000  37.935
 Approx polarizability:  58.170  15.756  80.401   0.000   0.000  48.376

                      1                      2                      3
                     A'                     A"                     A'
 Frequencies --    306.7832               364.8816               932.5922
 Red. masses --      6.6567                11.6747                13.4865
 Frc consts  --      0.3691                 0.9158                 6.9109
 IR Inten    --      9.6385                 3.5242                93.7371

                      4                      5                      6
                     A'                     A'                     A'
 Frequencies --   1219.5740              2050.5168              3772.2801
 Red. masses --      1.1483                11.4299                 1.0668
 Frc consts  --      1.0063                28.3152                 8.9441
 IR Inten    --     44.9831                20.0347                31.5022

 - Thermochemistry -
 -------------------
 Temperature   298.150 Kelvin.  Pressure   1.00000 Atm.
 Atom     1 has atomic number  6 and mass  12.00000

 Molecular mass:    41.00274 amu.
 Principal axes and moments of inertia in atomic units:
                           1         2         3
     Eigenvalues --     2.77391 175.84526 178.61917
           X            0.49571   0.86849   0.00000
           Y            0.86849  -0.49571  -0.00000
           Z            0.00000  -0.00000   1.00000
 This molecule is an asymmetric top.
 Rotational symmetry number  1.
 Rotational temperatures (Kelvin)     31.22442     0.49256     0.48491
 Rotational constants (GHZ):         650.61206    10.26323    10.10385
 Zero-point vibrational energy      51718.3 (Joules/Mol)
                                   12.36098 (Kcal/Mol)
 Warning -- explicit consideration of   2 degrees of freedom as
           vibrations may cause significant error
 Vibrational temperatures:    441.39   524.98  1341.79  1754.69  2950.23
          (Kelvin)           5427.46

 Zero-point correction=                           0.019698 (Hartree/Particle)
 Thermal correction to Energy=                    0.023352
 Thermal correction to Enthalpy=                  0.024296
 Thermal correction to Gibbs Free Energy=        -0.003646
 Sum of electronic and zero-point Energies=           -151.964161
 Sum of electronic and thermal Energies=              -151.960508
 Sum of electronic and thermal Enthalpies=            -151.959564
 Sum of electronic and thermal Free Energies=         -151.987506

                     E (Thermal)             CV                S
                      KCal/Mol        Cal/Mol-Kelvin    Cal/Mol-Kelvin
 Total                   14.653              9.826             58.809
 Electronic               0.000              0.000              0.000
 Translational            0.889              2.981             37.061
 Rotational               0.889              2.981             19.105
 Vibrational             12.876              3.865              2.643
 Vibration     1          0.697              1.661              1.380
 Vibration     2          0.738              1.545              1.101

 Optimization completed.
    -- Stationary point found.
 Normal termination of Gaussian 09 at Fri Mar  8 03:47:26 2019.
