 Gaussian 09, Revision E.01,
 Gaussian 09:  EM64L-G09RevE.01 30-Nov-2015

 ------------------------------------------------------
 #p b3lyp/6-311++G(3df,2p) freq IOp(2/17=3) IOp(2/18=3)
 ------------------------------------------------------

 ---------
 b3lyp opt
 ---------
 Symbolic Z-matrix:
 Charge = -1 Multiplicity = 1

                         Standard orientation:
 ---------------------------------------------------------------------
 Center     Atomic      Atomic             Coordinates (Angstroms)
 Number     Number       Type             X           Y           Z
 ---------------------------------------------------------------------
      1          6           0       -0.000000    1.258382   -0.000000
      2          6           0        0.023326    0.003039   -0.000000
      3          1           0        0.648668    2.105473   -0.000000
      4          8           0       -0.098578   -1.209250    0.000000
 ---------------------------------------------------------------------

 SCF Done:  E(RB3LYP) =  -152.069003942     A.U. after   14 cycles

 The electronic state is 1-A'.
 Alpha  occ. eigenvalues --  -18.89893 -10.00695  -9.91220  -0.81515  -0.49921
 Alpha  occ. eigenvalues --   -0.28511  -0.23654  -0.17549  -0.17309  -0.00424
 Alpha  occ. eigenvalues --    0.00457
 Alpha virt. eigenvalues --    0.13257   0.17398   0.20141   0.21357   0.22737
 Alpha virt. eigenvalues --    0.23599   0.24213   0.26701   0.28504   0.29670
 Alpha virt. eigenvalues --    0.32863   0.37470   0.40338   0.41902   0.42233

 Mulliken charges:
               1
     1  C   -0.774137
     2  C    0.443754
     3  H    0.138141
     4  O   -0.807757
 Sum of Mulliken charges =  -1.00000

 Dipole moment (field-independent basis, Debye):
    X=              1.1094    Y=             -0.7088    Z=             -0.0000  Tot=              1.3165
 Quadrupole moment (field-independent basis, Debye-Ang):
   XX=            -21.7221   YY=            -29.7166   ZZ=            -22.4758
   XY=              1.7704   XZ=              0.0000   YZ=              0.0000

  Exact polarizability:  35.838  -2.820  64.188  -0.000   0.000  36.962
 Approx polarizability:  44.161  -5.287 109.891   0.000   0.000  44.895

                      1                      2                      3
                     A'                     A"                     A'
 Frequencies --    417.6451               587.8946               600.7021
 Red. masses --      1.1565                 5.4700                11.0991
 Frc consts  --      0.1188                 1.1139                 2.3597
 IR Inten    --    269.3435                 1.2368                 5.5112

                      4                      5                      6
                     A'                     A'                     A'
 Frequencies --   1240.5324              2079.0192              3356.4398
 Red. masses --      9.3850                 8.5788                 1.1143
 Frc consts  --      8.5095                21.8472                 7.3961
 IR Inten    --     49.4673              1223.3779                15.8596

 - Thermochemistry -
 -------------------
 Temperature   298.150 Kelvin.  Pressure   1.00000 Atm.
 Atom     1 has atomic number  6 and mass  12.00000

 Molecular mass:    41.00274 amu.
 Principal axes and moments of inertia in atomic units:
                           1         2         3
     Eigenvalues --     1.24324 167.77299 169.01622
           X            0.06989   0.99755   0.00000
           Y            0.99755  -0.06989   0.00000
           Z           -0.00000  -0.00000   1.00000
 This molecule is an asymmetric top.
 Rotational symmetry number  1.
 Rotational temperatures (Kelvin)     69.66809     0.51626     0.51246
 Rotational constants (GHZ):        1451.64917    10.75704    10.67792
 Zero-point vibrational energy      49538.8 (Joules/Mol)
                                   11.84005 (Kcal/Mol)
 Warning -- explicit consideration of   3 degrees of freedom as
           vibrations may cause significant error
 Vibrational temperatures:    600.90   845.85   864.28  1784.85  2991.24
          (Kelvin)           4829.16

 Zero-point correction=                           0.018868 (Hartree/Particle)
 Thermal correction to Energy=                    0.022334
 Thermal correction to Enthalpy=                  0.023279
 Thermal correction to Gibbs Free Energy=        -0.003862
 Sum of electronic and zero-point Energies=           -152.050136
 Sum of electronic and thermal Energies=              -152.046670
 Sum of electronic and thermal Enthalpies=            -152.045725
 Sum of electronic and thermal Free Energies=         -152.072866

                     E (Thermal)             CV                S
                      KCal/Mol        Cal/Mol-Kelvin    Cal/Mol-Kelvin
 Total                   14.015              9.670             57.122
 Electronic               0.000              0.000              0.000
 Translational            0.889              2.981             37.061
 Rotational               0.889              2.981             18.206
 Vibrational             12.238              3.709              1.855
 Vibration     1          0.781              1.432              0.900
 Vibration     2          0.945              1.058              0.471
 Vibration     3          0.959              1.030              0.448

 Optimization completed.
    -- Stationary point found.
 Normal termination of Gaussian 09 at Fri Mar  8 03:43:56 2019.
