 Gaussian 09, Revision E.01,
 Gaussian 09:  EM64L-G09RevE.01 30-Nov-2015

 ------------------------------------------------------
 #p b3lyp/6-311++G(3df,2p) freq IOp(2/17=3) IOp(2/18=3)
 ------------------------------------------------------

 ---------
 b3lyp opt
 ---------
 Symbolic Z-matrix:
 Charge = -1 Multiplicity = 1

                         Standard orientation:
 ---------------------------------------------------------------------
 Center     Atomic      Atomic             Coordinates (Angstroms)
 Number     Number       Type             X           Y           Z
 ---------------------------------------------------------------------
      1          6           0       -0.005103    0.023137    0.000849
      2          6           0       -1.253058   -0.114238   -0.000280
      3          1           0       -2.157470    0.451342   -0.000612
      4          8           0        1.213305    0.011908   -0.000350
 ---------------------------------------------------------------------

 SCF Done:  E(RB3LYP) =  -152.069001687     A.U. after   14 cycles

 The electronic state is 1-A.
 Alpha  occ. eigenvalues --  -18.89883 -10.00692  -9.91222  -0.81503  -0.49917
 Alpha  occ. eigenvalues --   -0.28525  -0.23654  -0.17541  -0.17304  -0.00416
 Alpha  occ. eigenvalues --    0.00457
 Alpha virt. eigenvalues --    0.13251   0.17399   0.20143   0.21357   0.22738
 Alpha virt. eigenvalues --    0.23599   0.24213   0.26697   0.28524   0.29673
 Alpha virt. eigenvalues --    0.32862   0.37480   0.40338   0.41910   0.42236

 Mulliken charges:
               1
     1  C    0.443248
     2  C   -0.773945
     3  H    0.138610
     4  O   -0.807913
 Sum of Mulliken charges =  -1.00000

 Dipole moment (field-independent basis, Debye):
    X=              0.5977    Y=              1.1645    Z=              0.0003  Tot=              1.3089
 Quadrupole moment (field-independent basis, Debye-Ang):
   XX=            -29.3143   YY=            -22.1136   ZZ=            -22.4748
   XY=             -2.4554   XZ=              0.0032   YZ=             -0.0003

  Exact polarizability:  63.439   5.333  36.599   0.006   0.004  36.958
 Approx polarizability: 108.371  11.144  45.668   0.030   0.009  44.888

                      1                      2                      3
                      A                      A                      A
 Frequencies --    411.8310               587.8520               600.3845
 Red. masses --      1.1577                 5.4375                10.9972
 Frc consts  --      0.1157                 1.1071                 2.3356
 IR Inten    --    269.3603                 1.2839                 5.1533

                      4                      5                      6
                      A                      A                      A
 Frequencies --   1240.4608              2079.0621              3358.8757
 Red. masses --      9.3758                 8.5751                 1.1144
 Frc consts  --      8.5001                21.8385                 7.4076
 IR Inten    --     49.7479              1223.8106                16.0629

 - Thermochemistry -
 -------------------
 Temperature   298.150 Kelvin.  Pressure   1.00000 Atm.
 Atom     1 has atomic number  6 and mass  12.00000

 Molecular mass:    41.00274 amu.
 Principal axes and moments of inertia in atomic units:
                           1         2         3
     Eigenvalues --     1.23103 167.80229 169.03324
           X            0.99977  -0.02122   0.00005
           Y            0.02122   0.99977  -0.00090
           Z           -0.00003   0.00090   1.00000
 This molecule is an asymmetric top.
 Rotational symmetry number  1.
 Rotational temperatures (Kelvin)     70.35863     0.51617     0.51241
 Rotational constants (GHZ):        1466.03779    10.75516    10.67684
 Zero-point vibrational energy      49516.2 (Joules/Mol)
                                   11.83466 (Kcal/Mol)
 Warning -- explicit consideration of   3 degrees of freedom as
           vibrations may cause significant error
 Vibrational temperatures:    592.53   845.79   863.82  1784.74  2991.30
          (Kelvin)           4832.67

 Zero-point correction=                           0.018860 (Hartree/Particle)
 Thermal correction to Energy=                    0.022331
 Thermal correction to Enthalpy=                  0.023276
 Thermal correction to Gibbs Free Energy=        -0.003870
 Sum of electronic and zero-point Energies=           -152.050142
 Sum of electronic and thermal Energies=              -152.046670
 Sum of electronic and thermal Enthalpies=            -152.045726
 Sum of electronic and thermal Free Energies=         -152.072872

                     E (Thermal)             CV                S
                      KCal/Mol        Cal/Mol-Kelvin    Cal/Mol-Kelvin
 Total                   14.013              9.684             57.133
 Electronic               0.000              0.000              0.000
 Translational            0.889              2.981             37.061
 Rotational               0.889              2.981             18.197
 Vibrational             12.236              3.722              1.876
 Vibration     1          0.776              1.445              0.920
 Vibration     2          0.945              1.058              0.471
 Vibration     3          0.959              1.031              0.449

 Normal termination of Gaussian 09 at Fri Mar  8 03:47:41 2019.
