 Gaussian 09, Revision E.01,
 Gaussian 09:  EM64L-G09RevE.01 30-Nov-2015

 ------------------------------------------------------
 #p b3lyp/6-311++G(3df,2p) freq IOp(2/17=3) IOp(2/18=3)
 ------------------------------------------------------

 ---------
 b3lyp opt
 ---------
 Symbolic Z-matrix:
 Charge = -1 Multiplicity = 1

                         Standard orientation:
 ---------------------------------------------------------------------
 Center     Atomic      Atomic             Coordinates (Angstroms)
 Number     Number       Type             X           Y           Z
 ---------------------------------------------------------------------
      1          6           0        0.727377   -1.294792    0.000000
      2          6           0        0.103708   -0.224374    0.000000
      3          1           0       -0.000000    1.663460   -0.000000
      4          8           0       -0.623314    0.931442   -0.000000
 ---------------------------------------------------------------------

 SCF Done:  E(RB3LYP) =  -151.983859451     A.U. after   15 cycles

 The electronic state is 1-A'.
 Alpha  occ. eigenvalues --  -18.98949  -9.95707  -9.89703  -0.87976  -0.48217
 Alpha  occ. eigenvalues --   -0.38751  -0.26270  -0.20671  -0.02475  -0.01996
 Alpha  occ. eigenvalues --   -0.00320
 Alpha virt. eigenvalues --    0.10908   0.18476   0.20421   0.22145   0.22328
 Alpha virt. eigenvalues --    0.23640   0.24068   0.25819   0.29203   0.30961
 Alpha virt. eigenvalues --    0.34315   0.34767   0.36446   0.38304   0.38521

 Mulliken charges:
               1
     1  C   -0.818015
     2  C    0.119083
     3  H    0.251840
     4  O   -0.552908
 Sum of Mulliken charges =  -1.00000

 Dipole moment (field-independent basis, Debye):
    X=             -2.2717    Y=              6.8569    Z=             -0.0000  Tot=              7.2234
 Quadrupole moment (field-independent basis, Debye-Ang):
   XX=            -26.6916   YY=            -29.4449   ZZ=            -23.0661
   XY=              7.3486   XZ=             -0.0000   YZ=              0.0000

  Exact polarizability:  42.666 -10.020  57.370   0.000  -0.000  37.934
 Approx polarizability:  58.184 -15.760  80.370   0.000  -0.000  48.374

                      1                      2                      3
                     A'                     A"                     A'
 Frequencies --    306.5321               364.7116               932.8137
 Red. masses --      6.6553                11.6909                13.4878
 Frc consts  --      0.3684                 0.9162                 6.9148
 IR Inten    --      9.6515                 3.4867                93.7592

                      4                      5                      6
                     A'                     A'                     A'
 Frequencies --   1219.5888              2050.8944              3772.4898
 Red. masses --      1.1483                11.4303                 1.0668
 Frc consts  --      1.0063                28.3266                 8.9451
 IR Inten    --     44.9579                20.0528                31.5146

 - Thermochemistry -
 -------------------
 Temperature   298.150 Kelvin.  Pressure   1.00000 Atm.
 Atom     1 has atomic number  6 and mass  12.00000

 Molecular mass:    41.00274 amu.
 Principal axes and moments of inertia in atomic units:
                           1         2         3
     Eigenvalues --     2.77454 175.82575 178.60029
           X           -0.49587   0.86840  -0.00000
           Y            0.86840   0.49587   0.00000
           Z           -0.00000  -0.00000   1.00000
 This molecule is an asymmetric top.
 Rotational symmetry number  1.
 Rotational temperatures (Kelvin)     31.21734     0.49261     0.48496
 Rotational constants (GHZ):         650.46452    10.26437    10.10492
 Zero-point vibrational energy      51720.7 (Joules/Mol)
                                   12.36155 (Kcal/Mol)
 Warning -- explicit consideration of   2 degrees of freedom as
           vibrations may cause significant error
 Vibrational temperatures:    441.03   524.74  1342.11  1754.71  2950.78
          (Kelvin)           5427.76

 Zero-point correction=                           0.019699 (Hartree/Particle)
 Thermal correction to Energy=                    0.023353
 Thermal correction to Enthalpy=                  0.024297
 Thermal correction to Gibbs Free Energy=        -0.003646
 Sum of electronic and zero-point Energies=           -151.964160
 Sum of electronic and thermal Energies=              -151.960507
 Sum of electronic and thermal Enthalpies=            -151.959562
 Sum of electronic and thermal Free Energies=         -151.987505

                     E (Thermal)             CV                S
                      KCal/Mol        Cal/Mol-Kelvin    Cal/Mol-Kelvin
 Total                   14.654              9.827             58.811
 Electronic               0.000              0.000              0.000
 Translational            0.889              2.981             37.061
 Rotational               0.889              2.981             19.105
 Vibrational             12.877              3.865              2.645
 Vibration     1          0.697              1.661              1.381
 Vibration     2          0.738              1.545              1.102

 Optimization completed.
    -- Stationary point found.
 Normal termination of Gaussian 09 at Fri Mar  8 03:47:26 2019.
