 Gaussian 09, Revision E.01,
 Gaussian 09:  EM64L-G09RevE.01 30-Nov-2015

 ------------------------------------------------------
 #p b3lyp/6-311++G(3df,2p) freq IOp(2/17=3) IOp(2/18=3)
 ------------------------------------------------------

 ---------
 b3lyp opt
 ---------
 Symbolic Z-matrix:
 Charge = -1 Multiplicity = 3

                         Standard orientation:
 ---------------------------------------------------------------------
 Center     Atomic      Atomic             Coordinates (Angstroms)
 Number     Number       Type             X           Y           Z
 ---------------------------------------------------------------------
      1          6           0       -0.539992   -0.377293   -0.000000
      2          6           0       -0.000000    0.825134   -0.000000
      3          6           0        0.436448    2.036962    0.000000
      4          1           0        0.926749   -1.595159    0.000000
      5          8           0       -0.038185   -1.664207    0.000000
 ---------------------------------------------------------------------

 SCF Done:  E(UB3LYP) =  -190.030833180     A.U. after   18 cycles

 The electronic state is 3-A".
 Alpha  occ. eigenvalues --  -19.00358 -10.04425  -9.95850  -9.95373  -0.89769
 Alpha  occ. eigenvalues --   -0.56621  -0.47029  -0.39760  -0.26613  -0.23963
 Alpha  occ. eigenvalues --   -0.12823  -0.10592  -0.07439  -0.03019   0.02990
 Alpha virt. eigenvalues --    0.11163   0.16343   0.18635   0.19483   0.19723
 Alpha virt. eigenvalues --    0.20692   0.21878   0.23438   0.24136   0.26091
 Alpha virt. eigenvalues --    0.27119   0.28599   0.29464   0.32787   0.33630

  Beta  occ. eigenvalues --  -18.99956 -10.02405  -9.95645  -9.94652  -0.88658
  Beta  occ. eigenvalues --   -0.54730  -0.43756  -0.38000  -0.25776  -0.21252
  Beta  occ. eigenvalues --   -0.08607  -0.07725  -0.05309
  Beta virt. eigenvalues --    0.08226   0.12226   0.14629   0.16675   0.18802
  Beta virt. eigenvalues --    0.19646   0.20145   0.21283   0.22147   0.24550
  Beta virt. eigenvalues --    0.24720   0.26807   0.27743   0.29553   0.31016

 Mulliken charges and spin densities:
               1          2
     1  C   -0.590926   1.403209
     2  C    0.867394  -0.498845
     3  C   -0.905441   0.998114
     4  H    0.195713   0.102965
     5  O   -0.566740  -0.005442
 Sum of Mulliken charges =  -1.00000   2.00000

 Dipole moment (field-independent basis, Debye):
    X=              0.3713    Y=             -6.1838    Z=              0.0000  Tot=              6.1949
 Quadrupole moment (field-independent basis, Debye-Ang):
   XX=            -28.2263   YY=            -49.0368   ZZ=            -28.7891
   XY=             -7.2944   XZ=             -0.0000   YZ=             -0.0000

  Exact polarizability:  56.949  11.128  98.677  -0.002  -0.006  44.051
 Approx polarizability:  78.013  24.774 146.292   0.000   0.000  55.674

                      1                      2                      3
                     A"                     A'                     A"
 Frequencies --     38.6748               207.7684               381.8532
 Red. masses --      1.4142                 7.2999                10.5353
 Frc consts  --      0.0012                 0.1857                 0.9051
 IR Inten    --     60.6000                25.9870                 7.9506

                      4                      5                      6
                     A'                     A'                     A'
 Frequencies --    537.7653               845.0391              1229.9699
 Red. masses --      5.9109                10.3351                 1.2415
 Frc consts  --      1.0071                 4.3483                 1.1066
 IR Inten    --     16.9951               118.7420                15.7967

                      7                      8                      9
                     A'                     A'                     A'
 Frequencies --   1325.8049              1713.1943              3690.4876
 Red. masses --     11.7285                11.8476                 1.0647
 Frc consts  --     12.1465                20.4878                 8.5434
 IR Inten    --     99.9247               130.1169                35.3276

 - Thermochemistry -
 -------------------
 Temperature   298.150 Kelvin.  Pressure   1.00000 Atm.
 Atom     1 has atomic number  6 and mass  12.00000

 Molecular mass:    53.00274 amu.
 Principal axes and moments of inertia in atomic units:
                           1         2         3
     Eigenvalues --    18.12526 385.91484 404.04010
           X            0.12395   0.99229   0.00000
           Y            0.99229  -0.12395   0.00000
           Z           -0.00000   0.00000   1.00000
 This molecule is an asymmetric top.
 Rotational symmetry number  1.
 Rotational temperatures (Kelvin)      4.77862     0.22444     0.21437
 Rotational constants (GHZ):          99.57050     4.67653     4.46674
 Zero-point vibrational energy      59637.2 (Joules/Mol)
                                   14.25363 (Kcal/Mol)
 Warning -- explicit consideration of   4 degrees of freedom as
           vibrations may cause significant error
 Vibrational temperatures:     55.64   298.93   549.40   773.72  1215.82
          (Kelvin)           1769.65  1907.54  2464.90  5309.78

 Zero-point correction=                           0.022715 (Hartree/Particle)
 Thermal correction to Energy=                    0.027573
 Thermal correction to Enthalpy=                  0.028517
 Thermal correction to Gibbs Free Energy=        -0.005598
 Sum of electronic and zero-point Energies=           -190.008119
 Sum of electronic and thermal Energies=              -190.003260
 Sum of electronic and thermal Enthalpies=            -190.002316
 Sum of electronic and thermal Free Energies=         -190.036431

                     E (Thermal)             CV                S
                      KCal/Mol        Cal/Mol-Kelvin    Cal/Mol-Kelvin
 Total                   17.302             13.384             71.802
 Electronic               0.000              0.000              2.183
 Translational            0.889              2.981             37.826
 Rotational               0.889              2.981             22.562
 Vibrational             15.525              7.422              9.230
 Vibration     1          0.594              1.981              5.326
 Vibration     2          0.641              1.829              2.063
 Vibration     3          0.751              1.509              1.032
 Vibration     4          0.893              1.167              0.570

 Optimization completed.
    -- Stationary point found.
 Normal termination of Gaussian 09 at Fri Mar  8 04:41:24 2019.
