 Gaussian 09, Revision E.01,
 Gaussian 09:  EM64L-G09RevE.01 30-Nov-2015

 ------------------------------------------------------
 #p b3lyp/6-311++G(3df,2p) freq IOp(2/17=3) IOp(2/18=3)
 ------------------------------------------------------

 ---------
 b3lyp opt
 ---------
 Symbolic Z-matrix:
 Charge = -1 Multiplicity = 1

                         Standard orientation:
 ---------------------------------------------------------------------
 Center     Atomic      Atomic             Coordinates (Angstroms)
 Number     Number       Type             X           Y           Z
 ---------------------------------------------------------------------
      1          6           0       -0.752345    0.391583   -0.000000
      2          6           0       -0.005236   -0.766437    0.000000
      3          6           0        0.598963   -1.868010    0.000000
      4          1           0        0.951707    1.283769    0.000000
      5          8           0        0.000000    1.521677   -0.000000
 ---------------------------------------------------------------------

 SCF Done:  E(RB3LYP) =  -190.069932772     A.U. after   14 cycles

 The electronic state is 1-A'.
 Alpha  occ. eigenvalues --  -19.01017 -10.05246  -9.97109  -9.94767  -0.90464
 Alpha  occ. eigenvalues --   -0.56130  -0.46955  -0.38864  -0.25332  -0.23669
 Alpha  occ. eigenvalues --   -0.10220  -0.09375  -0.07698  -0.02917
 Alpha virt. eigenvalues --    0.10680   0.11911   0.17043   0.18231   0.19394
 Alpha virt. eigenvalues --    0.19983   0.20510   0.22116   0.23554   0.23698
 Alpha virt. eigenvalues --    0.26439   0.26480   0.29502   0.29926   0.32600

 Mulliken charges:
               1
     1  C   -0.651702
     2  C    0.844713
     3  C   -0.888659
     4  H    0.128140
     5  O   -0.432493
 Sum of Mulliken charges =  -1.00000

 Dipole moment (field-independent basis, Debye):
    X=              1.0053    Y=              4.4435    Z=              0.0000  Tot=              4.5558
 Quadrupole moment (field-independent basis, Debye-Ang):
   XX=            -33.3382   YY=            -44.9461   ZZ=            -27.2738
   XY=              7.6892   XZ=             -0.0000   YZ=              0.0000

  Exact polarizability:  68.365  -8.590  90.109   0.007  -0.022  43.619
 Approx polarizability:  92.994 -19.204 143.273  -0.000  -0.000  60.466

                      1                      2                      3
                     A'                     A"                     A'
 Frequencies --    215.9098               247.0322               634.9011
 Red. masses --      7.4181                 7.0582                 5.9687
 Frc consts  --      0.2037                 0.2538                 1.4176
 IR Inten    --     14.6408                41.8826                 2.8508

                      4                      5                      6
                     A"                     A'                     A'
 Frequencies --    788.7068               945.7121              1151.3955
 Red. masses --      1.3266                 7.8374                 8.6910
 Frc consts  --      0.4862                 4.1299                 6.7884
 IR Inten    --     59.3697                22.9392               217.4119

                      7                      8                      9
                     A'                     A'                     A'
 Frequencies --   1340.3578              1976.1748              3440.4091
 Red. masses --      1.3283                12.0005                 1.0635
 Frc consts  --      1.4060                27.6122                 7.4169
 IR Inten    --     81.8798               274.3131               195.7989

 - Thermochemistry -
 -------------------
 Temperature   298.150 Kelvin.  Pressure   1.00000 Atm.
 Atom     1 has atomic number  6 and mass  12.00000

 Molecular mass:    53.00274 amu.
 Principal axes and moments of inertia in atomic units:
                           1         2         3
     Eigenvalues --    31.88858 330.29807 362.18665
           X           -0.19149   0.98150   0.00000
           Y            0.98150   0.19149   0.00000
           Z            0.00000   0.00000   1.00000
 This molecule is an asymmetric top.
 Rotational symmetry number  1.
 Rotational temperatures (Kelvin)      2.71614     0.26223     0.23914
 Rotational constants (GHZ):          56.59522     5.46398     4.98290
 Zero-point vibrational energy      64243.0 (Joules/Mol)
                                   15.35446 (Kcal/Mol)
 Warning -- explicit consideration of   2 degrees of freedom as
           vibrations may cause significant error
 Vibrational temperatures:    310.65   355.42   913.48  1134.77  1360.67
          (Kelvin)           1656.60  1928.47  2843.27  4949.98

 Zero-point correction=                           0.024469 (Hartree/Particle)
 Thermal correction to Energy=                    0.028628
 Thermal correction to Enthalpy=                  0.029572
 Thermal correction to Gibbs Free Energy=        -0.001422
 Sum of electronic and zero-point Energies=           -190.045464
 Sum of electronic and thermal Energies=              -190.041305
 Sum of electronic and thermal Enthalpies=            -190.040361
 Sum of electronic and thermal Free Energies=         -190.071355

                     E (Thermal)             CV                S
                      KCal/Mol        Cal/Mol-Kelvin    Cal/Mol-Kelvin
 Total                   17.964             11.996             65.232
 Electronic               0.000              0.000              0.000
 Translational            0.889              2.981             37.826
 Rotational               0.889              2.981             22.860
 Vibrational             16.187              6.035              4.546
 Vibration     1          0.645              1.817              1.993
 Vibration     2          0.661              1.768              1.752

 Optimization completed.
    -- Stationary point found.
 Normal termination of Gaussian 09 at Fri Mar  8 04:19:50 2019.
