 Gaussian 09, Revision E.01,
 Gaussian 09:  EM64L-G09RevE.01 30-Nov-2015

 ------------------------------------------------------
 #p b3lyp/6-311++G(3df,2p) freq IOp(2/17=3) IOp(2/18=3)
 ------------------------------------------------------

 ---------
 b3lyp opt
 ---------
 Symbolic Z-matrix:
 Charge = -1 Multiplicity = 3

                         Standard orientation:
 ---------------------------------------------------------------------
 Center     Atomic      Atomic             Coordinates (Angstroms)
 Number     Number       Type             X           Y           Z
 ---------------------------------------------------------------------
      1          6           0        0.035544   -0.651665   -0.000000
      2          6           0        0.004161    0.620186    0.000000
      3          6           0       -0.126998   -1.955529   -0.000000
      4          1           0        0.523758   -2.816909   -0.000000
      5          8           0        0.000000    1.842369    0.000000
 ---------------------------------------------------------------------

 SCF Done:  E(UB3LYP) =  -190.111174148     A.U. after   17 cycles

 The electronic state is 3-A".
 Alpha  occ. eigenvalues --  -18.93967 -10.03562  -9.97669  -9.96944  -0.85178
 Alpha  occ. eigenvalues --   -0.57440  -0.47061  -0.29703  -0.27292  -0.22354
 Alpha  occ. eigenvalues --   -0.22163  -0.10876  -0.10202   0.01942   0.04354
 Alpha virt. eigenvalues --    0.12319   0.15729   0.18638   0.19298   0.19486
 Alpha virt. eigenvalues --    0.20622   0.22903   0.24979   0.25589   0.27640
 Alpha virt. eigenvalues --    0.27957   0.29286   0.33133   0.33776   0.35071

  Beta  occ. eigenvalues --  -18.93009 -10.02690  -9.97068  -9.96032  -0.83382
  Beta  occ. eigenvalues --   -0.55334  -0.43466  -0.28065  -0.26002  -0.19052
  Beta  occ. eigenvalues --   -0.19013  -0.06640  -0.06607
  Beta virt. eigenvalues --    0.12047   0.12454   0.14355   0.15819   0.19372
  Beta virt. eigenvalues --    0.19529   0.19975   0.20741   0.23820   0.25458
  Beta virt. eigenvalues --    0.26106   0.27842   0.28041   0.31258   0.33173

 Mulliken charges and spin densities:
               1          2
     1  C    0.604209  -0.144787
     2  C   -0.214199   0.448697
     3  C   -0.728149   1.389926
     4  H    0.144156   0.012220
     5  O   -0.806016   0.293944
 Sum of Mulliken charges =  -1.00000   2.00000

 Dipole moment (field-independent basis, Debye):
    X=              0.8761    Y=              0.8283    Z=              0.0000  Tot=              1.2056
 Quadrupole moment (field-independent basis, Debye-Ang):
   XX=            -27.3717   YY=            -43.6440   ZZ=            -27.9391
   XY=             -2.7524   XZ=             -0.0000   YZ=             -0.0000

  Exact polarizability:  42.006   6.265 113.030   0.000   0.000  44.289
 Approx polarizability:  52.691   9.346 185.515  -0.000   0.000  53.220

                      1                      2                      3
                     A"                     A'                     A"
 Frequencies --    247.6224               251.0762               332.1222
 Red. masses --      5.5676                 4.9702                 5.4561
 Frc consts  --      0.2011                 0.1846                 0.3546
 IR Inten    --      0.0901                 1.9429                 5.9164

                      4                      5                      6
                     A'                     A'                     A'
 Frequencies --    439.4645               760.8776               925.2494
 Red. masses --     11.1101                 1.2665                10.3840
 Frc consts  --      1.2642                 0.4320                 5.2376
 IR Inten    --      6.3649               110.6186                20.2263

                      7                      8                      9
                     A'                     A'                     A'
 Frequencies --   1534.2019              2128.0934              3169.2700
 Red. masses --      9.1819                11.9439                 1.0979
 Frc consts  --     12.7336                31.8696                 6.4974
 IR Inten    --    250.1528               831.6171                72.3866

 - Thermochemistry -
 -------------------
 Temperature   298.150 Kelvin.  Pressure   1.00000 Atm.
 Atom     1 has atomic number  6 and mass  12.00000

 Molecular mass:    53.00274 amu.
 Principal axes and moments of inertia in atomic units:
                           1         2         3
     Eigenvalues --     1.66574 420.51838 422.18412
           X            0.01086   0.99994   0.00000
           Y            0.99994  -0.01086  -0.00000
           Z            0.00000  -0.00000   1.00000
 This molecule is an asymmetric top.
 Rotational symmetry number  1.
 Rotational temperatures (Kelvin)     51.99720     0.20597     0.20516
 Rotational constants (GHZ):        1083.44705     4.29171     4.27477
 Zero-point vibrational energy      58545.1 (Joules/Mol)
                                   13.99262 (Kcal/Mol)
 Warning -- explicit consideration of   4 degrees of freedom as
           vibrations may cause significant error
 Vibrational temperatures:    356.27   361.24   477.85   632.29  1094.73
          (Kelvin)           1331.23  2207.37  3061.85  4559.87

 Zero-point correction=                           0.022299 (Hartree/Particle)
 Thermal correction to Energy=                    0.026905
 Thermal correction to Enthalpy=                  0.027849
 Thermal correction to Gibbs Free Energy=        -0.003632
 Sum of electronic and zero-point Energies=           -190.088875
 Sum of electronic and thermal Energies=              -190.084270
 Sum of electronic and thermal Enthalpies=            -190.083325
 Sum of electronic and thermal Free Energies=         -190.114806

                     E (Thermal)             CV                S
                      KCal/Mol        Cal/Mol-Kelvin    Cal/Mol-Kelvin
 Total                   16.883             13.742             66.256
 Electronic               0.000              0.000              2.183
 Translational            0.889              2.981             37.826
 Rotational               0.889              2.981             20.320
 Vibrational             15.105              7.781              5.927
 Vibration     1          0.661              1.767              1.747
 Vibration     2          0.663              1.761              1.723
 Vibration     3          0.714              1.611              1.250
 Vibration     4          0.799              1.384              0.828

 Optimization completed.
    -- Stationary point found.
 Normal termination of Gaussian 09 at Fri Mar  8 04:30:25 2019.
