 Gaussian 09, Revision E.01,
 Gaussian 09:  EM64L-G09RevE.01 30-Nov-2015

 ------------------------------------------------------
 #p b3lyp/6-311++G(3df,2p) freq IOp(2/17=3) IOp(2/18=3)
 ------------------------------------------------------

 ---------
 b3lyp opt
 ---------
 Symbolic Z-matrix:
 Charge = -1 Multiplicity = 1

                         Standard orientation:
 ---------------------------------------------------------------------
 Center     Atomic      Atomic             Coordinates (Angstroms)
 Number     Number       Type             X           Y           Z
 ---------------------------------------------------------------------
      1          6           0       -0.386080   -0.571124    0.000000
      2          6           0        0.194974    2.012027   -0.000000
      3          6           0       -0.000000    0.780501   -0.000000
      4          1           0       -1.489748   -0.727878   -0.000000
      5          8           0        0.329548   -1.575068    0.000000
 ---------------------------------------------------------------------

 SCF Done:  E(RB3LYP) =  -190.143780456     A.U. after   14 cycles

 The electronic state is 1-A'.
 Alpha  occ. eigenvalues --  -18.94157 -10.09156  -9.96055  -9.94632  -0.86166
 Alpha  occ. eigenvalues --   -0.55958  -0.45485  -0.33371  -0.27504  -0.22451
 Alpha  occ. eigenvalues --   -0.10149  -0.07896  -0.06877  -0.06623
 Alpha virt. eigenvalues --    0.11712   0.12182   0.17183   0.18095   0.18695
 Alpha virt. eigenvalues --    0.19918   0.20547   0.23204   0.23580   0.25409
 Alpha virt. eigenvalues --    0.25720   0.26956   0.29308   0.31364   0.33035

 Mulliken charges:
               1
     1  C   -0.144266
     2  C   -0.939901
     3  C    0.719408
     4  H    0.054163
     5  O   -0.689404
 Sum of Mulliken charges =  -1.00000

 Dipole moment (field-independent basis, Debye):
    X=             -2.0261    Y=             -4.1819    Z=              0.0000  Tot=              4.6469
 Quadrupole moment (field-independent basis, Debye-Ang):
   XX=            -27.6762   YY=            -50.4267   ZZ=            -26.3377
   XY=              0.0673   XZ=             -0.0000   YZ=              0.0000

  Exact polarizability:  46.126   3.626  84.858   0.000   0.000  37.169
 Approx polarizability:  62.772   2.672 140.227   0.000  -0.000  51.086

                      1                      2                      3
                     A'                     A"                     A'
 Frequencies --    219.9325               232.1697               637.8384
 Red. masses --      9.0737                 6.4472                11.6413
 Frc consts  --      0.2586                 0.2048                 2.7904
 IR Inten    --      7.3723                 1.7177                 8.9900

                      4                      5                      6
                     A"                     A'                     A'
 Frequencies --   1004.6665              1010.1565              1398.2082
 Red. masses --      1.7990                 5.6585                 1.2117
 Frc consts  --      1.0698                 3.4020                 1.3957
 IR Inten    --      1.7793                96.3759                10.5778

                      7                      8                      9
                     A'                     A'                     A'
 Frequencies --   1642.1036              2046.1041              2784.4162
 Red. masses --      9.1577                11.9478                 1.0752
 Frc consts  --     14.5491                29.4710                 4.9113
 IR Inten    --    528.5474               430.5924               239.2884

 - Thermochemistry -
 -------------------
 Temperature   298.150 Kelvin.  Pressure   1.00000 Atm.
 Atom     1 has atomic number  6 and mass  12.00000

 Molecular mass:    53.00274 amu.
 Principal axes and moments of inertia in atomic units:
                           1         2         3
     Eigenvalues --    22.05984 357.13611 379.19595
           X            0.00132   1.00000  -0.00000
           Y            1.00000  -0.00132   0.00000
           Z           -0.00000   0.00000   1.00000
 This molecule is an asymmetric top.
 Rotational symmetry number  1.
 Rotational temperatures (Kelvin)      3.92631     0.24252     0.22841
 Rotational constants (GHZ):          81.81116     5.05337     4.75939
 Zero-point vibrational energy      65648.6 (Joules/Mol)
                                   15.69040 (Kcal/Mol)
 Warning -- explicit consideration of   2 degrees of freedom as
           vibrations may cause significant error
 Vibrational temperatures:    316.43   334.04   917.71  1445.49  1453.39
          (Kelvin)           2011.71  2362.62  2943.88  4006.15

 Zero-point correction=                           0.025004 (Hartree/Particle)
 Thermal correction to Energy=                    0.029102
 Thermal correction to Enthalpy=                  0.030046
 Thermal correction to Gibbs Free Energy=        -0.000772
 Sum of electronic and zero-point Energies=           -190.118776
 Sum of electronic and thermal Energies=              -190.114679
 Sum of electronic and thermal Enthalpies=            -190.113735
 Sum of electronic and thermal Free Energies=         -190.144552

                     E (Thermal)             CV                S
                      KCal/Mol        Cal/Mol-Kelvin    Cal/Mol-Kelvin
 Total                   18.262             11.417             64.861
 Electronic               0.000              0.000              0.000
 Translational            0.889              2.981             37.826
 Rotational               0.889              2.981             22.617
 Vibrational             16.484              5.456              4.418
 Vibration     1          0.647              1.811              1.960
 Vibration     2          0.653              1.792              1.862

 Normal termination of Gaussian 09 at Fri Mar  8 04:11:08 2019.
