 Gaussian 09, Revision E.01,
 Gaussian 09:  EM64L-G09RevE.01 30-Nov-2015

 ------------------------------------------------------
 #p b3lyp/6-311++G(3df,2p) freq IOp(2/17=3) IOp(2/18=3)
 ------------------------------------------------------

 ---------
 b3lyp opt
 ---------
 Symbolic Z-matrix:
 Charge = -1 Multiplicity = 1

                         Standard orientation:
 ---------------------------------------------------------------------
 Center     Atomic      Atomic             Coordinates (Angstroms)
 Number     Number       Type             X           Y           Z
 ---------------------------------------------------------------------
      1          6           0       -0.000000    0.772677   -0.000000
      2          6           0       -0.663576   -0.428721    0.000000
      3          6           0       -1.448345   -1.410990    0.000000
      4          1           0        1.722104    1.504222   -0.000000
      5          8           0        1.368677    0.612249   -0.000000
 ---------------------------------------------------------------------

 SCF Done:  E(RB3LYP) =  -190.065786262     A.U. after   15 cycles

 The electronic state is 1-A'.
 Alpha  occ. eigenvalues --  -19.00814 -10.04926  -9.96273  -9.94020  -0.90217
 Alpha  occ. eigenvalues --   -0.56380  -0.46938  -0.33512  -0.29246  -0.23220
 Alpha  occ. eigenvalues --   -0.10018  -0.08783  -0.06965  -0.01985
 Alpha virt. eigenvalues --    0.10400   0.10957   0.17488   0.18512   0.19100
 Alpha virt. eigenvalues --    0.19840   0.21017   0.21273   0.23587   0.25907
 Alpha virt. eigenvalues --    0.26904   0.26983   0.28976   0.30416   0.32501

 Mulliken charges:
               1
     1  C   -0.419197
     2  C    0.761967
     3  C   -1.182357
     4  H    0.231342
     5  O   -0.391755
 Sum of Mulliken charges =  -1.00000

 Dipole moment (field-independent basis, Debye):
    X=              5.1223    Y=              3.6481    Z=             -0.0000  Tot=              6.2886
 Quadrupole moment (field-independent basis, Debye-Ang):
   XX=            -36.1042   YY=            -38.4940   ZZ=            -27.4376
   XY=             -4.3748   XZ=              0.0000   YZ=              0.0000

  Exact polarizability:  75.154  27.646  85.839   0.000   0.000  45.522
 Approx polarizability: 111.431  51.573 124.500  -0.000   0.000  62.100

                      1                      2                      3
                     A'                     A"                     A'
 Frequencies --    241.3415               247.2110               607.9079
 Red. masses --      8.8284                 5.9123                 9.7167
 Frc consts  --      0.3030                 0.2129                 2.1156
 IR Inten    --      2.2773                 3.0345                 5.7110

                      4                      5                      6
                     A"                     A'                     A'
 Frequencies --    698.7242               967.8542              1103.7915
 Red. masses --      1.1970                 5.5782                 4.5917
 Frc consts  --      0.3443                 3.0787                 3.2961
 IR Inten    --     59.3558                21.3077               468.6154

                      7                      8                      9
                     A'                     A'                     A'
 Frequencies --   1333.3121              1977.9821              3837.3616
 Red. masses --      1.5084                11.9913                 1.0661
 Frc consts  --      1.5799                27.6414                 9.2490
 IR Inten    --     27.0615               323.7026                70.1952

 - Thermochemistry -
 -------------------
 Temperature   298.150 Kelvin.  Pressure   1.00000 Atm.
 Atom     1 has atomic number  6 and mass  12.00000

 Molecular mass:    53.00274 amu.
 Principal axes and moments of inertia in atomic units:
                           1         2         3
     Eigenvalues --    25.64413 348.77200 374.41613
           X            0.78790  -0.61581   0.00000
           Y            0.61581   0.78790   0.00000
           Z           -0.00000   0.00000   1.00000
 This molecule is an asymmetric top.
 Rotational symmetry number  1.
 Rotational temperatures (Kelvin)      3.37753     0.24834     0.23133
 Rotational constants (GHZ):          70.37639     5.17456     4.82015
 Zero-point vibrational energy      65887.2 (Joules/Mol)
                                   15.74743 (Kcal/Mol)
 Warning -- explicit consideration of   3 degrees of freedom as
           vibrations may cause significant error
 Vibrational temperatures:    347.24   355.68   874.64  1005.31  1392.52
          (Kelvin)           1588.11  1918.34  2845.87  5521.10

 Zero-point correction=                           0.025095 (Hartree/Particle)
 Thermal correction to Energy=                    0.029262
 Thermal correction to Enthalpy=                  0.030207
 Thermal correction to Gibbs Free Energy=        -0.000695
 Sum of electronic and zero-point Energies=           -190.040691
 Sum of electronic and thermal Energies=              -190.036524
 Sum of electronic and thermal Enthalpies=            -190.035580
 Sum of electronic and thermal Free Energies=         -190.066481

                     E (Thermal)             CV                S
                      KCal/Mol        Cal/Mol-Kelvin    Cal/Mol-Kelvin
 Total                   18.362             12.189             65.037
 Electronic               0.000              0.000              0.000
 Translational            0.889              2.981             37.826
 Rotational               0.889              2.981             22.731
 Vibrational             16.585              6.227              4.480
 Vibration     1          0.658              1.777              1.793
 Vibration     2          0.661              1.767              1.750
 Vibration     3          0.967              1.015              0.436

 Normal termination of Gaussian 09 at Fri Mar  8 04:19:50 2019.
