 Gaussian 09, Revision E.01,
 Gaussian 09:  EM64L-G09RevE.01 30-Nov-2015

 ------------------------------------------------------
 #p b3lyp/6-311++G(3df,2p) freq IOp(2/17=3) IOp(2/18=3)
 ------------------------------------------------------

 ---------
 b3lyp opt
 ---------
 Symbolic Z-matrix:
 Charge = -1 Multiplicity = 3

                         Standard orientation:
 ---------------------------------------------------------------------
 Center     Atomic      Atomic             Coordinates (Angstroms)
 Number     Number       Type             X           Y           Z
 ---------------------------------------------------------------------
      1          6           0        0.000000    0.803581   -0.000000
      2          6           0       -1.073794    1.630122   -0.000000
      3          6           0       -0.089840   -0.629414    0.000000
      4          1           0        1.048010    1.177430    0.000000
      5          8           0        0.741724   -1.500396    0.000000
 ---------------------------------------------------------------------

 SCF Done:  E(UB3LYP) =  -190.065813466     A.U. after   16 cycles

 The electronic state is 3-A'.
 Alpha  occ. eigenvalues --  -18.97598 -10.07419  -9.98197  -9.97837  -0.89546
 Alpha  occ. eigenvalues --   -0.58515  -0.41357  -0.32713  -0.28650  -0.24104
 Alpha  occ. eigenvalues --   -0.23106  -0.08817  -0.08421  -0.01603   0.01298
 Alpha virt. eigenvalues --    0.12774   0.12914   0.16219   0.18577   0.19511
 Alpha virt. eigenvalues --    0.20944   0.21514   0.22774   0.23462   0.24088
 Alpha virt. eigenvalues --    0.26201   0.26812   0.27732   0.29824   0.29912

  Beta  occ. eigenvalues --  -18.96829 -10.06238  -9.98100  -9.96519  -0.87965
  Beta  occ. eigenvalues --   -0.56485  -0.38148  -0.29989  -0.26627  -0.23342
  Beta  occ. eigenvalues --   -0.18546  -0.08314  -0.06074
  Beta virt. eigenvalues --    0.10729   0.13818   0.14378   0.14551   0.16622
  Beta virt. eigenvalues --    0.18974   0.19621   0.21228   0.21826   0.23615
  Beta virt. eigenvalues --    0.24372   0.24902   0.26422   0.27076   0.28010

 Mulliken charges and spin densities:
               1          2
     1  C    0.187864  -0.398343
     2  C   -0.752291   1.135498
     3  C    0.145681   0.893963
     4  H   -0.023236   0.181806
     5  O   -0.558018   0.187076
 Sum of Mulliken charges =  -1.00000   2.00000

 Dipole moment (field-independent basis, Debye):
    X=              3.0246    Y=             -2.7711    Z=              0.0000  Tot=              4.1021
 Quadrupole moment (field-independent basis, Debye-Ang):
   XX=            -35.6756   YY=            -43.5231   ZZ=            -27.1406
   XY=              9.5459   XZ=             -0.0000   YZ=              0.0000

  Exact polarizability:  75.987  -8.780  76.984   0.000   0.000  42.171
 Approx polarizability:  97.147 -19.777 104.648   0.000  -0.000  57.240

                      1                      2                      3
                     A"                     A'                     A'
 Frequencies --    173.5851               354.0711               554.1582
 Red. masses --     12.7405                 7.7548                 8.1940
 Frc consts  --      0.2262                 0.5728                 1.4826
 IR Inten    --     11.6962                24.2534                 2.1176

                      4                      5                      6
                     A"                     A'                     A'
 Frequencies --    733.1550              1005.9464              1172.1371
 Red. masses --      1.5940                10.1924                 1.1734
 Frc consts  --      0.5048                 6.0768                 0.9499
 IR Inten    --     15.4540                39.0824                39.7376

                      7                      8                      9
                     A'                     A'                     A'
 Frequencies --   1468.1877              1765.5624              2765.0032
 Red. masses --      8.7464                13.0325                 1.0735
 Frc consts  --     11.1082                23.9355                 4.8357
 IR Inten    --     61.9104               485.8752               319.5812

 - Thermochemistry -
 -------------------
 Temperature   298.150 Kelvin.  Pressure   1.00000 Atm.
 Atom     1 has atomic number  6 and mass  12.00000

 Molecular mass:    53.00274 amu.
 Principal axes and moments of inertia in atomic units:
                           1         2         3
     Eigenvalues --    20.97317 356.09227 377.06544
           X           -0.43731   0.89931  -0.00000
           Y            0.89931   0.43731   0.00000
           Z           -0.00000   0.00000   1.00000
 This molecule is an asymmetric top.
 Rotational symmetry number  1.
 Rotational temperatures (Kelvin)      4.12974     0.24323     0.22970
 Rotational constants (GHZ):          86.05001     5.06818     4.78628
 Zero-point vibrational energy      59764.3 (Joules/Mol)
                                   14.28400 (Kcal/Mol)
 Warning -- explicit consideration of   3 degrees of freedom as
           vibrations may cause significant error
 Vibrational temperatures:    249.75   509.43   797.31  1054.85  1447.33
          (Kelvin)           1686.44  2112.39  2540.25  3978.22

 Zero-point correction=                           0.022763 (Hartree/Particle)
 Thermal correction to Energy=                    0.026905
 Thermal correction to Enthalpy=                  0.027849
 Thermal correction to Gibbs Free Energy=        -0.004019
 Sum of electronic and zero-point Energies=           -190.043050
 Sum of electronic and thermal Energies=              -190.038909
 Sum of electronic and thermal Enthalpies=            -190.037965
 Sum of electronic and thermal Free Energies=         -190.069833

                     E (Thermal)             CV                S
                      KCal/Mol        Cal/Mol-Kelvin    Cal/Mol-Kelvin
 Total                   16.883             12.009             67.072
 Electronic               0.000              0.000              2.183
 Translational            0.889              2.981             37.826
 Rotational               0.889              2.981             22.559
 Vibrational             15.105              6.047              4.504
 Vibration     1          0.627              1.875              2.396
 Vibration     2          0.730              1.567              1.148
 Vibration     3          0.910              1.131              0.536

 Optimization completed.
    -- Stationary point found.
 Normal termination of Gaussian 09 at Fri Mar  8 04:30:34 2019.
