 Gaussian 09, Revision E.01,
 Gaussian 09:  EM64L-G09RevE.01 30-Nov-2015

 ------------------------------------------------------
 #p b3lyp/6-311++G(3df,2p) freq IOp(2/17=3) IOp(2/18=3)
 ------------------------------------------------------

 ---------
 b3lyp opt
 ---------
 Symbolic Z-matrix:
 Charge = -1 Multiplicity = 1

                         Standard orientation:
 ---------------------------------------------------------------------
 Center     Atomic      Atomic             Coordinates (Angstroms)
 Number     Number       Type             X           Y           Z
 ---------------------------------------------------------------------
      1          6           0        0.892286   -0.670045   -0.000000
      2          6           0       -1.103650    0.220508    0.000000
      3          6           0        0.000000    1.014058    0.000000
      4          6           0        1.319555    0.719883   -0.000000
      5          1           0       -2.165393    0.389467    0.000000
      6          8           0       -0.560470   -1.011987   -0.000000
 ---------------------------------------------------------------------

 SCF Done:  E(RB3LYP) =  -228.093183227     A.U. after   15 cycles

 The electronic state is 1-A'.
 Alpha  occ. eigenvalues --  -18.99361 -10.04028 -10.03758 -10.01234  -9.97371
 Alpha  occ. eigenvalues --   -0.90152  -0.62389  -0.51839  -0.37342  -0.33009
 Alpha  occ. eigenvalues --   -0.30130  -0.25303  -0.19437  -0.10049  -0.09160
 Alpha  occ. eigenvalues --   -0.02104  -0.01704
 Alpha virt. eigenvalues --    0.09579   0.11242   0.16919   0.18038   0.18108
 Alpha virt. eigenvalues --    0.19104   0.20015   0.20048   0.22807   0.23354
 Alpha virt. eigenvalues --    0.23848   0.24117   0.24638   0.25302   0.26423

 Mulliken charges:
               1
     1  C   -0.246927
     2  C    0.017905
     3  C    0.032523
     4  C   -0.409803
     5  H    0.168576
     6  O   -0.562273
 Sum of Mulliken charges =  -1.00000

 Dipole moment (field-independent basis, Debye):
    X=             -4.8122    Y=             -0.0440    Z=              0.0000  Tot=              4.8124
 Quadrupole moment (field-independent basis, Debye-Ang):
   XX=            -42.1315   YY=            -39.2429   ZZ=            -34.5178
   XY=             -2.6168   XZ=              0.0000   YZ=             -0.0000

  Exact polarizability:  85.640  -2.989  82.827   0.000   0.000  50.538
 Approx polarizability: 145.798 -25.395 194.498  -0.000   0.000  69.597

                      1                      2                      3
                     A'                     A"                     A"
 Frequencies --    381.1719               444.8103               485.0977
 Red. masses --     11.0467                 5.6067                 1.5645
 Frc consts  --      0.9456                 0.6536                 0.2169
 IR Inten    --    233.9861                 1.3042                61.0953

                      4                      5                      6
                     A'                     A"                     A'
 Frequencies --    541.5914               637.4662               729.5093
 Red. masses --     10.3810                 4.4317                11.2299
 Frc consts  --      1.7941                 1.0611                 3.5212
 IR Inten    --     19.4108                 3.6913                63.7025

                      7                      8                      9
                     A'                     A'                     A'
 Frequencies --    840.0276              1095.9109              1183.3032
 Red. masses --      9.0799                 1.8991                 8.3505
 Frc consts  --      3.7750                 1.3439                 6.8890
 IR Inten    --     14.8686                32.0830                 3.0727

                     10                     11                     12
                     A'                     A'                     A'
 Frequencies --   1341.7941              1563.9127              3233.8151
 Red. masses --      2.3996                 9.9104                 1.0925
 Frc consts  --      2.5455                14.2813                 6.7316
 IR Inten    --     50.4422                70.8589                23.5268

 - Thermochemistry -
 -------------------
 Temperature   298.150 Kelvin.  Pressure   1.00000 Atm.
 Atom     1 has atomic number  6 and mass  12.00000

 Molecular mass:    65.00274 amu.
 Principal axes and moments of inertia in atomic units:
                           1         2         3
     Eigenvalues --   129.14251 212.98338 342.12589
           X            0.88961  -0.45672   0.00000
           Y            0.45672   0.88961   0.00000
           Z            0.00000  -0.00000   1.00000
 This molecule is an asymmetric top.
 Rotational symmetry number  1.
 Rotational temperatures (Kelvin)      0.67068     0.40667     0.25316
 Rotational constants (GHZ):          13.97480     8.47362     5.27508
 Zero-point vibrational energy      74637.5 (Joules/Mol)
                                   17.83878 (Kcal/Mol)
 Warning -- explicit consideration of   4 degrees of freedom as
           vibrations may cause significant error
 Vibrational temperatures:    548.42   639.98   697.95   779.23   917.17
          (Kelvin)           1049.60  1208.61  1576.77  1702.51  1930.54
                             2250.12  4652.73

 Zero-point correction=                           0.028428 (Hartree/Particle)
 Thermal correction to Energy=                    0.032653
 Thermal correction to Enthalpy=                  0.033597
 Thermal correction to Gibbs Free Energy=         0.002108
 Sum of electronic and zero-point Energies=           -228.064755
 Sum of electronic and thermal Energies=              -228.060530
 Sum of electronic and thermal Enthalpies=            -228.059586
 Sum of electronic and thermal Free Energies=         -228.091075

                     E (Thermal)             CV                S
                      KCal/Mol        Cal/Mol-Kelvin    Cal/Mol-Kelvin
 Total                   20.490             14.288             66.275
 Electronic               0.000              0.000              0.000
 Translational            0.889              2.981             38.434
 Rotational               0.889              2.981             23.758
 Vibrational             18.713              8.326              4.084
 Vibration     1          0.751              1.510              1.035
 Vibration     2          0.804              1.372              0.812
 Vibration     3          0.841              1.283              0.696
 Vibration     4          0.897              1.158              0.562

 Normal termination of Gaussian 09 at Fri Mar  8 05:04:04 2019.
