 Gaussian 09, Revision E.01,
 Gaussian 09:  EM64L-G09RevE.01 30-Nov-2015

 ------------------------------------------------------
 #p b3lyp/6-311++G(3df,2p) freq IOp(2/17=3) IOp(2/18=3)
 ------------------------------------------------------

 ---------
 b3lyp opt
 ---------
 Symbolic Z-matrix:
 Charge = -1 Multiplicity = 1

                         Standard orientation:
 ---------------------------------------------------------------------
 Center     Atomic      Atomic             Coordinates (Angstroms)
 Number     Number       Type             X           Y           Z
 ---------------------------------------------------------------------
      1          6           0       -0.000000    0.000000    1.244165
      2          6           0        0.000000   -0.000000   -1.343982
      3          6           0       -0.000000    0.000000   -0.000498
      4          6           0        0.000000   -0.000000   -2.569483
      5          1           0        0.000000   -0.000000   -3.628144
      6          8           0       -0.000000    0.000000    2.455867
 ---------------------------------------------------------------------

 SCF Done:  E(RB3LYP) =  -228.278344014     A.U. after   15 cycles

 The electronic state is 1-SG.
 Alpha  occ. eigenvalues --  -18.93769 -10.05030 -10.01474  -9.97702  -9.96073
 Alpha  occ. eigenvalues --   -0.85541  -0.59713  -0.53438  -0.41842  -0.33461
 Alpha  occ. eigenvalues --   -0.28144  -0.21964  -0.21964  -0.13995  -0.13995
 Alpha  occ. eigenvalues --   -0.02085  -0.02085
 Alpha virt. eigenvalues --    0.10480   0.15269   0.16389   0.16389   0.17394
 Alpha virt. eigenvalues --    0.19773   0.19773   0.21116   0.21526   0.21526
 Alpha virt. eigenvalues --    0.22663   0.26933   0.27168   0.27168   0.32028

 Mulliken charges:
               1
     1  C   -0.050279
     2  C   -0.804525
     3  C    0.217558
     4  C    0.189290
     5  H    0.271756
     6  O   -0.823800
 Sum of Mulliken charges =  -1.00000

 Dipole moment (field-independent basis, Debye):
    X=              0.0000    Y=             -0.0000    Z=             -1.2091  Tot=              1.2091
 Quadrupole moment (field-independent basis, Debye-Ang):
   XX=            -32.8666   YY=            -32.8666   ZZ=            -52.0699
   XY=              0.0000   XZ=              0.0000   YZ=             -0.0000

  Exact polarizability:  41.841   0.000  41.841   0.000   0.000 141.882
 Approx polarizability:  55.884  -0.000  55.884  -0.000   0.000 286.690

                      1                      2                      3
                     PI                     PI                     PI
 Frequencies --     99.0699                99.0699               351.5876
 Red. masses --      7.4007                 7.4007                 1.2768
 Frc consts  --      0.0428                 0.0428                 0.0930
 IR Inten    --      1.8984                 1.8984                94.2225

                      4                      5                      6
                     PI                     PI                     PI
 Frequencies --    351.5877               508.4841               508.4841
 Red. masses --      1.2768                 5.9480                 5.9480
 Frc consts  --      0.0930                 0.9061                 0.9061
 IR Inten    --     94.2225                 0.0339                 0.0339

                      7                      8                      9
                     PI                     PI                     SG
 Frequencies --    553.8275               553.8275               750.3480
 Red. masses --     12.4873                12.4873                 9.6735
 Frc consts  --      2.2567                 2.2567                 3.2089
 IR Inten    --     12.3349                12.3349                40.5211

                     10                     11                     12
                     SG                     SG                     SG
 Frequencies --   1491.4540              2090.3578              2266.9846
 Red. masses --     10.9422                 7.3041                11.8173
 Frc consts  --     14.3409                18.8043                35.7821
 IR Inten    --    295.4388               103.6570              2875.8732

                     13
                     SG
 Frequencies --   3476.6351
 Red. masses --      1.1370
 Frc consts  --      8.0973
 IR Inten    --    103.1316

 - Thermochemistry -
 -------------------
 Temperature   298.150 Kelvin.  Pressure   1.00000 Atm.
 Atom     1 has atomic number  6 and mass  12.00000

 Molecular mass:    65.00274 amu.
 Principal axes and moments of inertia in atomic units:
                           1         2         3
     Eigenvalues --     0.00000 817.83127 817.83127
           X           -0.00000   0.98640   0.16439
           Y            0.00000  -0.16439   0.98640
           Z            1.00000   0.00000   0.00000
 This molecule is a prolate symmetric top.
 Rotational symmetry number  1.
 Warning -- assumption of classical behavior for rotation
           may cause significant error
 Rotational temperature (Kelvin)      0.10591
 Rotational constant (GHZ):           2.206740
 Zero-point vibrational energy      78365.7 (Joules/Mol)
                                   18.72985 (Kcal/Mol)
 Warning -- explicit consideration of   8 degrees of freedom as
           vibrations may cause significant error
 Vibrational temperatures:    142.54   142.54   505.86   505.86   731.59
          (Kelvin)            731.59   796.83   796.83  1079.58  2145.87
                             3007.55  3261.68  5002.10

 Zero-point correction=                           0.029848 (Hartree/Particle)
 Thermal correction to Energy=                    0.035310
 Thermal correction to Enthalpy=                  0.036254
 Thermal correction to Gibbs Free Energy=         0.003907
 Sum of electronic and zero-point Energies=           -228.248496
 Sum of electronic and thermal Energies=              -228.243034
 Sum of electronic and thermal Enthalpies=            -228.242090
 Sum of electronic and thermal Free Energies=         -228.274437

                     E (Thermal)             CV                S
                      KCal/Mol        Cal/Mol-Kelvin    Cal/Mol-Kelvin
 Total                   22.157             17.562             68.081
 Electronic               0.000              0.000              0.000
 Translational            0.889              2.981             38.434
 Rotational               0.592              1.987             17.771
 Vibrational             20.676             12.594             11.876
 Vibration     1          0.604              1.950              3.473
 Vibration     2          0.604              1.950              3.473
 Vibration     3          0.728              1.572              1.159
 Vibration     4          0.728              1.572              1.159
 Vibration     5          0.864              1.231              0.637
 Vibration     6          0.864              1.231              0.637
 Vibration     7          0.909              1.131              0.536
 Vibration     8          0.909              1.131              0.536

 Optimization completed.
    -- Stationary point found.
 Normal termination of Gaussian 09 at Fri Mar  8 04:44:14 2019.
