 Gaussian 09, Revision E.01,
 Gaussian 09:  EM64L-G09RevE.01 30-Nov-2015

 ------------------------------------------------------
 #p b3lyp/6-311++G(3df,2p) freq IOp(2/17=3) IOp(2/18=3)
 ------------------------------------------------------

 ---------
 b3lyp opt
 ---------
 Symbolic Z-matrix:
 Charge = -1 Multiplicity = 3

                         Standard orientation:
 ---------------------------------------------------------------------
 Center     Atomic      Atomic             Coordinates (Angstroms)
 Number     Number       Type             X           Y           Z
 ---------------------------------------------------------------------
      1          6           0       -0.061656   -0.781956    0.000000
      2          1           0        0.863191    0.953995    0.000000
      3          8           0       -0.061656    0.467218    0.000000
 ---------------------------------------------------------------------

 SCF Done:  E(UB3LYP) =  -113.814916898     A.U. after   20 cycles

 The electronic state is 3-A'.
 Alpha  occ. eigenvalues --  -19.04763 -10.08319  -0.95768  -0.50176  -0.33182
 Alpha  occ. eigenvalues --   -0.27597  -0.20094  -0.01756   0.07559
 Alpha virt. eigenvalues --    0.10640   0.17034   0.18271   0.19957   0.20213
 Alpha virt. eigenvalues --    0.25673   0.31976   0.33268   0.36189   0.40486
 Alpha virt. eigenvalues --    0.47836   0.49493   0.53043   0.57770   0.61820

  Beta  occ. eigenvalues --  -19.04342 -10.06931  -0.94610  -0.47596  -0.30048
  Beta  occ. eigenvalues --   -0.27155  -0.16774
  Beta virt. eigenvalues --    0.11684   0.12196   0.14269   0.17827   0.18873
  Beta virt. eigenvalues --    0.20366   0.22434   0.29102   0.32580   0.33402
  Beta virt. eigenvalues --    0.36829   0.40996   0.49285   0.51215   0.54723

 Mulliken charges and spin densities:
               1          2
     1  C    0.264651   0.514522
     2  H   -1.275597   1.743675
     3  O    0.010946  -0.258198
 Sum of Mulliken charges =  -1.00000   2.00000

 Dipole moment (field-independent basis, Debye):
    X=             -5.0840    Y=             -4.2129    Z=              0.0000  Tot=              6.6027
 Quadrupole moment (field-independent basis, Debye-Ang):
   XX=            -32.3676   YY=            -35.6079   ZZ=            -22.5049
   XY=             -8.4930   XZ=              0.0000   YZ=              0.0000

  Exact polarizability:  84.683  12.506 117.937   0.000   0.000  38.995
 Approx polarizability:  76.598   6.163 104.353  -0.000  -0.000  66.479

                      1                      2                      3
                     A'                     A'                     A'
 Frequencies --   1053.1032              1472.2086              2211.6899
 Red. masses --      1.1989                10.7655                 1.0679
 Frc consts  --      0.7834                13.7474                 3.0779
 IR Inten    --    624.8705               414.1579              2021.1113

 - Thermochemistry -
 -------------------
 Temperature   298.150 Kelvin.  Pressure   1.00000 Atm.
 Atom     1 has atomic number  6 and mass  12.00000

 Molecular mass:    29.00274 amu.
 Principal axes and moments of inertia in atomic units:
                           1         2         3
     Eigenvalues --     2.69582  42.11140  44.80722
           X            0.08362   0.99650   0.00000
           Y            0.99650  -0.08362   0.00000
           Z            0.00000  -0.00000   1.00000
 This molecule is an asymmetric top.
 Rotational symmetry number  1.
 Rotational temperatures (Kelvin)     32.12893     2.05678     1.93303
 Rotational constants (GHZ):         669.45916    42.85635    40.27791
 Zero-point vibrational energy      28333.6 (Joules/Mol)
                                    6.77188 (Kcal/Mol)
 Vibrational temperatures:   1515.18  2118.18  3182.12
          (Kelvin)

 Zero-point correction=                           0.010792 (Hartree/Particle)
 Thermal correction to Energy=                    0.013660
 Thermal correction to Enthalpy=                  0.014604
 Thermal correction to Gibbs Free Energy=        -0.011330
 Sum of electronic and zero-point Energies=           -113.804125
 Sum of electronic and thermal Energies=              -113.801257
 Sum of electronic and thermal Enthalpies=            -113.800313
 Sum of electronic and thermal Free Energies=         -113.826247

                     E (Thermal)             CV                S
                      KCal/Mol        Cal/Mol-Kelvin    Cal/Mol-Kelvin
 Total                    8.572              6.372             54.584
 Electronic               0.000              0.000              2.183
 Translational            0.889              2.981             36.028
 Rotational               0.889              2.981             16.283
 Vibrational              6.794              0.410              0.089

 Optimization completed.
    -- Stationary point found.
 Normal termination of Gaussian 09 at Fri Mar  8 05:26:10 2019.
