 Gaussian 09, Revision E.01,
 Gaussian 09:  EM64L-G09RevE.01 30-Nov-2015

 ------------------------------------------------------
 #p b3lyp/6-311++G(3df,2p) freq IOp(2/17=3) IOp(2/18=3)
 ------------------------------------------------------

 ---------
 b3lyp opt
 ---------
 Symbolic Z-matrix:
 Charge = -1 Multiplicity = 3

                         Standard orientation:
 ---------------------------------------------------------------------
 Center     Atomic      Atomic             Coordinates (Angstroms)
 Number     Number       Type             X           Y           Z
 ---------------------------------------------------------------------
      1          6           0        0.060252   -0.621684    0.000000
      2          1           0       -0.843530   -1.275064    0.000000
      3          8           0        0.060252    0.625646    0.000000
 ---------------------------------------------------------------------

 SCF Done:  E(UB3LYP) =  -113.875080007     A.U. after   15 cycles

 The electronic state is 3-A".
 Alpha  occ. eigenvalues --  -18.89313  -9.98426  -0.79545  -0.35788  -0.22072
 Alpha  occ. eigenvalues --   -0.15987  -0.15421   0.03339   0.10374
 Alpha virt. eigenvalues --    0.13827   0.19258   0.21423   0.22084   0.26086
 Alpha virt. eigenvalues --    0.34308   0.35436   0.38955   0.39999   0.42410
 Alpha virt. eigenvalues --    0.52557   0.56517   0.56597   0.62590   0.64886

  Beta  occ. eigenvalues --  -18.87677  -9.96907  -0.76353  -0.31313  -0.19301
  Beta  occ. eigenvalues --   -0.10768  -0.09812
  Beta virt. eigenvalues --    0.14117   0.15799   0.19193   0.19298   0.23168
  Beta virt. eigenvalues --    0.26981   0.27489   0.35688   0.36174   0.39439
  Beta virt. eigenvalues --    0.40648   0.43073   0.54721   0.57775   0.58861

 Mulliken charges and spin densities:
               1          2
     1  C   -0.615911   1.550428
     2  H    0.077099   0.113865
     3  O   -0.461188   0.335707
 Sum of Mulliken charges =  -1.00000   2.00000

 Dipole moment (field-independent basis, Debye):
    X=             -0.9890    Y=              1.2853    Z=              0.0000  Tot=              1.6218
 Quadrupole moment (field-independent basis, Debye-Ang):
   XX=            -17.2840   YY=            -20.7387   ZZ=            -21.2850
   XY=              0.8740   XZ=              0.0000   YZ=             -0.0000

  Exact polarizability:  40.670   3.401  41.431  -0.000   0.000********
 Approx polarizability:  40.700   4.252  52.878  -0.000  -0.000 121.129

                      1                      2                      3
                     A'                     A'                     A'
 Frequencies --   1027.1785              1444.3672              2698.6354
 Red. masses --      1.2349                11.5881                 1.0800
 Frc consts  --      0.7677                14.2435                 4.6339
 IR Inten    --     17.3193               426.6666               520.8120

 - Thermochemistry -
 -------------------
 Temperature   298.150 Kelvin.  Pressure   1.00000 Atm.
 Atom     1 has atomic number  6 and mass  12.00000

 Molecular mass:    29.00274 amu.
 Principal axes and moments of inertia in atomic units:
                           1         2         3
     Eigenvalues --     2.40143  45.01173  47.41316
           X            0.10117   0.99487   0.00000
           Y            0.99487  -0.10117   0.00000
           Z            0.00000  -0.00000   1.00000
 This molecule is an asymmetric top.
 Rotational symmetry number  1.
 Rotational temperatures (Kelvin)     36.06766     1.92425     1.82679
 Rotational constants (GHZ):         751.52901    40.09491    38.06414
 Zero-point vibrational energy      30924.6 (Joules/Mol)
                                    7.39114 (Kcal/Mol)
 Vibrational temperatures:   1477.88  2078.12  3882.73
          (Kelvin)

 Zero-point correction=                           0.011779 (Hartree/Particle)
 Thermal correction to Energy=                    0.014650
 Thermal correction to Enthalpy=                  0.015595
 Thermal correction to Gibbs Free Energy=        -0.010348
 Sum of electronic and zero-point Energies=           -113.863301
 Sum of electronic and thermal Energies=              -113.860430
 Sum of electronic and thermal Enthalpies=            -113.859485
 Sum of electronic and thermal Free Energies=         -113.885428

                     E (Thermal)             CV                S
                      KCal/Mol        Cal/Mol-Kelvin    Cal/Mol-Kelvin
 Total                    9.193              6.402             54.601
 Electronic               0.000              0.000              2.183
 Translational            0.889              2.981             36.028
 Rotational               0.889              2.981             16.290
 Vibrational              7.416              0.440              0.099

 Optimization completed.
    -- Stationary point found.
 Normal termination of Gaussian 09 at Fri Mar  8 05:25:14 2019.
