 Gaussian 09, Revision E.01,
 Gaussian 09:  EM64L-G09RevE.01 30-Nov-2015

 ------------------------------------------------------
 #p b3lyp/6-311++G(3df,2p) freq IOp(2/17=3) IOp(2/18=3)
 ------------------------------------------------------

 ---------
 b3lyp opt
 ---------
 Symbolic Z-matrix:
 Charge = -1 Multiplicity = 1

                         Standard orientation:
 ---------------------------------------------------------------------
 Center     Atomic      Atomic             Coordinates (Angstroms)
 Number     Number       Type             X           Y           Z
 ---------------------------------------------------------------------
      1          6           0        0.077984   -0.622774    0.000000
      2          1           0       -1.091779   -1.059941    0.000000
      3          8           0        0.077984    0.599573   -0.000000
 ---------------------------------------------------------------------

 SCF Done:  E(RB3LYP) =  -113.910297628     A.U. after   14 cycles

 The electronic state is 1-A'.
 Alpha  occ. eigenvalues --  -18.89237  -9.98993  -0.80372  -0.31043  -0.20029
 Alpha  occ. eigenvalues --   -0.15144  -0.12750   0.06321
 Alpha virt. eigenvalues --    0.14427   0.18291   0.19396   0.21978   0.25037
 Alpha virt. eigenvalues --    0.26971   0.33865   0.36184   0.38530   0.39013
 Alpha virt. eigenvalues --    0.43172   0.53417   0.58106   0.59237   0.65011

 Mulliken charges:
               1
     1  C   -0.344783
     2  H   -0.250765
     3  O   -0.404451
 Sum of Mulliken charges =  -1.00000

 Dipole moment (field-independent basis, Debye):
    X=              0.2967    Y=              2.1830    Z=             -0.0000  Tot=              2.2030
 Quadrupole moment (field-independent basis, Debye-Ang):
   XX=            -22.5162   YY=            -22.2417   ZZ=            -15.4475
   XY=             -0.8397   XZ=              0.0000   YZ=              0.0000

  Exact polarizability: 137.293  26.037  38.469  -0.000  -0.000  20.652
 Approx polarizability: 132.869  32.783  52.457  -0.000  -0.000  27.186

                      1                      2                      3
                     A'                     A'                     A'
 Frequencies --   1255.6273              1345.7266              1749.9318
 Red. masses --      1.2282                 1.9954                 1.9918
 Frc consts  --      1.1409                 2.1290                 3.5937
 IR Inten    --     76.2475              3585.1198               465.9076

 - Thermochemistry -
 -------------------
 Temperature   298.150 Kelvin.  Pressure   1.00000 Atm.
 Atom     1 has atomic number  6 and mass  12.00000

 Molecular mass:    29.00274 amu.
 Principal axes and moments of inertia in atomic units:
                           1         2         3
     Eigenvalues --     4.17626  41.63918  45.81544
           X            0.12414   0.99227   0.00000
           Y            0.99227  -0.12414   0.00000
           Z            0.00000   0.00000   1.00000
 This molecule is an asymmetric top.
 Rotational symmetry number  1.
 Rotational temperatures (Kelvin)     20.73957     2.08010     1.89049
 Rotational constants (GHZ):         432.14294    43.34238    39.39155
 Zero-point vibrational energy      26026.5 (Joules/Mol)
                                    6.22048 (Kcal/Mol)
 Vibrational temperatures:   1806.57  1936.20  2517.76
          (Kelvin)

 Zero-point correction=                           0.009913 (Hartree/Particle)
 Thermal correction to Energy=                    0.012770
 Thermal correction to Enthalpy=                  0.013714
 Thermal correction to Gibbs Free Energy=        -0.011381
 Sum of electronic and zero-point Energies=           -113.900385
 Sum of electronic and thermal Energies=              -113.897528
 Sum of electronic and thermal Enthalpies=            -113.896584
 Sum of electronic and thermal Free Energies=         -113.921678

                     E (Thermal)             CV                S
                      KCal/Mol        Cal/Mol-Kelvin    Cal/Mol-Kelvin
 Total                    8.013              6.290             52.816
 Electronic               0.000              0.000              0.000
 Translational            0.889              2.981             36.028
 Rotational               0.889              2.981             16.729
 Vibrational              6.236              0.329              0.059

 Optimization completed.
    -- Stationary point found.
 Normal termination of Gaussian 09 at Fri Mar  8 05:10:44 2019.
