 Gaussian 09, Revision E.01,
 Gaussian 09:  EM64L-G09RevE.01 30-Nov-2015

 ------------------------------------------------------
 #p b3lyp/6-311++G(3df,2p) freq IOp(2/17=3) IOp(2/18=3)
 ------------------------------------------------------

 ---------
 b3lyp opt
 ---------
 Symbolic Z-matrix:
 Charge = -1 Multiplicity = 3

                         Standard orientation:
 ---------------------------------------------------------------------
 Center     Atomic      Atomic             Coordinates (Angstroms)
 Number     Number       Type             X           Y           Z
 ---------------------------------------------------------------------
      1          6           0       -0.133407    0.733876    0.000000
      2          1           0        1.867700   -0.698412    0.000000
      3          8           0       -0.133407   -0.463105    0.000000
 ---------------------------------------------------------------------

 SCF Done:  E(UB3LYP) =  -113.815974963     A.U. after   17 cycles

 The electronic state is 3-A'.
 Alpha  occ. eigenvalues --  -18.94434 -10.00659  -0.85929  -0.32225  -0.22688
 Alpha  occ. eigenvalues --   -0.19309  -0.12932  -0.08349   0.10868
 Alpha virt. eigenvalues --    0.16041   0.17558   0.19134   0.20969   0.24123
 Alpha virt. eigenvalues --    0.24938   0.33807   0.37028   0.38687   0.43286
 Alpha virt. eigenvalues --    0.52214   0.53387   0.56044   0.59442   0.66393

  Beta  occ. eigenvalues --  -18.93637  -9.99888  -0.84407  -0.30169  -0.18676
  Beta  occ. eigenvalues --   -0.17362  -0.10281
  Beta virt. eigenvalues --    0.09004   0.17968   0.18399   0.19246   0.20926
  Beta virt. eigenvalues --    0.21367   0.24622   0.28742   0.34119   0.36931
  Beta virt. eigenvalues --    0.39010   0.43752   0.53773   0.57348   0.59144

 Mulliken charges and spin densities:
               1          2
     1  C   -0.625442   0.948891
     2  H   -0.136641   1.031222
     3  O   -0.237917   0.019887
 Sum of Mulliken charges =  -1.00000   2.00000

 Dipole moment (field-independent basis, Debye):
    X=             -0.2251    Y=             -2.6451    Z=             -0.0000  Tot=              2.6547
 Quadrupole moment (field-independent basis, Debye-Ang):
   XX=            -26.6435   YY=            -23.4150   ZZ=            -16.9431
   XY=              1.7020   XZ=              0.0000   YZ=             -0.0000

  Exact polarizability: 244.430 -38.639  52.589   0.000   0.000  24.891
 Approx polarizability: 139.169 -17.292  53.738  -0.000  -0.000  29.210

                      1                      2                      3
                     A'                     A'                     A'
 Frequencies --    102.2534               534.5938              1591.1245
 Red. masses --      1.4611                 1.0489                12.3933
 Frc consts  --      0.0090                 0.1766                18.4861
 IR Inten    --    751.9487               186.0759               502.1593

 - Thermochemistry -
 -------------------
 Temperature   298.150 Kelvin.  Pressure   1.00000 Atm.
 Atom     1 has atomic number  6 and mass  12.00000

 Molecular mass:    29.00274 amu.
 Principal axes and moments of inertia in atomic units:
                           1         2         3
     Eigenvalues --    12.79414  38.14249  50.93663
           X           -0.20992   0.97772   0.00000
           Y            0.97772   0.20992   0.00000
           Z           -0.00000   0.00000   1.00000
 This molecule is an asymmetric top.
 Rotational symmetry number  1.
 Rotational temperatures (Kelvin)      6.76980     2.27080     1.70042
 Rotational constants (GHZ):         141.06000    47.31577    35.43111
 Zero-point vibrational energy      13326.2 (Joules/Mol)
                                    3.18505 (Kcal/Mol)
 Warning -- explicit consideration of   2 degrees of freedom as
           vibrations may cause significant error
 Vibrational temperatures:    147.12   769.16  2289.27
          (Kelvin)

 Zero-point correction=                           0.005076 (Hartree/Particle)
 Thermal correction to Energy=                    0.008842
 Thermal correction to Enthalpy=                  0.009786
 Thermal correction to Gibbs Free Energy=        -0.018754
 Sum of electronic and zero-point Energies=           -113.810899
 Sum of electronic and thermal Energies=              -113.807133
 Sum of electronic and thermal Enthalpies=            -113.806189
 Sum of electronic and thermal Free Energies=         -113.834729

                     E (Thermal)             CV                S
                      KCal/Mol        Cal/Mol-Kelvin    Cal/Mol-Kelvin
 Total                    5.548              9.137             60.067
 Electronic               0.000              0.000              2.183
 Translational            0.889              2.981             36.028
 Rotational               0.889              2.981             17.859
 Vibrational              3.771              3.175              3.996
 Vibration     1          0.604              1.947              3.411
 Vibration     2          0.890              1.174              0.577

 Normal termination of Gaussian 09 at Fri Mar  8 05:25:11 2019.
