 Gaussian 09, Revision E.01,
 Gaussian 09:  EM64L-G09RevE.01 30-Nov-2015

 ------------------------------------------------------
 #p b3lyp/6-311++G(3df,2p) freq IOp(2/17=3) IOp(2/18=3)
 ------------------------------------------------------

 ---------
 b3lyp opt
 ---------
 Symbolic Z-matrix:
 Charge = -1 Multiplicity = 3

                         Standard orientation:
 ---------------------------------------------------------------------
 Center     Atomic      Atomic             Coordinates (Angstroms)
 Number     Number       Type             X           Y           Z
 ---------------------------------------------------------------------
      1          6           0        0.060293   -0.621818    0.000000
      2          1           0       -0.844099   -1.274573    0.000000
      3          8           0        0.060293    0.625685   -0.000000
 ---------------------------------------------------------------------

 SCF Done:  E(UB3LYP) =  -113.875079974     A.U. after   15 cycles

 The electronic state is 3-A".
 Alpha  occ. eigenvalues --  -18.89311  -9.98425  -0.79535  -0.35784  -0.22066
 Alpha  occ. eigenvalues --   -0.15980  -0.15414   0.03333   0.10373
 Alpha virt. eigenvalues --    0.13829   0.19259   0.21423   0.22084   0.26087
 Alpha virt. eigenvalues --    0.34308   0.35437   0.38956   0.39997   0.42411
 Alpha virt. eigenvalues --    0.52557   0.56519   0.56600   0.62588   0.64888

  Beta  occ. eigenvalues --  -18.87674  -9.96905  -0.76342  -0.31309  -0.19294
  Beta  occ. eigenvalues --   -0.10760  -0.09804
  Beta virt. eigenvalues --    0.14117   0.15795   0.19193   0.19300   0.23168
  Beta virt. eigenvalues --    0.26981   0.27489   0.35689   0.36173   0.39440
  Beta virt. eigenvalues --    0.40646   0.43074   0.54721   0.57777   0.58865

 Mulliken charges and spin densities:
               1          2
     1  C   -0.615610   1.550000
     2  H    0.076965   0.113962
     3  O   -0.461355   0.336039
 Sum of Mulliken charges =  -1.00000   2.00000

 Dipole moment (field-independent basis, Debye):
    X=             -0.9890    Y=              1.2846    Z=             -0.0000  Tot=              1.6212
 Quadrupole moment (field-independent basis, Debye-Ang):
   XX=            -17.2812   YY=            -20.7386   ZZ=            -21.2809
   XY=              0.8736   XZ=              0.0000   YZ=              0.0000

  Exact polarizability:  40.641   3.387  41.429  -0.000   0.000********
 Approx polarizability:  40.688   4.241  52.877  -0.000  -0.000 120.973

                      1                      2                      3
                     A'                     A'                     A'
 Frequencies --   1027.5171              1443.5427              2697.5590
 Red. masses --      1.2348                11.5937                 1.0799
 Frc consts  --      0.7681                14.2342                 4.6300
 IR Inten    --     17.3601               426.2167               519.8725

 - Thermochemistry -
 -------------------
 Temperature   298.150 Kelvin.  Pressure   1.00000 Atm.
 Atom     1 has atomic number  6 and mass  12.00000

 Molecular mass:    29.00274 amu.
 Principal axes and moments of inertia in atomic units:
                           1         2         3
     Eigenvalues --     2.40502  45.01755  47.42257
           X            0.10120   0.99487   0.00000
           Y            0.99487  -0.10120   0.00000
           Z           -0.00000  -0.00000   1.00000
 This molecule is an asymmetric top.
 Rotational symmetry number  1.
 Rotational temperatures (Kelvin)     36.01375     1.92400     1.82643
 Rotational constants (GHZ):         750.40577    40.08973    38.05659
 Zero-point vibrational energy      30915.2 (Joules/Mol)
                                    7.38891 (Kcal/Mol)
 Vibrational temperatures:   1478.37  2076.93  3881.18
          (Kelvin)

 Zero-point correction=                           0.011775 (Hartree/Particle)
 Thermal correction to Energy=                    0.014647
 Thermal correction to Enthalpy=                  0.015591
 Thermal correction to Gibbs Free Energy=        -0.010352
 Sum of electronic and zero-point Energies=           -113.863305
 Sum of electronic and thermal Energies=              -113.860433
 Sum of electronic and thermal Enthalpies=            -113.859489
 Sum of electronic and thermal Free Energies=         -113.885432

                     E (Thermal)             CV                S
                      KCal/Mol        Cal/Mol-Kelvin    Cal/Mol-Kelvin
 Total                    9.191              6.402             54.602
 Electronic               0.000              0.000              2.183
 Translational            0.889              2.981             36.028
 Rotational               0.889              2.981             16.292
 Vibrational              7.414              0.440              0.099

 Optimization completed.
    -- Stationary point found.
 Normal termination of Gaussian 09 at Fri Mar  8 05:25:10 2019.
