 Gaussian 09, Revision E.01,
 Gaussian 09:  EM64L-G09RevE.01 30-Nov-2015

 ------------------------------------------------------
 #p b3lyp/6-311++G(3df,2p) freq IOp(2/17=3) IOp(2/18=3)
 ------------------------------------------------------

 ---------
 b3lyp opt
 ---------
 Symbolic Z-matrix:
 Charge = -1 Multiplicity = 1

                         Standard orientation:
 ---------------------------------------------------------------------
 Center     Atomic      Atomic             Coordinates (Angstroms)
 Number     Number       Type             X           Y           Z
 ---------------------------------------------------------------------
      1          6           0        0.082221   -0.602767    0.000000
      2          1           0       -1.151095   -1.240566   -0.000000
      3          8           0        0.082221    0.607146    0.000000
 ---------------------------------------------------------------------

 SCF Done:  E(RB3LYP) =  -113.906597820     A.U. after   14 cycles

 The electronic state is 1-A'.
 Alpha  occ. eigenvalues --  -18.91293 -10.00817  -0.82630  -0.30983  -0.20214
 Alpha  occ. eigenvalues --   -0.16993  -0.14497   0.05643
 Alpha virt. eigenvalues --    0.14756   0.17910   0.18967   0.21743   0.24562
 Alpha virt. eigenvalues --    0.26822   0.32372   0.35061   0.37932   0.38982
 Alpha virt. eigenvalues --    0.42491   0.53122   0.57016   0.59160   0.61942

 Mulliken charges:
               1
     1  C   -0.177373
     2  H   -0.441503
     3  O   -0.381124
 Sum of Mulliken charges =  -1.00000

 Dipole moment (field-independent basis, Debye):
    X=              1.3943    Y=              2.8645    Z=              0.0000  Tot=              3.1858
 Quadrupole moment (field-independent basis, Debye-Ang):
   XX=            -24.1858   YY=            -23.4945   ZZ=            -15.6392
   XY=             -3.0046   XZ=             -0.0000   YZ=             -0.0000

  Exact polarizability: 125.634  38.220  45.097  -0.000   0.000  19.050
 Approx polarizability: 136.980  49.639  62.809   0.000   0.000  25.865

                      1                      2                      3
                     A'                     A'                     A'
 Frequencies --    468.4595              1126.7608              1673.1131
 Red. masses --      1.1371                 1.3296                 6.6464
 Frc consts  --      0.1470                 0.9945                10.9619
 IR Inten    --   3159.7068                89.5977               434.7499

 - Thermochemistry -
 -------------------
 Temperature   298.150 Kelvin.  Pressure   1.00000 Atm.
 Atom     1 has atomic number  6 and mass  12.00000

 Molecular mass:    29.00274 amu.
 Principal axes and moments of inertia in atomic units:
                           1         2         3
     Eigenvalues --     4.42073  42.84182  47.26255
           X            0.14990   0.98870   0.00000
           Y            0.98870  -0.14990   0.00000
           Z           -0.00000  -0.00000   1.00000
 This molecule is an asymmetric top.
 Rotational symmetry number  1.
 Rotational temperatures (Kelvin)     19.59266     2.02171     1.83261
 Rotational constants (GHZ):         408.24519    42.12569    38.18544
 Zero-point vibrational energy      19549.0 (Joules/Mol)
                                    4.67232 (Kcal/Mol)
 Warning -- explicit consideration of   1 degrees of freedom as
           vibrations may cause significant error
 Vibrational temperatures:    674.01  1621.16  2407.23
          (Kelvin)

 Zero-point correction=                           0.007446 (Hartree/Particle)
 Thermal correction to Energy=                    0.010552
 Thermal correction to Enthalpy=                  0.011496
 Thermal correction to Gibbs Free Energy=        -0.014007
 Sum of electronic and zero-point Energies=           -113.899152
 Sum of electronic and thermal Energies=              -113.896046
 Sum of electronic and thermal Enthalpies=            -113.895102
 Sum of electronic and thermal Free Energies=         -113.920605

                     E (Thermal)             CV                S
                      KCal/Mol        Cal/Mol-Kelvin    Cal/Mol-Kelvin
 Total                    6.621              7.580             53.676
 Electronic               0.000              0.000              0.000
 Translational            0.889              2.981             36.028
 Rotational               0.889              2.981             16.844
 Vibrational              4.844              1.618              0.803
 Vibration     1          0.826              1.320              0.742

 Normal termination of Gaussian 09 at Fri Mar  8 05:23:56 2019.
