 Gaussian 09, Revision E.01,
 Gaussian 09:  EM64L-G09RevE.01 30-Nov-2015

 ------------------------------------------------------
 #p b3lyp/6-311++G(3df,2p) freq IOp(2/17=3) IOp(2/18=3)
 ------------------------------------------------------

 ---------
 b3lyp opt
 ---------
 Symbolic Z-matrix:
 Charge = -1 Multiplicity = 1

                         Standard orientation:
 ---------------------------------------------------------------------
 Center     Atomic      Atomic             Coordinates (Angstroms)
 Number     Number       Type             X           Y           Z
 ---------------------------------------------------------------------
      1          6           0        0.163275    0.566140    0.000000
      2          1           0       -2.285845    1.217370    0.000000
      3          8           0        0.163275   -0.576776    0.000000
 ---------------------------------------------------------------------

 SCF Done:  E(RB3LYP) =  -113.899040353     A.U. after   11 cycles

 The electronic state is 1-A'.
 Alpha  occ. eigenvalues --  -19.02487 -10.09315  -0.96028  -0.38696  -0.28052
 Alpha  occ. eigenvalues --   -0.27770  -0.18483   0.03323
 Alpha virt. eigenvalues --    0.14324   0.14373   0.17014   0.20186   0.21243
 Alpha virt. eigenvalues --    0.21438   0.25185   0.32430   0.34597   0.35091
 Alpha virt. eigenvalues --    0.39533   0.49952   0.53821   0.57215   0.64009

 Mulliken charges:
               1
     1  C    0.124956
     2  H   -0.861364
     3  O   -0.263592
 Sum of Mulliken charges =  -1.00000

 Dipole moment (field-independent basis, Debye):
    X=              8.9678    Y=             -5.0002    Z=              0.0000  Tot=             10.2676
 Quadrupole moment (field-independent basis, Debye-Ang):
   XX=            -41.2370   YY=            -25.6758   ZZ=            -16.9461
   XY=             11.8047   XZ=              0.0000   YZ=              0.0000

  Exact polarizability:  99.432 -21.846  39.156   0.000  -0.000  26.681
 Approx polarizability: 120.826 -27.833  51.129  -0.000  -0.000  31.832

                      1                      2                      3
                     A'                     A'                     A'
 Frequencies --     72.9208               391.4725              2035.2447
 Red. masses --      1.1220                 1.6023                12.9902
 Frc consts  --      0.0035                 0.1447                31.7030
 IR Inten    --   1344.1016               301.3932               699.2012

 - Thermochemistry -
 -------------------
 Temperature   298.150 Kelvin.  Pressure   1.00000 Atm.
 Atom     1 has atomic number  6 and mass  12.00000

 Molecular mass:    29.00274 amu.
 Principal axes and moments of inertia in atomic units:
                           1         2         3
     Eigenvalues --    15.37000  43.35900  58.72900
           X           -0.44197   0.89703   0.00000
           Y            0.89703   0.44197   0.00000
           Z           -0.00000   0.00000   1.00000
 This molecule is an asymmetric top.
 Rotational symmetry number  1.
 Rotational temperatures (Kelvin)      5.63525     1.99760     1.47480
 Rotational constants (GHZ):         117.41971    41.62322    30.72998
 Zero-point vibrational energy      14951.2 (Joules/Mol)
                                    3.57341 (Kcal/Mol)
 Warning -- explicit consideration of   2 degrees of freedom as
           vibrations may cause significant error
 Vibrational temperatures:    104.92   563.24  2928.26
          (Kelvin)

 Zero-point correction=                           0.005695 (Hartree/Particle)
 Thermal correction to Energy=                    0.009633
 Thermal correction to Enthalpy=                  0.010577
 Thermal correction to Gibbs Free Energy=        -0.017649
 Sum of electronic and zero-point Energies=           -113.893346
 Sum of electronic and thermal Energies=              -113.889407
 Sum of electronic and thermal Enthalpies=            -113.888463
 Sum of electronic and thermal Free Energies=         -113.916689

                     E (Thermal)             CV                S
                      KCal/Mol        Cal/Mol-Kelvin    Cal/Mol-Kelvin
 Total                    6.045              9.427             59.407
 Electronic               0.000              0.000              0.000
 Translational            0.889              2.981             36.028
 Rotational               0.889              2.981             18.310
 Vibrational              4.267              3.466              5.069
 Vibration     1          0.599              1.967              4.073
 Vibration     2          0.759              1.488              0.995

 Normal termination of Gaussian 09 at Fri Mar  8 05:23:54 2019.
