 Gaussian 09, Revision E.01,
 Gaussian 09:  EM64L-G09RevE.01 30-Nov-2015

 ------------------------------------------------------
 #p b3lyp/6-311++G(3df,2p) freq IOp(2/17=3) IOp(2/18=3)
 ------------------------------------------------------

 ---------
 b3lyp opt
 ---------
 Symbolic Z-matrix:
 Charge = -1 Multiplicity = 3

                         Standard orientation:
 ---------------------------------------------------------------------
 Center     Atomic      Atomic             Coordinates (Angstroms)
 Number     Number       Type             X           Y           Z
 ---------------------------------------------------------------------
      1          1           0        0.000000    0.000000   -0.888894
      2          8           0        0.000000    0.000000    0.111112
 ---------------------------------------------------------------------

 SCF Done:  E(UB3LYP) =  -75.7357763557     A.U. after   11 cycles

 Unable to determine electronic state:  an orbital has unidentified symmetry.
 Alpha  occ. eigenvalues --  -19.00295  -0.81889  -0.28536  -0.22759  -0.15650
 Alpha  occ. eigenvalues --    0.08605
 Alpha virt. eigenvalues --    0.27935   0.28934   0.29067   0.30243   0.36728
 Alpha virt. eigenvalues --    0.65697   0.81461   0.83276   0.93652   0.93686
 Alpha virt. eigenvalues --    1.05516   1.12107   1.15881   1.23094   1.30265

  Beta  occ. eigenvalues --  -18.97571  -0.74303  -0.25717  -0.12895
  Beta virt. eigenvalues --    0.01351   0.14333   0.29270   0.31077   0.31099
  Beta virt. eigenvalues --    0.32338   0.38015   0.67744   0.83621   0.83667
  Beta virt. eigenvalues --    0.96192   0.96504   1.07054   1.17282   1.19545

 Mulliken charges and spin densities:
               1          2
     1  H   -1.081563   1.370913
     2  O    0.081563   0.629087
 Sum of Mulliken charges =  -1.00000   2.00000

 Dipole moment (field-independent basis, Debye):
    X=              0.0000    Y=              0.0000    Z=              4.4653  Tot=              4.4653
 Quadrupole moment (field-independent basis, Debye-Ang):
   XX=            -18.0087   YY=            -19.4526   ZZ=            -25.0239
   XY=              0.0000   XZ=              0.0000   YZ=              0.0000

  Exact polarizability:  43.990  -0.000  42.075   0.000  -0.000  51.369
 Approx polarizability:  41.226  -0.000  40.334  -0.000  -0.000  51.155

                      1
                     SG
 Frequencies --   3186.0076
 Red. masses --      1.0671
 Frc consts  --      6.3818
 IR Inten    --    214.8003

 - Thermochemistry -
 -------------------
 Temperature   298.150 Kelvin.  Pressure   1.00000 Atm.
 Atom     1 has atomic number  1 and mass   1.00783

 Molecular mass:    17.00274 amu.
 Principal axes and moments of inertia in atomic units:
                           1         2         3
     Eigenvalues --     0.00000   3.38572   3.38572
           X            0.00000  -0.00000   1.00000
           Y            0.00000   1.00000   0.00000
           Z            1.00000   0.00000   0.00000
 This molecule is a prolate symmetric top.
 Rotational symmetry number  1.
 Rotational temperature (Kelvin)     25.58209
 Rotational constant (GHZ):         533.044934
 Zero-point vibrational energy      19056.6 (Joules/Mol)
                                    4.55463 (Kcal/Mol)
 Vibrational temperatures:   4583.95
          (Kelvin)

 Zero-point correction=                           0.007258 (Hartree/Particle)
 Thermal correction to Energy=                    0.009619
 Thermal correction to Enthalpy=                  0.010563
 Thermal correction to Gibbs Free Energy=        -0.010099
 Sum of electronic and zero-point Energies=            -75.728518
 Sum of electronic and thermal Energies=               -75.726158
 Sum of electronic and thermal Enthalpies=             -75.725213
 Sum of electronic and thermal Free Energies=          -75.745876

                     E (Thermal)             CV                S
                      KCal/Mol        Cal/Mol-Kelvin    Cal/Mol-Kelvin
 Total                    6.036              4.968             43.487
 Electronic               0.000              0.000              2.183
 Translational            0.889              2.981             34.437
 Rotational               0.592              1.987              6.867
 Vibrational              4.555              0.000              0.000

 Optimization completed.
    -- Stationary point found.
 Normal termination of Gaussian 09 at Fri Mar  8 05:26:56 2019.
