 Gaussian 09, Revision E.01,
 Gaussian 09:  EM64L-G09RevE.01 30-Nov-2015

 ------------------------------------------------------
 #p b3lyp/6-311++G(3df,2p) freq IOp(2/17=3) IOp(2/18=3)
 ------------------------------------------------------

 ---------
 b3lyp opt
 ---------
 Symbolic Z-matrix:
 Charge = -1 Multiplicity = 4

                         Standard orientation:
 ---------------------------------------------------------------------
 Center     Atomic      Atomic             Coordinates (Angstroms)
 Number     Number       Type             X           Y           Z
 ---------------------------------------------------------------------
      1          8           0        0.000000    0.000000    0.000000
 ---------------------------------------------------------------------

 SCF Done:  E(UB3LYP) =  -74.9372175857     A.U. after   10 cycles

 Unable to determine electronic state:  an orbital has unidentified symmetry.
 Alpha  occ. eigenvalues --  -19.00528  -0.75026  -0.19147  -0.19147  -0.11872
 Alpha  occ. eigenvalues --    0.23173
 Alpha virt. eigenvalues --    0.31351   0.31351   0.32660   0.97430   0.97430
 Alpha virt. eigenvalues --    0.99699   0.99699   1.00448   1.17215   1.17215
 Alpha virt. eigenvalues --    1.21200   1.40202   3.45614   3.45614   3.51024

  Beta  occ. eigenvalues --  -18.95112  -0.58841  -0.06496
  Beta virt. eigenvalues --    0.08133   0.08133   0.31607   0.35688   0.37356
  Beta virt. eigenvalues --    0.37356   1.02881   1.02881   1.03232   1.03234
  Beta virt. eigenvalues --    1.03244   1.24055   1.26520   1.26520   1.47853

 Mulliken charges and spin densities:
               1          2
     1  O   -1.000000   3.000000
 Sum of Mulliken charges =  -1.00000   3.00000

 Dipole moment (field-independent basis, Debye):
    X=              0.0000    Y=              0.0000    Z=              0.0000  Tot=              0.0000
 Quadrupole moment (field-independent basis, Debye-Ang):
   XX=            -11.3334   YY=            -11.3334   ZZ=            -12.7239
   XY=             -0.0000   XZ=             -0.0000   YZ=              0.0000

  Exact polarizability: 154.724   0.000 154.724   0.000   0.000 117.410
 Approx polarizability: 113.549  -0.000 113.549  -0.000  -0.000  96.542

 - Thermochemistry -
 -------------------
 Temperature   298.150 Kelvin.  Pressure   1.00000 Atm.
 Atom     1 has atomic number  8 and mass  15.99491
 Molecular mass:    15.99491 amu.
 Zero-point vibrational energy          0.0 (Joules/Mol)
                                    0.00000 (Kcal/Mol)
 Vibrational temperatures:
          (Kelvin)

 Zero-point correction=                           0.000000 (Hartree/Particle)
 Thermal correction to Energy=                    0.001416
 Thermal correction to Enthalpy=                  0.002360
 Thermal correction to Gibbs Free Energy=        -0.015224
 Sum of electronic and zero-point Energies=            -74.937218
 Sum of electronic and thermal Energies=               -74.935801
 Sum of electronic and thermal Enthalpies=             -74.934857
 Sum of electronic and thermal Free Energies=          -74.952441

                     E (Thermal)             CV                S
                      KCal/Mol        Cal/Mol-Kelvin    Cal/Mol-Kelvin
 Total                    0.889              2.981             37.009
 Electronic               0.000              0.000              2.755
 Translational            0.889              2.981             34.255
 Rotational               0.000              0.000              0.000
 Vibrational              0.000              0.000              0.000

 Optimization completed.
    -- Stationary point found.
 Normal termination of Gaussian 09 at Fri Mar  8 05:26:56 2019.
