 Gaussian 09, Revision E.01,
 Gaussian 09:  EM64L-G09RevE.01 30-Nov-2015

 ------------------------------------------------------
 #p b3lyp/6-311++G(3df,2p) freq IOp(2/17=3) IOp(2/18=3)
 ------------------------------------------------------

 ---------
 b3lyp opt
 ---------
 Symbolic Z-matrix:
 Charge = -1 Multiplicity = 4

                         Standard orientation:
 ---------------------------------------------------------------------
 Center     Atomic      Atomic             Coordinates (Angstroms)
 Number     Number       Type             X           Y           Z
 ---------------------------------------------------------------------
      1          6           0        1.512035    0.010294    0.000000
      2          6           0        0.000000    0.249693    0.000000
      3          8           0       -1.134026   -0.194991    0.000000
 ---------------------------------------------------------------------

 SCF Done:  E(UB3LYP) =  -151.295890336     A.U. after   16 cycles

 The electronic state is 4-A".
 Alpha  occ. eigenvalues --  -18.98024 -10.06602 -10.01322  -0.88536  -0.49804
 Alpha  occ. eigenvalues --   -0.32260  -0.24127  -0.23689  -0.13886  -0.05017
 Alpha  occ. eigenvalues --   -0.04481   0.07205
 Alpha virt. eigenvalues --    0.16578   0.18494   0.19144   0.20132   0.20310
 Alpha virt. eigenvalues --    0.23350   0.23906   0.24583   0.29044   0.35072
 Alpha virt. eigenvalues --    0.37582   0.37930   0.40818   0.43987   0.48739

  Beta  occ. eigenvalues --  -18.96677 -10.05771  -9.98970  -0.85910  -0.42861
  Beta  occ. eigenvalues --   -0.29505  -0.20197  -0.18752  -0.08762
  Beta virt. eigenvalues --    0.08248   0.09321   0.14940   0.18367   0.20881
  Beta virt. eigenvalues --    0.21209   0.21362   0.21768   0.24299   0.27145
  Beta virt. eigenvalues --    0.28494   0.29846   0.35909   0.38528   0.38811

 Mulliken charges and spin densities:
               1          2
     1  C   -0.325617   1.551778
     2  C   -0.517330   1.429882
     3  O   -0.157053   0.018340
 Sum of Mulliken charges =  -1.00000   3.00000

 Dipole moment (field-independent basis, Debye):
    X=             -2.6820    Y=              0.1591    Z=              0.0000  Tot=              2.6867
 Quadrupole moment (field-independent basis, Debye-Ang):
   XX=            -35.4607   YY=            -25.4278   ZZ=            -22.5239
   XY=              1.5768   XZ=              0.0000   YZ=              0.0000

  Exact polarizability: 120.619 -23.795  93.844  -0.000   0.000  68.674
 Approx polarizability: 136.115 -10.682  86.427  -0.000  -0.000  69.814

                      1                      2                      3
                     A'                     A'                     A'
 Frequencies --    457.3440               611.4116              1559.7177
 Red. masses --     12.7972                12.3550                13.3562
 Frc consts  --      1.5771                 2.7212                19.1437
 IR Inten    --     11.3883               117.4615               160.7644

 - Thermochemistry -
 -------------------
 Temperature   298.150 Kelvin.  Pressure   1.00000 Atm.
 Atom     1 has atomic number  6 and mass  12.00000

 Molecular mass:    39.99491 amu.
 Principal axes and moments of inertia in atomic units:
                           1         2         3
     Eigenvalues --     3.79321 172.48278 176.27599
           X            0.99687  -0.07908   0.00000
           Y            0.07908   0.99687   0.00000
           Z            0.00000   0.00000   1.00000
 This molecule is an asymmetric top.
 Rotational symmetry number  1.
 Rotational temperatures (Kelvin)     22.83394     0.50216     0.49135
 Rotational constants (GHZ):         475.78263    10.46331    10.23816
 Zero-point vibrational energy      15721.8 (Joules/Mol)
                                    3.75759 (Kcal/Mol)
 Warning -- explicit consideration of   2 degrees of freedom as
           vibrations may cause significant error
 Vibrational temperatures:    658.02   879.68  2244.08
          (Kelvin)

 Zero-point correction=                           0.005988 (Hartree/Particle)
 Thermal correction to Energy=                    0.009236
 Thermal correction to Enthalpy=                  0.010180
 Thermal correction to Gibbs Free Energy=        -0.018489
 Sum of electronic and zero-point Energies=           -151.289902
 Sum of electronic and thermal Energies=              -151.286654
 Sum of electronic and thermal Enthalpies=            -151.285710
 Sum of electronic and thermal Free Energies=         -151.314379

                     E (Thermal)             CV                S
                      KCal/Mol        Cal/Mol-Kelvin    Cal/Mol-Kelvin
 Total                    5.796              8.375             60.339
 Electronic               0.000              0.000              2.755
 Translational            0.889              2.981             36.986
 Rotational               0.889              2.981             19.384
 Vibrational              4.018              2.413              1.213
 Vibration     1          0.815              1.345              0.774
 Vibration     2          0.971              1.008              0.430

 Normal termination of Gaussian 09 at Thu Mar  7 08:18:07 2019.
