 Gaussian 09, Revision E.01,
 Gaussian 09:  EM64L-G09RevE.01 30-Nov-2015

 ------------------------------------------------------
 #p b3lyp/6-311++G(3df,2p) freq IOp(2/17=3) IOp(2/18=3)
 ------------------------------------------------------

 ---------
 b3lyp opt
 ---------
 Symbolic Z-matrix:
 Charge = -1 Multiplicity = 4

                         Standard orientation:
 ---------------------------------------------------------------------
 Center     Atomic      Atomic             Coordinates (Angstroms)
 Number     Number       Type             X           Y           Z
 ---------------------------------------------------------------------
      1          6           0       -0.000000    0.893430   -0.428826
      2          6           0       -0.000000   -0.893430   -0.428826
      3          8           0        0.000000    0.000000    0.643338
 ---------------------------------------------------------------------

 SCF Done:  E(UB3LYP) =  -151.213261889     A.U. after   12 cycles

 The electronic state is 4-B2.
 Alpha  occ. eigenvalues --  -18.97605 -10.02269 -10.02262  -0.89860  -0.40092
 Alpha  occ. eigenvalues --   -0.38672  -0.24362  -0.16740  -0.11042  -0.04312
 Alpha  occ. eigenvalues --    0.03826   0.04163
 Alpha virt. eigenvalues --    0.17658   0.18301   0.19596   0.21418   0.21597
 Alpha virt. eigenvalues --    0.24387   0.24569   0.26839   0.29664   0.34474
 Alpha virt. eigenvalues --    0.36854   0.39208   0.41610   0.48056   0.48616

  Beta  occ. eigenvalues --  -18.96553 -10.00272 -10.00270  -0.87266  -0.35394
  Beta  occ. eigenvalues --   -0.33385  -0.18148  -0.12440  -0.06838
  Beta virt. eigenvalues --    0.08992   0.16617   0.18412   0.18644   0.18697
  Beta virt. eigenvalues --    0.20010   0.22034   0.24777   0.25153   0.27695
  Beta virt. eigenvalues --    0.29956   0.32811   0.35035   0.37149   0.40605

 Mulliken charges and spin densities:
               1          2
     1  C   -0.411054   1.427484
     2  C   -0.411054   1.427484
     3  O   -0.177892   0.145032
 Sum of Mulliken charges =  -1.00000   3.00000

 Dipole moment (field-independent basis, Debye):
    X=              0.0000    Y=             -0.0000    Z=              2.4845  Tot=              2.4845
 Quadrupole moment (field-independent basis, Debye-Ang):
   XX=            -23.5624   YY=            -28.2034   ZZ=            -23.9445
   XY=             -0.0000   XZ=             -0.0000   YZ=              0.0000

  Exact polarizability:  48.766   0.000  62.820   0.000   0.000  33.300
 Approx polarizability:  50.627   0.000  75.151   0.000  -0.000  47.803

                      1                      2                      3
                     A1                     B2                     A1
 Frequencies --    382.3983               543.6638              1128.0672
 Red. masses --     12.5782                13.2612                13.3915
 Frc consts  --      1.0837                 2.3094                10.0404
 IR Inten    --      2.9582                 0.5778                80.6915

 - Thermochemistry -
 -------------------
 Temperature   298.150 Kelvin.  Pressure   1.00000 Atm.
 Atom     1 has atomic number  6 and mass  12.00000

 Molecular mass:    39.99491 amu.
 Principal axes and moments of inertia in atomic units:
                           1         2         3
     Eigenvalues --    39.40119  68.41166 107.81285
           X            0.00000   0.00000   1.00000
           Y            1.00000   0.00000   0.00000
           Z            0.00000   1.00000   0.00000
 This molecule is an asymmetric top.
 Rotational symmetry number  2.
 Rotational temperatures (Kelvin)      2.19825     1.26607     0.80337
 Rotational constants (GHZ):          45.80424    26.38061    16.73957
 Zero-point vibrational energy      12286.4 (Joules/Mol)
                                    2.93653 (Kcal/Mol)
 Warning -- explicit consideration of   2 degrees of freedom as
           vibrations may cause significant error
 Vibrational temperatures:    550.19   782.21  1623.04
          (Kelvin)

 Zero-point correction=                           0.004680 (Hartree/Particle)
 Thermal correction to Energy=                    0.008055
 Thermal correction to Enthalpy=                  0.008999
 Thermal correction to Gibbs Free Energy=        -0.019655
 Sum of electronic and zero-point Energies=           -151.208582
 Sum of electronic and thermal Energies=              -151.205207
 Sum of electronic and thermal Enthalpies=            -151.204263
 Sum of electronic and thermal Free Energies=         -151.232917

                     E (Thermal)             CV                S
                      KCal/Mol        Cal/Mol-Kelvin    Cal/Mol-Kelvin
 Total                    5.055              8.880             60.309
 Electronic               0.000              0.000              2.755
 Translational            0.889              2.981             36.986
 Rotational               0.889              2.981             18.925
 Vibrational              3.277              2.918              1.643
 Vibration     1          0.752              1.508              1.030
 Vibration     2          0.899              1.154              0.557

 Optimization completed.
    -- Stationary point found.
 Normal termination of Gaussian 09 at Thu Mar  7 08:15:01 2019.
