 Gaussian 09, Revision E.01,
 Gaussian 09:  EM64L-G09RevE.01 30-Nov-2015

 ------------------------------------------------------
 #p b3lyp/6-311++G(3df,2p) freq IOp(2/17=3) IOp(2/18=3)
 ------------------------------------------------------

 ---------
 b3lyp opt
 ---------
 Symbolic Z-matrix:
 Charge = -1 Multiplicity = 2

                         Standard orientation:
 ---------------------------------------------------------------------
 Center     Atomic      Atomic             Coordinates (Angstroms)
 Number     Number       Type             X           Y           Z
 ---------------------------------------------------------------------
      1          6           0        0.000000    0.688127   -0.512310
      2          6           0       -0.000000   -0.688127   -0.512310
      3          8           0        0.000000   -0.000000    0.768499
 ---------------------------------------------------------------------

 SCF Done:  E(UB3LYP) =  -151.315636317     A.U. after   12 cycles

 The electronic state is 2-B1.
 Alpha  occ. eigenvalues --  -18.96332  -9.98671  -9.98612  -0.87285  -0.44804
 Alpha  occ. eigenvalues --   -0.28551  -0.22684  -0.17753  -0.05279  -0.03502
 Alpha  occ. eigenvalues --    0.00913
 Alpha virt. eigenvalues --    0.18541   0.18921   0.19176   0.19971   0.21265
 Alpha virt. eigenvalues --    0.22952   0.24323   0.27816   0.29835   0.33918
 Alpha virt. eigenvalues --    0.36622   0.36669   0.37525   0.44055   0.48695

  Beta  occ. eigenvalues --  -18.95082  -9.98237  -9.98181  -0.85134  -0.42144
  Beta  occ. eigenvalues --   -0.27552  -0.16763  -0.16468  -0.04041  -0.02891
  Beta virt. eigenvalues --    0.12366   0.18614   0.19214   0.20079   0.20589
  Beta virt. eigenvalues --    0.22002   0.22924   0.24496   0.29819   0.29876
  Beta virt. eigenvalues --    0.34178   0.37384   0.37422   0.38036   0.44145

 Mulliken charges and spin densities:
               1          2
     1  C   -0.328132   0.334106
     2  C   -0.328132   0.334106
     3  O   -0.343735   0.331789
 Sum of Mulliken charges =  -1.00000   1.00000

 Dipole moment (field-independent basis, Debye):
    X=              0.0000    Y=             -0.0000    Z=              1.7313  Tot=              1.7313
 Quadrupole moment (field-independent basis, Debye-Ang):
   XX=            -20.6122   YY=            -28.6204   ZZ=            -23.8257
   XY=             -0.0000   XZ=             -0.0000   YZ=             -0.0000

  Exact polarizability:  36.426  -0.000  54.695   0.000   0.000  38.186
 Approx polarizability:  46.059  -0.000  65.601   0.000  -0.000  58.752

                      1                      2                      3
                     B2                     A1                     A1
 Frequencies --    478.8234               891.6808              1452.0720
 Red. masses --     12.8045                13.9075                12.1546
 Frc consts  --      1.7297                 6.5151                15.0996
 IR Inten    --      0.7852                39.6665                34.4923

 - Thermochemistry -
 -------------------
 Temperature   298.150 Kelvin.  Pressure   1.00000 Atm.
 Atom     1 has atomic number  6 and mass  12.00000

 Molecular mass:    39.99491 amu.
 Principal axes and moments of inertia in atomic units:
                           1         2         3
     Eigenvalues --    40.58323  56.22830  96.81153
           X            0.00000   0.00000   1.00000
           Y            0.00000   1.00000  -0.00000
           Z            1.00000  -0.00000  -0.00000
 This molecule is an asymmetric top.
 Rotational symmetry number  2.
 Rotational temperatures (Kelvin)      2.13423     1.54040     0.89466
 Rotational constants (GHZ):          44.47012    32.09667    18.64180
 Zero-point vibrational energy      16882.8 (Joules/Mol)
                                    4.03508 (Kcal/Mol)
 Warning -- explicit consideration of   1 degrees of freedom as
           vibrations may cause significant error
 Vibrational temperatures:    688.92  1282.93  2089.21
          (Kelvin)

 Zero-point correction=                           0.006430 (Hartree/Particle)
 Thermal correction to Energy=                    0.009565
 Thermal correction to Enthalpy=                  0.010509
 Thermal correction to Gibbs Free Energy=        -0.016996
 Sum of electronic and zero-point Energies=           -151.309206
 Sum of electronic and thermal Energies=              -151.306071
 Sum of electronic and thermal Enthalpies=            -151.305127
 Sum of electronic and thermal Free Energies=         -151.332632

                     E (Thermal)             CV                S
                      KCal/Mol        Cal/Mol-Kelvin    Cal/Mol-Kelvin
 Total                    6.002              7.859             57.888
 Electronic               0.000              0.000              1.377
 Translational            0.889              2.981             36.986
 Rotational               0.889              2.981             18.652
 Vibrational              4.225              1.897              0.872
 Vibration     1          0.835              1.297              0.713

 Optimization completed.
    -- Stationary point found.
 Normal termination of Gaussian 09 at Thu Mar  7 08:15:01 2019.
