 Gaussian 09, Revision E.01,
 Gaussian 09:  EM64L-G09RevE.01 30-Nov-2015

 ------------------------------------------------------
 #p b3lyp/6-311++G(3df,2p) freq IOp(2/17=3) IOp(2/18=3)
 ------------------------------------------------------

 ---------
 b3lyp opt
 ---------
 Symbolic Z-matrix:
 Charge = -1 Multiplicity = 4

                         Standard orientation:
 ---------------------------------------------------------------------
 Center     Atomic      Atomic             Coordinates (Angstroms)
 Number     Number       Type             X           Y           Z
 ---------------------------------------------------------------------
      1          6           0        1.289630    0.040817    0.000000
      2          6           0       -1.205624   -1.140145   -0.000000
      3          6           0       -0.084007   -0.291191   -0.000000
      4          8           0       -0.000000    1.042889    0.000000
 ---------------------------------------------------------------------

 SCF Done:  E(UB3LYP) =  -189.324921765     A.U. after   15 cycles

 The electronic state is 4-A'.
 Alpha  occ. eigenvalues --  -19.01921 -10.06844 -10.03233  -9.99686  -0.92751
 Alpha  occ. eigenvalues --   -0.54780  -0.48288  -0.31759  -0.28813  -0.19536
 Alpha  occ. eigenvalues --   -0.13061  -0.10197  -0.09125  -0.01315  -0.01026
 Alpha virt. eigenvalues --    0.16327   0.17068   0.18013   0.18081   0.19951
 Alpha virt. eigenvalues --    0.21900   0.22929   0.23883   0.24095   0.25818
 Alpha virt. eigenvalues --    0.27276   0.28429   0.30311   0.32484   0.36228

  Beta  occ. eigenvalues --  -19.00402 -10.06715 -10.02019  -9.97629  -0.89869
  Beta  occ. eigenvalues --   -0.50090  -0.44209  -0.29084  -0.22189  -0.17139
  Beta  occ. eigenvalues --   -0.09719  -0.06837
  Beta virt. eigenvalues --    0.04488   0.11856   0.12697   0.16872   0.17914
  Beta virt. eigenvalues --    0.18344   0.19015   0.19966   0.23320   0.24530
  Beta virt. eigenvalues --    0.24724   0.26436   0.26465   0.28938   0.30413

 Mulliken charges and spin densities:
               1          2
     1  C   -0.514760   0.898876
     2  C   -0.813582   1.576899
     3  C    0.771781   0.093654
     4  O   -0.443439   0.430570
 Sum of Mulliken charges =  -1.00000   3.00000

 Dipole moment (field-independent basis, Debye):
    X=              0.6826    Y=              2.2127    Z=              0.0000  Tot=              2.3156
 Quadrupole moment (field-independent basis, Debye-Ang):
   XX=            -41.3604   YY=            -34.1504   ZZ=            -26.4064
   XY=             -6.5052   XZ=             -0.0000   YZ=             -0.0000

  Exact polarizability:  75.207  10.793  58.562   0.000  -0.000  44.085
 Approx polarizability:  95.804   8.732  83.433   0.000  -0.000  54.681

                      1                      2                      3
                     A'                     A"                     A'
 Frequencies --    376.6637               457.2501               474.6062
 Red. masses --     12.5597                12.0649                13.5086
 Frc consts  --      1.0499                 1.4862                 1.7928
 IR Inten    --      7.9974                55.3216                49.3554

                      4                      5                      6
                     A'                     A'                     A'
 Frequencies --    914.2169              1006.1993              1444.8455
 Red. masses --     12.0134                13.4440                12.2490
 Frc consts  --      5.9158                 8.0195                15.0658
 IR Inten    --      0.9503                56.6275               119.2861

 - Thermochemistry -
 -------------------
 Temperature   298.150 Kelvin.  Pressure   1.00000 Atm.
 Atom     1 has atomic number  6 and mass  12.00000

 Molecular mass:    51.99491 amu.
 Principal axes and moments of inertia in atomic units:
                           1         2         3
     Eigenvalues --    65.18396 190.21074 255.39471
           X            0.74114  -0.67135   0.00000
           Y            0.67135   0.74114   0.00000
           Z           -0.00000   0.00000   1.00000
 This molecule is an asymmetric top.
 Rotational symmetry number  1.
 Rotational temperatures (Kelvin)      1.32876     0.45536     0.33914
 Rotational constants (GHZ):          27.68689     9.48811     7.06648
 Zero-point vibrational energy      27955.4 (Joules/Mol)
                                    6.68151 (Kcal/Mol)
 Warning -- explicit consideration of   3 degrees of freedom as
           vibrations may cause significant error
 Vibrational temperatures:    541.93   657.88   682.85  1315.35  1447.69
          (Kelvin)           2078.81

 Zero-point correction=                           0.010648 (Hartree/Particle)
 Thermal correction to Energy=                    0.014408
 Thermal correction to Enthalpy=                  0.015352
 Thermal correction to Gibbs Free Energy=        -0.016001
 Sum of electronic and zero-point Energies=           -189.314274
 Sum of electronic and thermal Energies=              -189.310514
 Sum of electronic and thermal Enthalpies=            -189.309570
 Sum of electronic and thermal Free Energies=         -189.340923

                     E (Thermal)             CV                S
                      KCal/Mol        Cal/Mol-Kelvin    Cal/Mol-Kelvin
 Total                    9.041             11.075             65.988
 Electronic               0.000              0.000              2.755
 Translational            0.889              2.981             37.769
 Rotational               0.889              2.981             22.675
 Vibrational              7.263              5.113              2.790
 Vibration     1          0.747              1.520              1.053
 Vibration     2          0.815              1.345              0.774
 Vibration     3          0.831              1.306              0.725

 Optimization completed.
    -- Stationary point found.
 Normal termination of Gaussian 09 at Thu Mar  7 08:42:05 2019.
