 Gaussian 09, Revision E.01,
 Gaussian 09:  EM64L-G09RevE.01 30-Nov-2015

 ------------------------------------------------------
 #p b3lyp/6-311++G(3df,2p) freq IOp(2/17=3) IOp(2/18=3)
 ------------------------------------------------------

 ---------
 b3lyp opt
 ---------
 Symbolic Z-matrix:
 Charge = -1 Multiplicity = 4

                         Standard orientation:
 ---------------------------------------------------------------------
 Center     Atomic      Atomic             Coordinates (Angstroms)
 Number     Number       Type             X           Y           Z
 ---------------------------------------------------------------------
      1          6           0        0.095310    0.332580    0.677141
      2          6           0        0.259220    0.968438    1.807998
      3          6           0       -0.064014   -0.227898   -0.452545
      4          8           0       -0.217887   -0.804839   -1.524446
 ---------------------------------------------------------------------

 SCF Done:  E(UB3LYP) =  -189.393225708     A.U. after   22 cycles

 The electronic state is 4-A.
 Alpha  occ. eigenvalues --  -18.92998 -10.02895 -10.02112  -9.97933  -0.84072
 Alpha  occ. eigenvalues --   -0.57718  -0.46631  -0.27530  -0.21634  -0.21623
 Alpha  occ. eigenvalues --   -0.19910  -0.11143  -0.11136   0.03771   0.03786
 Alpha virt. eigenvalues --    0.15499   0.16076   0.19229   0.19230   0.19937
 Alpha virt. eigenvalues --    0.22596   0.23019   0.24434   0.28316   0.28331
 Alpha virt. eigenvalues --    0.32985   0.33578   0.33586   0.35671   0.38631

  Beta  occ. eigenvalues --  -18.92019 -10.01914  -9.98694  -9.97838  -0.82216
  Beta  occ. eigenvalues --   -0.54720  -0.41185  -0.25986  -0.18254  -0.18244
  Beta  occ. eigenvalues --   -0.06530  -0.06527
  Beta virt. eigenvalues --    0.01738   0.15181   0.15190   0.15963   0.17176
  Beta virt. eigenvalues --    0.20054   0.20068   0.20092   0.23541   0.23978
  Beta virt. eigenvalues --    0.25190   0.28469   0.28474   0.33288   0.36537

 Mulliken charges and spin densities:
               1          2
     1  C    0.686518  -0.211338
     2  C   -0.303176   2.402285
     3  C   -0.573408   0.512502
     4  O   -0.809934   0.296551
 Sum of Mulliken charges =  -1.00000   3.00000

 Dipole moment (field-independent basis, Debye):
    X=             -0.0894    Y=             -0.3793    Z=             -0.6000  Tot=              0.7154
 Quadrupole moment (field-independent basis, Debye-Ang):
   XX=            -27.0079   YY=            -30.2959   ZZ=            -38.6469
   XY=             -0.9340   XZ=             -1.7114   YZ=             -6.4902

  Exact polarizability:  44.628   4.184  60.266   6.499  27.298  87.391
 Approx polarizability:  48.931   7.131  74.448  12.879  49.348 136.250

                      1                      2                      3
                      A                      A                      A
 Frequencies --     47.4445               282.7260               283.8558
 Red. masses --     12.0028                12.8025                12.8022
 Frc consts  --      0.0159                 0.6029                 0.6078
 IR Inten    --     19.3085                 0.0179                 0.0073

                      4                      5                      6
                      A                      A                      A
 Frequencies --    937.2895              1514.9910              2116.9076
 Red. masses --     13.4895                12.4839                12.2920
 Frc consts  --      6.9822                16.8818                32.4546
 IR Inten    --     32.0777               326.7514               638.0142

 - Thermochemistry -
 -------------------
 Temperature   298.150 Kelvin.  Pressure   1.00000 Atm.
 Atom     1 has atomic number  6 and mass  12.00000

 Molecular mass:    51.99491 amu.
 Principal axes and moments of inertia in atomic units:
                           1         2         3
     Eigenvalues --     0.03129 391.52560 391.55689
           X            0.12539  -0.00000   0.99211
           Y            0.46355   0.88413  -0.05859
           Z            0.87715  -0.46724  -0.11086
 This molecule is an asymmetric top.
 Rotational symmetry number  1.
 Rotational temperatures (Kelvin)   2767.89798     0.22122     0.22120
 Rotational constants (GHZ):       57673.70473     4.60951     4.60914
 Zero-point vibrational energy      31002.5 (Joules/Mol)
                                    7.40978 (Kcal/Mol)
 Warning -- explicit consideration of   3 degrees of freedom as
           vibrations may cause significant error
 Vibrational temperatures:     68.26   406.78   408.40  1348.55  2179.73
          (Kelvin)           3045.75

 Zero-point correction=                           0.011808 (Hartree/Particle)
 Thermal correction to Energy=                    0.016416
 Thermal correction to Enthalpy=                  0.017360
 Thermal correction to Gibbs Free Energy=        -0.013442
 Sum of electronic and zero-point Energies=           -189.381417
 Sum of electronic and thermal Energies=              -189.376810
 Sum of electronic and thermal Enthalpies=            -189.375866
 Sum of electronic and thermal Free Energies=         -189.406668

                     E (Thermal)             CV                S
                      KCal/Mol        Cal/Mol-Kelvin    Cal/Mol-Kelvin
 Total                   10.301             11.879             64.829
 Electronic               0.000              0.000              2.755
 Translational            0.889              2.981             37.769
 Rotational               0.889              2.981             16.224
 Vibrational              8.524              5.918              8.081
 Vibration     1          0.595              1.979              4.921
 Vibration     2          0.682              1.706              1.517
 Vibration     3          0.682              1.704              1.510

 Normal termination of Gaussian 09 at Thu Mar  7 08:52:01 2019.
