 Gaussian 09, Revision E.01,
 Gaussian 09:  EM64L-G09RevE.01 30-Nov-2015

 ------------------------------------------------------
 #p b3lyp/6-311++G(3df,2p) freq IOp(2/17=3) IOp(2/18=3)
 ------------------------------------------------------

 ---------
 b3lyp opt
 ---------
 Symbolic Z-matrix:
 Charge = -1 Multiplicity = 4

                         Standard orientation:
 ---------------------------------------------------------------------
 Center     Atomic      Atomic             Coordinates (Angstroms)
 Number     Number       Type             X           Y           Z
 ---------------------------------------------------------------------
      1          6           0        1.289460    0.040685    0.000000
      2          6           0       -0.084221   -0.291405   -0.000000
      3          6           0       -1.205239   -1.139806   -0.000000
      4          8           0        0.000000    1.042895    0.000000
 ---------------------------------------------------------------------

 SCF Done:  E(UB3LYP) =  -189.324921751     A.U. after   15 cycles

 The electronic state is 4-A'.
 Alpha  occ. eigenvalues --  -19.01921 -10.06837 -10.03230  -9.99678  -0.92743
 Alpha  occ. eigenvalues --   -0.54800  -0.48290  -0.31756  -0.28811  -0.19533
 Alpha  occ. eigenvalues --   -0.13060  -0.10199  -0.09135  -0.01314  -0.01024
 Alpha virt. eigenvalues --    0.16329   0.17070   0.18015   0.18081   0.19951
 Alpha virt. eigenvalues --    0.21900   0.22930   0.23891   0.24098   0.25820
 Alpha virt. eigenvalues --    0.27278   0.28431   0.30311   0.32484   0.36228

  Beta  occ. eigenvalues --  -19.00401 -10.06708 -10.02016  -9.97623  -0.89857
  Beta  occ. eigenvalues --   -0.50106  -0.44213  -0.29079  -0.22183  -0.17137
  Beta  occ. eigenvalues --   -0.09715  -0.06837
  Beta virt. eigenvalues --    0.04480   0.11853   0.12699   0.16872   0.17916
  Beta virt. eigenvalues --    0.18344   0.19016   0.19966   0.23317   0.24530
  Beta virt. eigenvalues --    0.24727   0.26438   0.26466   0.28940   0.30413

 Mulliken charges and spin densities:
               1          2
     1  C   -0.514948   0.899317
     2  C    0.773010   0.093676
     3  C   -0.814626   1.576004
     4  O   -0.443435   0.431003
 Sum of Mulliken charges =  -1.00000   3.00000

 Dipole moment (field-independent basis, Debye):
    X=              0.6810    Y=              2.2119    Z=              0.0000  Tot=              2.3144
 Quadrupole moment (field-independent basis, Debye-Ang):
   XX=            -41.3579   YY=            -34.1469   ZZ=            -26.4051
   XY=             -6.5022   XZ=             -0.0000   YZ=             -0.0000

  Exact polarizability:  75.196  10.786  58.558   0.000   0.000  44.090
 Approx polarizability:  95.785   8.730  83.441   0.000  -0.000  54.680

                      1                      2                      3
                     A'                     A"                     A'
 Frequencies --    376.3948               456.8095               474.5845
 Red. masses --     12.5588                12.0648                13.5085
 Frc consts  --      1.0483                 1.4833                 1.7926
 IR Inten    --      8.0034                55.4300                49.3766

                      4                      5                      6
                     A'                     A'                     A'
 Frequencies --    914.8719              1006.1058              1445.7680
 Red. masses --     12.0166                13.4449                12.2456
 Frc consts  --      5.9259                 8.0185                15.0809
 IR Inten    --      1.1064                56.3569               118.8884

 - Thermochemistry -
 -------------------
 Temperature   298.150 Kelvin.  Pressure   1.00000 Atm.
 Atom     1 has atomic number  6 and mass  12.00000

 Molecular mass:    51.99491 amu.
 Principal axes and moments of inertia in atomic units:
                           1         2         3
     Eigenvalues --    65.18342 190.12677 255.31019
           X            0.74109  -0.67141   0.00000
           Y            0.67141   0.74109   0.00000
           Z            0.00000  -0.00000   1.00000
 This molecule is an asymmetric top.
 Rotational symmetry number  1.
 Rotational temperatures (Kelvin)      1.32877     0.45556     0.33925
 Rotational constants (GHZ):          27.68712     9.49230     7.06882
 Zero-point vibrational energy      27959.9 (Joules/Mol)
                                    6.68258 (Kcal/Mol)
 Warning -- explicit consideration of   3 degrees of freedom as
           vibrations may cause significant error
 Vibrational temperatures:    541.55   657.25   682.82  1316.29  1447.56
          (Kelvin)           2080.14

 Zero-point correction=                           0.010649 (Hartree/Particle)
 Thermal correction to Energy=                    0.014410
 Thermal correction to Enthalpy=                  0.015354
 Thermal correction to Gibbs Free Energy=        -0.016000
 Sum of electronic and zero-point Energies=           -189.314272
 Sum of electronic and thermal Energies=              -189.310512
 Sum of electronic and thermal Enthalpies=            -189.309568
 Sum of electronic and thermal Free Energies=         -189.340921

                     E (Thermal)             CV                S
                      KCal/Mol        Cal/Mol-Kelvin    Cal/Mol-Kelvin
 Total                    9.042             11.075             65.990
 Electronic               0.000              0.000              2.755
 Translational            0.889              2.981             37.769
 Rotational               0.889              2.981             22.675
 Vibrational              7.265              5.114              2.792
 Vibration     1          0.747              1.520              1.054
 Vibration     2          0.815              1.346              0.775
 Vibration     3          0.831              1.306              0.725

 Optimization completed.
    -- Stationary point found.
 Normal termination of Gaussian 09 at Thu Mar  7 08:50:13 2019.
