 Gaussian 09, Revision E.01,
 Gaussian 09:  EM64L-G09RevE.01 30-Nov-2015

 ------------------------------------------------------
 #p b3lyp/6-311++G(3df,2p) freq IOp(2/17=3) IOp(2/18=3)
 ------------------------------------------------------

 ---------
 b3lyp opt
 ---------
 Symbolic Z-matrix:
 Charge = -1 Multiplicity = 2

                         Standard orientation:
 ---------------------------------------------------------------------
 Center     Atomic      Atomic             Coordinates (Angstroms)
 Number     Number       Type             X           Y           Z
 ---------------------------------------------------------------------
      1          6           0       -0.939865   -1.782672    0.000000
      2          6           0       -0.378731   -0.655658    0.000000
      3          6           0       -0.000000    0.648406    0.000000
      4          8           0        0.988947    1.342443   -0.000000
 ---------------------------------------------------------------------

 SCF Done:  E(UB3LYP) =  -189.505244905     A.U. after   18 cycles

 The electronic state is 2-A'.
 Alpha  occ. eigenvalues --  -18.97530 -10.08171  -9.97512  -9.96181  -0.89248
 Alpha  occ. eigenvalues --   -0.57182  -0.45250  -0.31363  -0.25413  -0.24271
 Alpha  occ. eigenvalues --   -0.10294  -0.09190  -0.08223   0.00623
 Alpha virt. eigenvalues --    0.11838   0.15066   0.18049   0.18659   0.19022
 Alpha virt. eigenvalues --    0.19757   0.21520   0.23241   0.25942   0.26655
 Alpha virt. eigenvalues --    0.27115   0.29845   0.32965   0.33637   0.35026

  Beta  occ. eigenvalues --  -18.96829 -10.07259  -9.97120  -9.96174  -0.87847
  Beta  occ. eigenvalues --   -0.56306  -0.43564  -0.30020  -0.23553  -0.21212
  Beta  occ. eigenvalues --   -0.09010  -0.08341  -0.07275
  Beta virt. eigenvalues --    0.11344   0.12854   0.15478   0.18094   0.18826
  Beta virt. eigenvalues --    0.19076   0.19760   0.22009   0.23374   0.26768
  Beta virt. eigenvalues --    0.27139   0.27213   0.31016   0.33025   0.34093

 Mulliken charges and spin densities:
               1          2
     1  C   -1.017234   0.366847
     2  C    0.983574  -0.392276
     3  C   -0.384663   0.881419
     4  O   -0.581677   0.144009
 Sum of Mulliken charges =  -1.00000   1.00000

 Dipole moment (field-independent basis, Debye):
    X=              1.6851    Y=              3.4780    Z=             -0.0000  Tot=              3.8647
 Quadrupole moment (field-independent basis, Debye-Ang):
   XX=            -32.4857   YY=            -43.7738   ZZ=            -25.5038
   XY=             -8.7033   XZ=              0.0000   YZ=             -0.0000

  Exact polarizability:  53.117  18.153  82.459  -0.000  -0.000  38.611
 Approx polarizability:  79.657  42.829 137.906   0.000   0.000  51.498

                      1                      2                      3
                     A"                     A'                     A'
 Frequencies --    218.9180               233.3535               539.9050
 Red. masses --     12.0480                12.6527                12.5919
 Frc consts  --      0.3402                 0.4059                 2.1626
 IR Inten    --      7.7674                 6.4881                 2.2871

                      4                      5                      6
                     A'                     A'                     A'
 Frequencies --    920.1446              1773.5642              1944.9262
 Red. masses --     12.7057                13.0375                12.0783
 Frc consts  --      6.3381                24.1622                26.9191
 IR Inten    --      3.6148               332.1810               499.5033

 - Thermochemistry -
 -------------------
 Temperature   298.150 Kelvin.  Pressure   1.00000 Atm.
 Atom     1 has atomic number  6 and mass  12.00000

 Molecular mass:    51.99491 amu.
 Principal axes and moments of inertia in atomic units:
                           1         2         3
     Eigenvalues --     6.69476 368.72709 375.42185
           X            0.50730   0.86177   0.00000
           Y            0.86177  -0.50730   0.00000
           Z           -0.00000  -0.00000   1.00000
 This molecule is an asymmetric top.
 Rotational symmetry number  1.
 Rotational temperatures (Kelvin)     12.93755     0.23490     0.23071
 Rotational constants (GHZ):         269.57505     4.89452     4.80724
 Zero-point vibrational energy      33679.7 (Joules/Mol)
                                    8.04965 (Kcal/Mol)
 Warning -- explicit consideration of   3 degrees of freedom as
           vibrations may cause significant error
 Vibrational temperatures:    314.97   335.74   776.80  1323.88  2551.76
          (Kelvin)           2798.31

 Zero-point correction=                           0.012828 (Hartree/Particle)
 Thermal correction to Energy=                    0.016951
 Thermal correction to Enthalpy=                  0.017895
 Thermal correction to Gibbs Free Energy=        -0.013046
 Sum of electronic and zero-point Energies=           -189.492417
 Sum of electronic and thermal Energies=              -189.488294
 Sum of electronic and thermal Enthalpies=            -189.487350
 Sum of electronic and thermal Free Energies=         -189.518291

                     E (Thermal)             CV                S
                      KCal/Mol        Cal/Mol-Kelvin    Cal/Mol-Kelvin
 Total                   10.637             11.241             65.121
 Electronic               0.000              0.000              1.377
 Translational            0.889              2.981             37.769
 Rotational               0.889              2.981             21.454
 Vibrational              8.859              5.280              4.521
 Vibration     1          0.647              1.812              1.968
 Vibration     2          0.654              1.790              1.853
 Vibration     3          0.895              1.162              0.565

 Normal termination of Gaussian 09 at Thu Mar  7 20:44:39 2019.
