 Gaussian 09, Revision E.01,
 Gaussian 09:  EM64L-G09RevE.01 30-Nov-2015

 ------------------------------------------------------
 #p b3lyp/6-311++G(3df,2p) freq IOp(2/17=3) IOp(2/18=3)
 ------------------------------------------------------

 ---------
 b3lyp opt
 ---------
 Symbolic Z-matrix:
 Charge = -1 Multiplicity = 4

                         Standard orientation:
 ---------------------------------------------------------------------
 Center     Atomic      Atomic             Coordinates (Angstroms)
 Number     Number       Type             X           Y           Z
 ---------------------------------------------------------------------
      1          6           0        0.749589    0.045315    0.119976
      2          6           0        2.038872    0.041141    0.339510
      3          6           0       -0.503591   -0.024671   -0.081521
      4          8           0       -1.713652   -0.046339   -0.283473
 ---------------------------------------------------------------------

 SCF Done:  E(UB3LYP) =  -189.393225513     A.U. after   22 cycles

 The electronic state is 4-A.
 Alpha  occ. eigenvalues --  -18.93007 -10.02899 -10.02106  -9.97942  -0.84081
 Alpha  occ. eigenvalues --   -0.57722  -0.46628  -0.27537  -0.21642  -0.21628
 Alpha  occ. eigenvalues --   -0.19894  -0.11143  -0.11135   0.03766   0.03785
 Alpha virt. eigenvalues --    0.15502   0.16086   0.19231   0.19233   0.19932
 Alpha virt. eigenvalues --    0.22506   0.23023   0.24541   0.28304   0.28321
 Alpha virt. eigenvalues --    0.32963   0.33570   0.33585   0.35662   0.38547

  Beta  occ. eigenvalues --  -18.92028 -10.01919  -9.98689  -9.97847  -0.82223
  Beta  occ. eigenvalues --   -0.54722  -0.41182  -0.25992  -0.18259  -0.18246
  Beta  occ. eigenvalues --   -0.06532  -0.06528
  Beta virt. eigenvalues --    0.01734   0.15182   0.15193   0.15962   0.17180
  Beta virt. eigenvalues --    0.20050   0.20069   0.20091   0.23455   0.23980
  Beta virt. eigenvalues --    0.25297   0.28458   0.28459   0.33281   0.36516

 Mulliken charges and spin densities:
               1          2
     1  C    0.679445  -0.212012
     2  C   -0.311483   2.400701
     3  C   -0.558674   0.514563
     4  O   -0.809288   0.296748
 Sum of Mulliken charges =  -1.00000   3.00000

 Dipole moment (field-independent basis, Debye):
    X=             -0.7088    Y=              0.0435    Z=             -0.1273  Tot=              0.7214
 Quadrupole moment (field-independent basis, Debye-Ang):
   XX=            -42.0133   YY=            -26.7554   ZZ=            -27.1926
   XY=             -0.1726   XZ=             -2.5612   YZ=             -0.0305

  Exact polarizability: 103.903  -3.212  43.624  10.779  -0.619  45.749
 Approx polarizability: 162.617   0.508  47.158  19.531   0.075  50.387

                      1                      2                      3
                      A                      A                      A
 Frequencies --     21.4299               281.8037               282.9466
 Red. masses --     12.0018                12.8035                12.8023
 Frc consts  --      0.0032                 0.5991                 0.6039
 IR Inten    --     22.4843                 0.0206                 0.0151

                      4                      5                      6
                      A                      A                      A
 Frequencies --    936.3855              1512.9924              2116.0637
 Red. masses --     13.4860                12.4862                12.2926
 Frc consts  --      6.9670                16.8404                32.4304
 IR Inten    --     30.1902               337.9886               629.9626

 - Thermochemistry -
 -------------------
 Temperature   298.150 Kelvin.  Pressure   1.00000 Atm.
 Atom     1 has atomic number  6 and mass  12.00000

 Molecular mass:    51.99491 amu.
 Principal axes and moments of inertia in atomic units:
                           1         2         3
     Eigenvalues --     0.04146 391.51905 391.56051
           X            0.98624   0.00000  -0.16531
           Y            0.02620   0.98736   0.15634
           Z            0.16322  -0.15852   0.97377
 This molecule is an asymmetric top.
 Rotational symmetry number  1.
 Rotational temperatures (Kelvin)   2088.91621     0.22123     0.22120
 Rotational constants (GHZ):       43526.00338     4.60959     4.60910
 Zero-point vibrational energy      30813.5 (Joules/Mol)
                                    7.36461 (Kcal/Mol)
 Warning -- explicit consideration of   3 degrees of freedom as
           vibrations may cause significant error
 Vibrational temperatures:     30.83   405.45   407.10  1347.25  2176.86
          (Kelvin)           3044.54

 Zero-point correction=                           0.011736 (Hartree/Particle)
 Thermal correction to Energy=                    0.016402
 Thermal correction to Enthalpy=                  0.017347
 Thermal correction to Gibbs Free Energy=        -0.014343
 Sum of electronic and zero-point Energies=           -189.381489
 Sum of electronic and thermal Energies=              -189.376823
 Sum of electronic and thermal Enthalpies=            -189.375879
 Sum of electronic and thermal Free Energies=         -189.407568

                     E (Thermal)             CV                S
                      KCal/Mol        Cal/Mol-Kelvin    Cal/Mol-Kelvin
 Total                   10.293             11.891             66.696
 Electronic               0.000              0.000              2.755
 Translational            0.889              2.981             37.769
 Rotational               0.889              2.981             16.504
 Vibrational              8.515              5.929              9.668
 Vibration     1          0.593              1.985              6.497
 Vibration     2          0.681              1.707              1.523
 Vibration     3          0.682              1.705              1.516

 Normal termination of Gaussian 09 at Thu Mar  7 09:02:18 2019.
