 Gaussian 09, Revision E.01,
 Gaussian 09:  EM64L-G09RevE.01 30-Nov-2015

 ------------------------------------------------------
 #p b3lyp/6-311++G(3df,2p) freq IOp(2/17=3) IOp(2/18=3)
 ------------------------------------------------------

 ---------
 b3lyp opt
 ---------
 Symbolic Z-matrix:
 Charge = -1 Multiplicity = 2

                         Standard orientation:
 ---------------------------------------------------------------------
 Center     Atomic      Atomic             Coordinates (Angstroms)
 Number     Number       Type             X           Y           Z
 ---------------------------------------------------------------------
      1          6           0       -0.135022    0.336689   -0.000000
      2          6           0       -0.000000    1.818381   -0.000000
      3          6           0       -1.251514    1.319130   -0.000000
      4          6           0        0.340174   -0.852573    0.000000
      5          8           0        0.784772   -1.966219    0.000000
 ---------------------------------------------------------------------

 SCF Done:  E(UB3LYP) =  -227.562550724     A.U. after   17 cycles

 The electronic state is 2-A".
 Alpha  occ. eigenvalues --  -18.99952 -10.09244 -10.03640  -9.99580  -9.99502
 Alpha  occ. eigenvalues --   -0.91813  -0.69787  -0.55792  -0.34065  -0.28741
 Alpha  occ. eigenvalues --   -0.28584  -0.22905  -0.22603  -0.17667  -0.06702
 Alpha  occ. eigenvalues --   -0.04486  -0.02331
 Alpha virt. eigenvalues --    0.13897   0.14718   0.17437   0.17712   0.17993
 Alpha virt. eigenvalues --    0.18162   0.19158   0.19732   0.22105   0.22869
 Alpha virt. eigenvalues --    0.25895   0.26753   0.26840   0.26908   0.28175

  Beta  occ. eigenvalues --  -18.99278 -10.08798 -10.03457  -9.99314  -9.99238
  Beta  occ. eigenvalues --   -0.90597  -0.68898  -0.53724  -0.33127  -0.28222
  Beta  occ. eigenvalues --   -0.24865  -0.22334  -0.21992  -0.14650  -0.06365
  Beta  occ. eigenvalues --   -0.03876
  Beta virt. eigenvalues --    0.06651   0.13982   0.15080   0.17452   0.18103
  Beta virt. eigenvalues --    0.18366   0.18728   0.19240   0.19811   0.22476
  Beta virt. eigenvalues --    0.22962   0.25863   0.26884   0.27849   0.28005

 Mulliken charges and spin densities:
               1          2
     1  C    0.494075   0.111604
     2  C   -0.217387   0.239939
     3  C   -0.216634   0.239560
     4  C   -0.342163   0.196505
     5  O   -0.717891   0.212392
 Sum of Mulliken charges =  -1.00000   1.00000

 Dipole moment (field-independent basis, Debye):
    X=              1.3820    Y=             -3.4649    Z=              0.0000  Tot=              3.7304
 Quadrupole moment (field-independent basis, Debye-Ang):
   XX=            -40.1136   YY=            -50.7960   ZZ=            -30.9499
   XY=              5.0733   XZ=             -0.0000   YZ=              0.0000

  Exact polarizability:  63.025 -17.463  99.782   0.000   0.000  41.292
 Approx polarizability:  94.887 -46.866 193.581   0.000   0.000  58.433

                      1                      2                      3
                     A'                     A"                     A"
 Frequencies --    178.0286               250.0132               433.7926
 Red. masses --     12.6612                12.7280                12.1482
 Frc consts  --      0.2364                 0.4687                 1.3469
 IR Inten    --      6.2003                10.5264                 0.0480

                      4                      5                      6
                     A'                     A'                     A'
 Frequencies --    534.1703               658.0604               746.1504
 Red. masses --     12.2479                12.8994                12.0583
 Frc consts  --      2.0591                 3.2912                 3.9554
 IR Inten    --      5.1952                20.1516                 0.4200

                      7                      8                      9
                     A'                     A'                     A'
 Frequencies --   1255.9063              1518.0528              2112.1149
 Red. masses --     12.7210                12.2985                12.4566
 Frc consts  --     11.8218                16.6985                32.7405
 IR Inten    --      0.8975                78.1008              1202.6704

 - Thermochemistry -
 -------------------
 Temperature   298.150 Kelvin.  Pressure   1.00000 Atm.
 Atom     1 has atomic number  6 and mass  12.00000

 Molecular mass:    63.99491 amu.
 Principal axes and moments of inertia in atomic units:
                           1         2         3
     Eigenvalues --    38.90047 542.22769 581.12816
           X           -0.37062   0.92878   0.00000
           Y            0.92878   0.37062   0.00000
           Z           -0.00000  -0.00000   1.00000
 This molecule is an asymmetric top.
 Rotational symmetry number  1.
 Rotational temperatures (Kelvin)      2.22655     0.15974     0.14904
 Rotational constants (GHZ):          46.39381     3.32838     3.10558
 Zero-point vibrational energy      45974.2 (Joules/Mol)
                                   10.98810 (Kcal/Mol)
 Warning -- explicit consideration of   4 degrees of freedom as
           vibrations may cause significant error
 Vibrational temperatures:    256.14   359.71   624.13   768.55   946.80
          (Kelvin)           1073.54  1806.97  2184.14  3038.86

 Zero-point correction=                           0.017511 (Hartree/Particle)
 Thermal correction to Energy=                    0.022148
 Thermal correction to Enthalpy=                  0.023092
 Thermal correction to Gibbs Free Energy=        -0.010143
 Sum of electronic and zero-point Energies=           -227.545040
 Sum of electronic and thermal Energies=              -227.540403
 Sum of electronic and thermal Enthalpies=            -227.539459
 Sum of electronic and thermal Free Energies=         -227.572694

                     E (Thermal)             CV                S
                      KCal/Mol        Cal/Mol-Kelvin    Cal/Mol-Kelvin
 Total                   13.898             14.069             69.949
 Electronic               0.000              0.000              1.377
 Translational            0.889              2.981             38.388
 Rotational               0.889              2.981             24.020
 Vibrational             12.121              8.107              6.164
 Vibration     1          0.628              1.869              2.349
 Vibration     2          0.663              1.763              1.730
 Vibration     3          0.795              1.397              0.846
 Vibration     4          0.889              1.174              0.578

 Optimization completed.
    -- Stationary point found.
 Normal termination of Gaussian 09 at Thu Mar  7 09:10:53 2019.
