 Gaussian 09, Revision E.01,
 Gaussian 09:  EM64L-G09RevE.01 30-Nov-2015

 ------------------------------------------------------
 #p b3lyp/6-311++G(3df,2p) freq IOp(2/17=3) IOp(2/18=3)
 ------------------------------------------------------

 ---------
 b3lyp opt
 ---------
 Symbolic Z-matrix:
 Charge = -1 Multiplicity = 2

                         Standard orientation:
 ---------------------------------------------------------------------
 Center     Atomic      Atomic             Coordinates (Angstroms)
 Number     Number       Type             X           Y           Z
 ---------------------------------------------------------------------
      1          6           0        0.000000    0.000000   -2.713443
      2          6           0        0.000000    0.000000   -1.443687
      3          6           0       -0.000000   -0.000000    1.142490
      4          6           0        0.000000    0.000000   -0.113633
      5          8           0       -0.000000   -0.000000    2.346204
 ---------------------------------------------------------------------

 SCF Done:  E(UB3LYP) =  -227.613302541     A.U. after   17 cycles

 Unable to determine electronic state:  partially filled degenerate orbitals.
 Alpha  occ. eigenvalues --  -18.99482 -10.09547 -10.02254  -9.99941  -9.98647
 Alpha  occ. eigenvalues --   -0.91314  -0.62835  -0.55429  -0.43073  -0.33319
 Alpha  occ. eigenvalues --   -0.28051  -0.26716  -0.16537  -0.15128  -0.09794
 Alpha  occ. eigenvalues --   -0.05597  -0.03791
 Alpha virt. eigenvalues --    0.13346   0.16232   0.16950   0.17204   0.17716
 Alpha virt. eigenvalues --    0.18097   0.18350   0.21057   0.21589   0.22151
 Alpha virt. eigenvalues --    0.26498   0.26785   0.27444   0.31705   0.31871

  Beta  occ. eigenvalues --  -18.98945 -10.09390 -10.01922  -9.99840  -9.98086
  Beta  occ. eigenvalues --   -0.90362  -0.61575  -0.53652  -0.42222  -0.32653
  Beta  occ. eigenvalues --   -0.26384  -0.25238  -0.14812  -0.13223  -0.08724
  Beta  occ. eigenvalues --   -0.03166
  Beta virt. eigenvalues --    0.03132   0.13409   0.17031   0.17364   0.17763
  Beta virt. eigenvalues --    0.17853   0.18378   0.18583   0.21757   0.22225
  Beta virt. eigenvalues --    0.22512   0.26749   0.26793   0.27504   0.31914

 Mulliken charges and spin densities:
               1          2
     1  C   -1.240083   0.332999
     2  C    0.729330   0.172566
     3  C   -0.072156  -0.054382
     4  C    0.332304   0.363217
     5  O   -0.749395   0.185600
 Sum of Mulliken charges =  -1.00000   1.00000

 Dipole moment (field-independent basis, Debye):
    X=             -0.0000    Y=             -0.0000    Z=              5.0317  Tot=              5.0317
 Quadrupole moment (field-independent basis, Debye-Ang):
   XX=            -30.4520   YY=            -32.3707   ZZ=            -68.7094
   XY=             -0.0000   XZ=              0.0000   YZ=              0.0000

  Exact polarizability:  40.623  -0.000  41.563  -0.000   0.000 139.307
 Approx polarizability:  55.351   0.000  56.018  -0.000  -0.000 266.561

                      1                      2                      3
                     ?A                     ?A                     ?A
 Frequencies --    124.7230               151.5864               406.6885
 Red. masses --     12.5185                12.6371                12.1305
 Frc consts  --      0.1147                 0.1711                 1.1821
 IR Inten    --      4.4074                13.8391                 4.7788

                      4                      5                      6
                     ?A                     ?A                     ?A
 Frequencies --    433.8537               464.9211               569.4306
 Red. masses --     12.0193                12.5400                12.3066
 Frc consts  --      1.3330                 1.5970                 2.3511
 IR Inten    --      4.2649                 3.5871                 9.0135

                      7                      8                      9
                     SG                     SG                     SG
 Frequencies --    753.4483              1466.8110              1942.9186
 Red. masses --     13.1477                12.9410                12.1533
 Frc consts  --      4.3975                16.4046                27.0304
 IR Inten    --      8.0054               132.8549               354.0518

                     10
                     SG
 Frequencies --   2248.6847
 Red. masses --     12.1793
 Frc consts  --     36.2851
 IR Inten    --    885.9491

 - Thermochemistry -
 -------------------
 Temperature   298.150 Kelvin.  Pressure   1.00000 Atm.
 Atom     1 has atomic number  6 and mass  12.00000

 Molecular mass:    63.99491 amu.
 Principal axes and moments of inertia in atomic units:
                           1         2         3
     Eigenvalues --     0.00000 775.73953 775.73953
           X           -0.00000   0.19614   0.98058
           Y           -0.00000   0.98058  -0.19614
           Z            1.00000   0.00000   0.00000
 This molecule is a prolate symmetric top.
 Rotational symmetry number  1.
 Warning -- assumption of classical behavior for rotation
           may cause significant error
 Rotational temperature (Kelvin)      0.11165
 Rotational constant (GHZ):           2.326478
 Zero-point vibrational energy      51218.5 (Joules/Mol)
                                   12.24152 (Kcal/Mol)
 Warning -- explicit consideration of   6 degrees of freedom as
           vibrations may cause significant error
 Vibrational temperatures:    179.45   218.10   585.13   624.22   668.92
          (Kelvin)            819.28  1084.04  2110.41  2795.42  3235.35

 Zero-point correction=                           0.019508 (Hartree/Particle)
 Thermal correction to Energy=                    0.024307
 Thermal correction to Enthalpy=                  0.025251
 Thermal correction to Gibbs Free Energy=        -0.006305
 Sum of electronic and zero-point Energies=           -227.593794
 Sum of electronic and thermal Energies=              -227.588996
 Sum of electronic and thermal Enthalpies=            -227.588052
 Sum of electronic and thermal Free Energies=         -227.619608

                     E (Thermal)             CV                S
                      KCal/Mol        Cal/Mol-Kelvin    Cal/Mol-Kelvin
 Total                   15.253             14.909             66.415
 Electronic               0.000              0.000              1.377
 Translational            0.889              2.981             38.388
 Rotational               0.592              1.987             17.666
 Vibrational             13.772              9.941              8.984
 Vibration     1          0.610              1.928              3.026
 Vibration     2          0.619              1.901              2.652
 Vibration     3          0.771              1.456              0.938
 Vibration     4          0.795              1.396              0.846
 Vibration     5          0.822              1.328              0.752
 Vibration     6          0.925              1.097              0.505

 Optimization completed.
    -- Stationary point found.
 Normal termination of Gaussian 09 at Thu Mar  7 09:26:08 2019.
