 Gaussian 09, Revision E.01,
 Gaussian 09:  EM64L-G09RevE.01 30-Nov-2015

 ------------------------------------------------------
 #p b3lyp/6-311++G(3df,2p) freq IOp(2/17=3) IOp(2/18=3)
 ------------------------------------------------------

 ---------
 b3lyp opt
 ---------
 Symbolic Z-matrix:
 Charge = -1 Multiplicity = 4

                         Standard orientation:
 ---------------------------------------------------------------------
 Center     Atomic      Atomic             Coordinates (Angstroms)
 Number     Number       Type             X           Y           Z
 ---------------------------------------------------------------------
      1          6           0       -0.224155    0.601827    0.853737
      2          6           0       -0.224155    0.601827   -0.853737
      3          6           0        0.000000    1.688942   -0.000000
      4          6           0        0.158260   -0.537843    0.000000
      5          8           0        0.217532   -1.766065    0.000000
 ---------------------------------------------------------------------

 SCF Done:  E(UB3LYP) =  -227.448548513     A.U. after   18 cycles

 The electronic state is 4-A".
 Alpha  occ. eigenvalues --  -18.92313 -10.07475 -10.03697 -10.03693 -10.02286
 Alpha  occ. eigenvalues --   -0.84675  -0.74521  -0.45669  -0.38236  -0.27704
 Alpha  occ. eigenvalues --   -0.25692  -0.24405  -0.17469  -0.15947  -0.10349
 Alpha  occ. eigenvalues --   -0.09571  -0.00447   0.02877
 Alpha virt. eigenvalues --    0.14385   0.15731   0.16544   0.18062   0.19260
 Alpha virt. eigenvalues --    0.20137   0.21335   0.22139   0.22889   0.23797
 Alpha virt. eigenvalues --    0.25686   0.26231   0.26688   0.27609   0.27943

  Beta  occ. eigenvalues --  -18.91658 -10.06744 -10.02638 -10.02632 -10.00118
  Beta  occ. eigenvalues --   -0.83321  -0.71997  -0.41806  -0.34548  -0.25949
  Beta  occ. eigenvalues --   -0.22550  -0.21071  -0.11837  -0.09965  -0.07816
  Beta virt. eigenvalues --    0.03418   0.10739   0.14306   0.15416   0.16342
  Beta virt. eigenvalues --    0.16915   0.18544   0.20716   0.21367   0.21951
  Beta virt. eigenvalues --    0.22310   0.23346   0.24724   0.25738   0.26487

 Mulliken charges and spin densities:
               1          2
     1  C   -0.114999   0.465212
     2  C   -0.114999   0.465212
     3  C   -0.381405   1.436688
     4  C    0.372229   0.426601
     5  O   -0.760826   0.206286
 Sum of Mulliken charges =  -1.00000   3.00000

 Dipole moment (field-independent basis, Debye):
    X=              0.5190    Y=              0.3748    Z=              0.0000  Tot=              0.6402
 Quadrupole moment (field-independent basis, Debye-Ang):
   XX=            -32.8913   YY=            -45.8525   ZZ=            -35.8859
   XY=              1.4812   XZ=             -0.0000   YZ=             -0.0000

  Exact polarizability:  43.853  -1.752  89.855   0.000   0.000  66.151
 Approx polarizability:  59.143  -5.844 150.775   0.000   0.000 112.322

                      1                      2                      3
                     A'                     A"                     A'
 Frequencies --    305.1612               487.4475               559.5952
 Red. masses --     12.6813                12.7862                12.0445
 Frc consts  --      0.6958                 1.7900                 2.2222
 IR Inten    --     14.2034                 1.8582                 3.3007

                      4                      5                      6
                     A'                     A"                     A'
 Frequencies --    634.8832               699.6928               879.1102
 Red. masses --     12.6026                12.1869                12.8356
 Frc consts  --      2.9929                 3.5153                 5.8446
 IR Inten    --     15.7935                62.3436                12.7737

                      7                      8                      9
                     A"                     A'                     A'
 Frequencies --   1006.5893              1302.7022              1681.4599
 Red. masses --     12.0037                12.0254                12.9568
 Frc consts  --      7.1659                12.0237                21.5834
 IR Inten    --      9.0274                 5.6685               781.6011

 - Thermochemistry -
 -------------------
 Temperature   298.150 Kelvin.  Pressure   1.00000 Atm.
 Atom     1 has atomic number  6 and mass  12.00000

 Molecular mass:    63.99491 amu.
 Principal axes and moments of inertia in atomic units:
                           1         2         3
     Eigenvalues --    66.48825 351.91239 410.35995
           X           -0.10869   0.00000   0.99408
           Y            0.99408   0.00000   0.10869
           Z            0.00000   1.00000   0.00000
 This molecule is an asymmetric top.
 Rotational symmetry number  1.
 Rotational temperatures (Kelvin)      1.30269     0.24612     0.21107
 Rotational constants (GHZ):          27.14376     5.12838     4.39795
 Zero-point vibrational energy      45198.8 (Joules/Mol)
                                   10.80276 (Kcal/Mol)
 Warning -- explicit consideration of   3 degrees of freedom as
           vibrations may cause significant error
 Vibrational temperatures:    439.06   701.33   805.13   913.45  1006.70
          (Kelvin)           1264.84  1448.26  1874.30  2419.24

 Zero-point correction=                           0.017215 (Hartree/Particle)
 Thermal correction to Energy=                    0.021241
 Thermal correction to Enthalpy=                  0.022185
 Thermal correction to Gibbs Free Energy=        -0.010361
 Sum of electronic and zero-point Energies=           -227.431333
 Sum of electronic and thermal Energies=              -227.427308
 Sum of electronic and thermal Enthalpies=            -227.426363
 Sum of electronic and thermal Free Energies=         -227.458909

                     E (Thermal)             CV                S
                      KCal/Mol        Cal/Mol-Kelvin    Cal/Mol-Kelvin
 Total                   13.329             12.896             68.498
 Electronic               0.000              0.000              2.755
 Translational            0.889              2.981             38.388
 Rotational               0.889              2.981             23.778
 Vibrational             11.551              6.934              3.578
 Vibration     1          0.696              1.664              1.388
 Vibration     2          0.843              1.278              0.690
 Vibration     3          0.915              1.119              0.525

 Optimization completed.
    -- Stationary point found.
 Normal termination of Gaussian 09 at Thu Mar  7 09:45:38 2019.
