 Gaussian 09, Revision E.01,
 Gaussian 09:  EM64L-G09RevE.01 30-Nov-2015

 ------------------------------------------------------
 #p b3lyp/6-311++G(3df,2p) freq IOp(2/17=3) IOp(2/18=3)
 ------------------------------------------------------

 ---------
 b3lyp opt
 ---------
 Symbolic Z-matrix:
 Charge = -1 Multiplicity = 2

                         Standard orientation:
 ---------------------------------------------------------------------
 Center     Atomic      Atomic             Coordinates (Angstroms)
 Number     Number       Type             X           Y           Z
 ---------------------------------------------------------------------
      1          6           0        0.000000    0.000000   -0.113597
      2          6           0        0.000000    0.000000   -1.443732
      3          6           0       -0.000000   -0.000000    1.142534
      4          6           0        0.000000    0.000000   -2.713510
      5          8           0       -0.000000   -0.000000    2.346229
 ---------------------------------------------------------------------

 SCF Done:  E(UB3LYP) =  -227.613302533     A.U. after   17 cycles

 Unable to determine electronic state:  partially filled degenerate orbitals.
 Alpha  occ. eigenvalues --  -18.99482 -10.09547 -10.02255  -9.99943  -9.98648
 Alpha  occ. eigenvalues --   -0.91315  -0.62834  -0.55428  -0.43072  -0.33319
 Alpha  occ. eigenvalues --   -0.28052  -0.26716  -0.16536  -0.15127  -0.09795
 Alpha  occ. eigenvalues --   -0.05597  -0.03791
 Alpha virt. eigenvalues --    0.13346   0.16232   0.16950   0.17204   0.17716
 Alpha virt. eigenvalues --    0.18097   0.18350   0.21057   0.21588   0.22151
 Alpha virt. eigenvalues --    0.26498   0.26785   0.27444   0.31705   0.31871

  Beta  occ. eigenvalues --  -18.98945 -10.09390 -10.01923  -9.99842  -9.98086
  Beta  occ. eigenvalues --   -0.90363  -0.61573  -0.53652  -0.42220  -0.32654
  Beta  occ. eigenvalues --   -0.26385  -0.25239  -0.14811  -0.13222  -0.08725
  Beta  occ. eigenvalues --   -0.03167
  Beta virt. eigenvalues --    0.03131   0.13409   0.17031   0.17364   0.17763
  Beta virt. eigenvalues --    0.17853   0.18378   0.18583   0.21757   0.22225
  Beta virt. eigenvalues --    0.22512   0.26749   0.26793   0.27504   0.31915

 Mulliken charges and spin densities:
               1          2
     1  C    0.332322   0.363231
     2  C    0.729156   0.172555
     3  C   -0.072143  -0.054377
     4  C   -1.239952   0.332998
     5  O   -0.749383   0.185593
 Sum of Mulliken charges =  -1.00000   1.00000

 Dipole moment (field-independent basis, Debye):
    X=             -0.0000    Y=             -0.0000    Z=              5.0320  Tot=              5.0320
 Quadrupole moment (field-independent basis, Debye-Ang):
   XX=            -30.4522   YY=            -32.3710   ZZ=            -68.7096
   XY=             -0.0000   XZ=              0.0000   YZ=              0.0000

  Exact polarizability:  40.623  -0.000  41.564  -0.000  -0.000 139.310
 Approx polarizability:  55.352   0.000  56.019  -0.000  -0.000 266.564

                      1                      2                      3
                     ?A                     ?A                     ?A
 Frequencies --    124.8418               151.6590               406.8008
 Red. masses --     12.5187                12.6372                12.1306
 Frc consts  --      0.1150                 0.1713                 1.1828
 IR Inten    --      4.4071                13.8375                 4.7742

                      4                      5                      6
                     ?A                     ?A                     ?A
 Frequencies --    433.9602               464.9132               569.4352
 Red. masses --     12.0195                12.5397                12.3064
 Frc consts  --      1.3336                 1.5969                 2.3511
 IR Inten    --      4.2720                 3.5800                 9.0160

                      7                      8                      9
                     SG                     SG                     SG
 Frequencies --    753.3637              1466.7785              1942.7427
 Red. masses --     13.1474                12.9411                12.1532
 Frc consts  --      4.3964                16.4040                27.0253
 IR Inten    --      7.9953               132.7436               353.6833

                     10
                     SG
 Frequencies --   2248.6043
 Red. masses --     12.1795
 Frc consts  --     36.2832
 IR Inten    --    886.5760

 - Thermochemistry -
 -------------------
 Temperature   298.150 Kelvin.  Pressure   1.00000 Atm.
 Atom     1 has atomic number  6 and mass  12.00000

 Molecular mass:    63.99491 amu.
 Principal axes and moments of inertia in atomic units:
                           1         2         3
     Eigenvalues --     0.00000 775.77112 775.77112
           X           -0.00000   0.61966   0.78487
           Y           -0.00000   0.78487  -0.61966
           Z            1.00000   0.00000   0.00000
 This molecule is a prolate symmetric top.
 Rotational symmetry number  1.
 Warning -- assumption of classical behavior for rotation
           may cause significant error
 Rotational temperature (Kelvin)      0.11165
 Rotational constant (GHZ):           2.326384
 Zero-point vibrational energy      51218.7 (Joules/Mol)
                                   12.24156 (Kcal/Mol)
 Warning -- explicit consideration of   6 degrees of freedom as
           vibrations may cause significant error
 Vibrational temperatures:    179.62   218.20   585.29   624.37   668.91
          (Kelvin)            819.29  1083.92  2110.36  2795.17  3235.24

 Zero-point correction=                           0.019508 (Hartree/Particle)
 Thermal correction to Energy=                    0.024306
 Thermal correction to Enthalpy=                  0.025251
 Thermal correction to Gibbs Free Energy=        -0.006304
 Sum of electronic and zero-point Energies=           -227.593794
 Sum of electronic and thermal Energies=              -227.588996
 Sum of electronic and thermal Enthalpies=            -227.588052
 Sum of electronic and thermal Free Energies=         -227.619607

                     E (Thermal)             CV                S
                      KCal/Mol        Cal/Mol-Kelvin    Cal/Mol-Kelvin
 Total                   15.252             14.908             66.412
 Electronic               0.000              0.000              1.377
 Translational            0.889              2.981             38.388
 Rotational               0.592              1.987             17.666
 Vibrational             13.771              9.940              8.981
 Vibration     1          0.610              1.928              3.024
 Vibration     2          0.619              1.901              2.651
 Vibration     3          0.772              1.455              0.938
 Vibration     4          0.795              1.396              0.846
 Vibration     5          0.822              1.328              0.752
 Vibration     6          0.925              1.097              0.505

 Optimization completed.
    -- Stationary point found.
 Normal termination of Gaussian 09 at Thu Mar  7 09:26:50 2019.
