 Gaussian 09, Revision E.01,
 Gaussian 09:  EM64L-G09RevE.01 30-Nov-2015

 ------------------------------------------------------
 #p b3lyp/6-311++G(3df,2p) freq IOp(2/17=3) IOp(2/18=3)
 ------------------------------------------------------

 ---------
 b3lyp opt
 ---------
 Symbolic Z-matrix:
 Charge = -1 Multiplicity = 4

                         Standard orientation:
 ---------------------------------------------------------------------
 Center     Atomic      Atomic             Coordinates (Angstroms)
 Number     Number       Type             X           Y           Z
 ---------------------------------------------------------------------
      1          6           0        0.000000    0.000000   -0.742719
      2          8           0        0.000000    0.000000    0.557039
 ---------------------------------------------------------------------

 SCF Done:  E(UB3LYP) =  -113.137277634     A.U. after   15 cycles

 The electronic state is 4-SG.
 Alpha  occ. eigenvalues --  -18.89471 -10.01126  -0.77298  -0.31507  -0.16172
 Alpha  occ. eigenvalues --   -0.14703  -0.14703   0.08679   0.08679
 Alpha virt. eigenvalues --    0.18304   0.20472   0.21990   0.21990   0.35663
 Alpha virt. eigenvalues --    0.39175   0.39175   0.42615   0.53604   0.54493
 Alpha virt. eigenvalues --    0.54493   0.64979   0.64979   0.71947   0.76628

  Beta  occ. eigenvalues --  -18.87439  -9.97739  -0.72461  -0.22128  -0.08507
  Beta  occ. eigenvalues --   -0.08507
  Beta virt. eigenvalues --    0.03019   0.19565   0.19792   0.19792   0.21813
  Beta virt. eigenvalues --    0.28237   0.28237   0.36236   0.39786   0.39786
  Beta virt. eigenvalues --    0.44371   0.57416   0.57418   0.58047   0.68804

 Mulliken charges and spin densities:
               1          2
     1  C   -0.501912   2.565816
     2  O   -0.498088   0.434184
 Sum of Mulliken charges =  -1.00000   3.00000

 Dipole moment (field-independent basis, Debye):
    X=              0.0000    Y=              0.0000    Z=              1.2794  Tot=              1.2794
 Quadrupole moment (field-independent basis, Debye-Ang):
   XX=            -18.0000   YY=            -18.0000   ZZ=            -18.9254
   XY=              0.0000   XZ=              0.0000   YZ=              0.0000

  Exact polarizability:  64.687  -0.000  64.687   0.000  -0.000  40.216
 Approx polarizability:  49.945  -0.000  49.945  -0.000  -0.000  51.527

                      1
                     SG
 Frequencies --   1240.4468
 Red. masses --     13.4388
 Frc consts  --     12.1833
 IR Inten    --    172.1430

 - Thermochemistry -
 -------------------
 Temperature   298.150 Kelvin.  Pressure   1.00000 Atm.
 Atom     1 has atomic number  6 and mass  12.00000

 Molecular mass:    27.99491 amu.
 Principal axes and moments of inertia in atomic units:
                           1         2         3
     Eigenvalues --     0.00000  41.36250  41.36250
           X            0.00000  -0.00000   1.00000
           Y            0.00000   1.00000   0.00000
           Z            1.00000   0.00000   0.00000
 This molecule is a prolate symmetric top.
 Rotational symmetry number  1.
 Rotational temperature (Kelvin)      2.09402
 Rotational constant (GHZ):          43.632307
 Zero-point vibrational energy       7419.5 (Joules/Mol)
                                    1.77331 (Kcal/Mol)
 Vibrational temperatures:   1784.72
          (Kelvin)

 Zero-point correction=                           0.002826 (Hartree/Particle)
 Thermal correction to Energy=                    0.005201
 Thermal correction to Enthalpy=                  0.006145
 Thermal correction to Gibbs Free Energy=        -0.017875
 Sum of electronic and zero-point Energies=           -113.134452
 Sum of electronic and thermal Energies=              -113.132077
 Sum of electronic and thermal Enthalpies=            -113.131133
 Sum of electronic and thermal Free Energies=         -113.155152

                     E (Thermal)             CV                S
                      KCal/Mol        Cal/Mol-Kelvin    Cal/Mol-Kelvin
 Total                    3.263              5.148             50.554
 Electronic               0.000              0.000              2.755
 Translational            0.889              2.981             35.923
 Rotational               0.592              1.987             11.841
 Vibrational              1.782              0.180              0.035

 Optimization completed.
    -- Stationary point found.
 Normal termination of Gaussian 09 at Thu Mar  7 09:49:11 2019.
