 Gaussian 09, Revision E.01,
 Gaussian 09:  EM64L-G09RevE.01 30-Nov-2015

 ------------------------------------------------------
 #p b3lyp/6-311++G(3df,2p) freq IOp(2/17=3) IOp(2/18=3)
 ------------------------------------------------------

 ---------
 b3lyp opt
 ---------
 Symbolic Z-matrix:
 Charge = -1 Multiplicity = 2

                         Standard orientation:
 ---------------------------------------------------------------------
 Center     Atomic      Atomic             Coordinates (Angstroms)
 Number     Number       Type             X           Y           Z
 ---------------------------------------------------------------------
      1          6           0        0.000000    0.000000   -0.675908
      2          8           0        0.000000    0.000000    0.506931
 ---------------------------------------------------------------------

 SCF Done:  E(UB3LYP) =  -113.312196262     A.U. after   13 cycles

 Unable to determine electronic state:  an orbital has unidentified symmetry.
 Alpha  occ. eigenvalues --  -18.93909 -10.00865  -0.86077  -0.31584  -0.20519
 Alpha  occ. eigenvalues --   -0.19356  -0.12191   0.11955
 Alpha virt. eigenvalues --    0.17459   0.17923   0.21194   0.22351   0.24510
 Alpha virt. eigenvalues --    0.34313   0.37623   0.37748   0.41546   0.53836
 Alpha virt. eigenvalues --    0.54034   0.59224   0.67436   0.68195   0.72662

  Beta  occ. eigenvalues --  -18.93293 -10.00346  -0.84975  -0.30177  -0.18888
  Beta  occ. eigenvalues --   -0.17012  -0.10520
  Beta virt. eigenvalues --    0.17848   0.18290   0.19263   0.21502   0.24863
  Beta virt. eigenvalues --    0.26416   0.34549   0.37388   0.37914   0.41705
  Beta virt. eigenvalues --    0.55133   0.55183   0.59725   0.68179   0.69420

 Mulliken charges and spin densities:
               1          2
     1  C   -0.760415   1.004917
     2  O   -0.239585  -0.004917
 Sum of Mulliken charges =  -1.00000   1.00000

 Dipole moment (field-independent basis, Debye):
    X=              0.0000    Y=              0.0000    Z=              3.3440  Tot=              3.3440
 Quadrupole moment (field-independent basis, Debye-Ang):
   XX=            -24.2651   YY=            -15.8868   ZZ=            -22.0149
   XY=              0.0000   XZ=              0.0000   YZ=              0.0000

  Exact polarizability: 391.620   0.000  20.244  -0.000  -0.000  34.500
 Approx polarizability: 154.864  -0.000  26.234  -0.000  -0.000  43.014

                      1
                     SG
 Frequencies --   1664.1269
 Red. masses --     13.4388
 Frc consts  --     21.9271
 IR Inten    --    627.8392

 - Thermochemistry -
 -------------------
 Temperature   298.150 Kelvin.  Pressure   1.00000 Atm.
 Atom     1 has atomic number  6 and mass  12.00000

 Molecular mass:    27.99491 amu.
 Principal axes and moments of inertia in atomic units:
                           1         2         3
     Eigenvalues --     0.00000  34.25571  34.25571
           X            0.00000  -0.00000   1.00000
           Y            0.00000   1.00000   0.00000
           Z            1.00000   0.00000   0.00000
 This molecule is a prolate symmetric top.
 Rotational symmetry number  1.
 Rotational temperature (Kelvin)      2.52845
 Rotational constant (GHZ):          52.684383
 Zero-point vibrational energy       9953.7 (Joules/Mol)
                                    2.37899 (Kcal/Mol)
 Vibrational temperatures:   2394.30
          (Kelvin)

 Zero-point correction=                           0.003791 (Hartree/Particle)
 Thermal correction to Energy=                    0.006154
 Thermal correction to Enthalpy=                  0.007098
 Thermal correction to Gibbs Free Energy=        -0.016075
 Sum of electronic and zero-point Energies=           -113.308405
 Sum of electronic and thermal Energies=              -113.306042
 Sum of electronic and thermal Enthalpies=            -113.305098
 Sum of electronic and thermal Free Energies=         -113.328271

                     E (Thermal)             CV                S
                      KCal/Mol        Cal/Mol-Kelvin    Cal/Mol-Kelvin
 Total                    3.862              5.010             48.772
 Electronic               0.000              0.000              1.377
 Translational            0.889              2.981             35.923
 Rotational               0.592              1.987             11.466
 Vibrational              2.381              0.042              0.006

 Optimization completed.
    -- Stationary point found.
 Normal termination of Gaussian 09 at Thu Mar  7 09:48:39 2019.
