 Gaussian 09, Revision E.01,
 Gaussian 09:  EM64L-G09RevE.01 30-Nov-2015

 ------------------------------------------------------
 #p b3lyp/6-311++G(3df,2p) freq IOp(2/17=3) IOp(2/18=3)
 ------------------------------------------------------

 ---------
 b3lyp opt
 ---------
 Symbolic Z-matrix:
 Charge = -1 Multiplicity = 2

                         Standard orientation:
 ---------------------------------------------------------------------
 Center     Atomic      Atomic             Coordinates (Angstroms)
 Number     Number       Type             X           Y           Z
 ---------------------------------------------------------------------
      1          6           0       -0.458516   -1.313752    0.000000
      2          6           0        0.375003   -0.287892   -0.000000
      3          1           0        1.467557   -0.331807   -0.000000
      4          1           0       -0.966482    1.075249    0.000000
      5          8           0       -0.000000    1.108303    0.000000
 ---------------------------------------------------------------------

 SCF Done:  E(UB3LYP) =  -152.578154369     A.U. after   17 cycles

 The electronic state is 2-A'.
 Alpha  occ. eigenvalues --  -18.94724  -9.98870  -9.93276  -0.83424  -0.51063
 Alpha  occ. eigenvalues --   -0.37117  -0.24876  -0.21153  -0.17287  -0.05269
 Alpha  occ. eigenvalues --   -0.01865   0.02599
 Alpha virt. eigenvalues --    0.13511   0.13667   0.19470   0.21397   0.21579
 Alpha virt. eigenvalues --    0.21818   0.23611   0.24982   0.27278   0.29334
 Alpha virt. eigenvalues --    0.29800   0.30715   0.35560   0.35862   0.38782

  Beta  occ. eigenvalues --  -18.94448  -9.98987  -9.92173  -0.82736  -0.49476
  Beta  occ. eigenvalues --   -0.35957  -0.23826  -0.20159  -0.17164  -0.03287
  Beta  occ. eigenvalues --   -0.01258
  Beta virt. eigenvalues --    0.11983   0.13526   0.16013   0.19839   0.21431
  Beta virt. eigenvalues --    0.21536   0.21854   0.24243   0.25717   0.27618
  Beta virt. eigenvalues --    0.29640   0.30367   0.31203   0.35703   0.35907

 Mulliken charges and spin densities:
               1          2
     1  C   -0.875150   1.049397
     2  C    0.318920  -0.209495
     3  H    0.014931   0.045744
     4  H    0.117926   0.114619
     5  O   -0.576626  -0.000264
 Sum of Mulliken charges =  -1.00000   1.00000

 Dipole moment (field-independent basis, Debye):
    X=              1.5422    Y=              4.0672    Z=             -0.0000  Tot=              4.3498
 Quadrupole moment (field-independent basis, Debye-Ang):
   XX=            -23.8592   YY=            -35.6883   ZZ=            -24.6359
   XY=             -5.6313   XZ=              0.0000   YZ=              0.0000

  Exact polarizability:  72.507  -4.365  84.895   0.000  -0.000  41.132
 Approx polarizability:  84.349   2.433 100.814  -0.000   0.000  52.037

                      1                      2                      3
                     A"                     A'                     A"
 Frequencies --    440.0424               470.7009               720.3305
 Red. masses --      1.2028                 4.6586                 1.6068
 Frc consts  --      0.1372                 0.6081                 0.4912
 IR Inten    --     58.6048                50.8212                32.4269

                      4                      5                      6
                     A'                     A'                     A'
 Frequencies --    832.7227              1139.6030              1284.8749
 Red. masses --     11.4016                 1.1117                 1.2429
 Frc consts  --      4.6582                 0.8507                 1.2090
 IR Inten    --    126.0745                26.4270                 0.0258

                      7                      8                      9
                     A'                     A'                     A'
 Frequencies --   1566.3804              3010.9919              3715.8242
 Red. masses --      6.0246                 1.0845                 1.0646
 Frc consts  --      8.7091                 5.7928                 8.6607
 IR Inten    --     87.8544               193.1027                32.1608

 - Thermochemistry -
 -------------------
 Temperature   298.150 Kelvin.  Pressure   1.00000 Atm.
 Atom     1 has atomic number  6 and mass  12.00000

 Molecular mass:    42.01056 amu.
 Principal axes and moments of inertia in atomic units:
                           1         2         3
     Eigenvalues --    24.21051 154.10173 178.31224
           X            0.12149   0.99259   0.00000
           Y            0.99259  -0.12149   0.00000
           Z           -0.00000  -0.00000   1.00000
 This molecule is an asymmetric top.
 Rotational symmetry number  1.
 Rotational temperatures (Kelvin)      3.57753     0.56206     0.48574
 Rotational constants (GHZ):          74.54371    11.71136    10.12124
 Zero-point vibrational energy      78842.7 (Joules/Mol)
                                   18.84386 (Kcal/Mol)
 Warning -- explicit consideration of   2 degrees of freedom as
           vibrations may cause significant error
 Vibrational temperatures:    633.12   677.23  1036.39  1198.10  1639.63
          (Kelvin)           1848.65  2253.67  4332.14  5346.24

 Zero-point correction=                           0.030030 (Hartree/Particle)
 Thermal correction to Energy=                    0.033592
 Thermal correction to Enthalpy=                  0.034537
 Thermal correction to Gibbs Free Energy=         0.005195
 Sum of electronic and zero-point Energies=           -152.548125
 Sum of electronic and thermal Energies=              -152.544562
 Sum of electronic and thermal Enthalpies=            -152.543618
 Sum of electronic and thermal Free Energies=         -152.572959

                     E (Thermal)             CV                S
                      KCal/Mol        Cal/Mol-Kelvin    Cal/Mol-Kelvin
 Total                   21.080             10.512             61.754
 Electronic               0.000              0.000              1.377
 Translational            0.889              2.981             37.133
 Rotational               0.889              2.981             21.125
 Vibrational             19.302              4.550              2.118
 Vibration     1          0.800              1.383              0.826
 Vibration     2          0.828              1.315              0.736

 Optimization completed.
    -- Stationary point found.
 Normal termination of Gaussian 09 at Thu Mar  7 09:54:07 2019.
