 Gaussian 09, Revision E.01,
 Gaussian 09:  EM64L-G09RevE.01 30-Nov-2015

 ------------------------------------------------------
 #p b3lyp/6-311++G(3df,2p) freq IOp(2/17=3) IOp(2/18=3)
 ------------------------------------------------------

 ---------
 b3lyp opt
 ---------
 Symbolic Z-matrix:
 Charge = -1 Multiplicity = 4

                         Standard orientation:
 ---------------------------------------------------------------------
 Center     Atomic      Atomic             Coordinates (Angstroms)
 Number     Number       Type             X           Y           Z
 ---------------------------------------------------------------------
      1          6           0       -0.456345   -1.345010    0.000000
      2          6           0        0.377489   -0.209834    0.000000
      3          1           0        1.461927   -0.270348    0.000000
      4          1           0       -0.988787    1.160710   -0.000000
      5          8           0       -0.000000    1.054838   -0.000000
 ---------------------------------------------------------------------

 SCF Done:  E(UB3LYP) =  -152.465064140     A.U. after   23 cycles

 The electronic state is 4-A".
 Alpha  occ. eigenvalues --  -19.07732 -10.13838 -10.06406  -0.98428  -0.63021
 Alpha  occ. eigenvalues --   -0.51006  -0.38115  -0.32632  -0.30612  -0.16071
 Alpha  occ. eigenvalues --   -0.13969  -0.08215   0.06958
 Alpha virt. eigenvalues --    0.08684   0.11237   0.16171   0.17441   0.18149
 Alpha virt. eigenvalues --    0.20145   0.20452   0.21882   0.22384   0.24836
 Alpha virt. eigenvalues --    0.26413   0.31256   0.31921   0.34330   0.37616

  Beta  occ. eigenvalues --  -19.06746 -10.13421 -10.04479  -0.96387  -0.58979
  Beta  occ. eigenvalues --   -0.48210  -0.36565  -0.28325  -0.28264  -0.12836
  Beta virt. eigenvalues --   -0.01890   0.06483   0.10728   0.13346   0.15405
  Beta virt. eigenvalues --    0.16444   0.17579   0.18868   0.20657   0.21798
  Beta virt. eigenvalues --    0.23223   0.23802   0.26208   0.26895   0.32026

 Mulliken charges and spin densities:
               1          2
     1  C   -0.826376   1.679606
     2  C    1.925167  -1.099584
     3  H   -0.723464   0.902342
     4  H   -1.010434   1.357887
     5  O   -0.364893   0.159749
 Sum of Mulliken charges =  -1.00000   3.00000

 Dipole moment (field-independent basis, Debye):
    X=              2.4534    Y=             -1.6836    Z=              0.0000  Tot=              2.9755
 Quadrupole moment (field-independent basis, Debye-Ang):
   XX=            -55.3893   YY=            -48.7490   ZZ=            -29.2857
   XY=             10.0728   XZ=             -0.0000   YZ=              0.0000

  Exact polarizability:1497.788-671.359 440.675  -0.000   0.000  55.415
 Approx polarizability:2328.779******** 673.896   0.000  -0.000  55.078

                      1                      2                      3
                     A"                     A'                     A"
 Frequencies --    356.1574               436.5407               626.9432
 Red. masses --      1.1728                 3.8391                 1.7255
 Frc consts  --      0.0876                 0.4311                 0.3996
 IR Inten    --   1381.3636              2830.6697              1683.6165

                      4                      5                      6
                     A'                     A'                     A'
 Frequencies --   1047.6042              1158.4434              1292.7959
 Red. masses --      3.6590                 1.3161                 1.9716
 Frc consts  --      2.3659                 1.0406                 1.9415
 IR Inten    --   2242.5019               463.7111                18.8358

                      7                      8                      9
                     A'                     A'                     A'
 Frequencies --   1418.6204              2990.5107              3084.8026
 Red. masses --      2.7230                 1.0691                 1.0818
 Frc consts  --      3.2287                 5.6334                 6.0652
 IR Inten    --   1367.0954             10200.3097              7441.0586

 - Thermochemistry -
 -------------------
 Temperature   298.150 Kelvin.  Pressure   1.00000 Atm.
 Atom     1 has atomic number  6 and mass  12.00000

 Molecular mass:    42.01056 amu.
 Principal axes and moments of inertia in atomic units:
                           1         2         3
     Eigenvalues --    23.80729 150.42480 174.23209
           X            0.13811   0.99042   0.00000
           Y            0.99042  -0.13811   0.00000
           Z            0.00000   0.00000   1.00000
 This molecule is an asymmetric top.
 Rotational symmetry number  1.
 Rotational temperatures (Kelvin)      3.63812     0.57579     0.49712
 Rotational constants (GHZ):          75.80626    11.99763    10.35826
 Zero-point vibrational energy      74242.7 (Joules/Mol)
                                   17.74444 (Kcal/Mol)
 Warning -- explicit consideration of   2 degrees of freedom as
           vibrations may cause significant error
 Vibrational temperatures:    512.43   628.08   902.03  1507.27  1666.74
          (Kelvin)           1860.04  2041.08  4302.67  4438.34

 Zero-point correction=                           0.028278 (Hartree/Particle)
 Thermal correction to Energy=                    0.031955
 Thermal correction to Enthalpy=                  0.032899
 Thermal correction to Gibbs Free Energy=         0.002727
 Sum of electronic and zero-point Energies=           -152.436787
 Sum of electronic and thermal Energies=              -152.433109
 Sum of electronic and thermal Enthalpies=            -152.432165
 Sum of electronic and thermal Free Energies=         -152.462337

                     E (Thermal)             CV                S
                      KCal/Mol        Cal/Mol-Kelvin    Cal/Mol-Kelvin
 Total                   20.052             10.703             63.502
 Electronic               0.000              0.000              2.755
 Translational            0.889              2.981             37.133
 Rotational               0.889              2.981             21.061
 Vibrational             18.274              4.741              2.553
 Vibration     1          0.732              1.563              1.139
 Vibration     2          0.797              1.391              0.838

 Normal termination of Gaussian 09 at Thu Mar  7 10:15:15 2019.
