 Gaussian 09, Revision E.01,
 Gaussian 09:  EM64L-G09RevE.01 30-Nov-2015

 ------------------------------------------------------
 #p b3lyp/6-311++G(3df,2p) freq IOp(2/17=3) IOp(2/18=3)
 ------------------------------------------------------

 ---------
 b3lyp opt
 ---------
 Symbolic Z-matrix:
 Charge = -1 Multiplicity = 2

                         Standard orientation:
 ---------------------------------------------------------------------
 Center     Atomic      Atomic             Coordinates (Angstroms)
 Number     Number       Type             X           Y           Z
 ---------------------------------------------------------------------
      1          6           0        0.000000    1.279367    0.000000
      2          6           0       -0.379149    0.066273    0.000000
      3          1           0       -0.504237    2.227673    0.000000
      4          1           0        1.184937   -1.039920    0.000000
      5          8           0        0.199274   -1.157699    0.000000
 ---------------------------------------------------------------------

 SCF Done:  E(UB3LYP) =  -152.583088546     A.U. after   19 cycles

 The electronic state is 2-A'.
 Alpha  occ. eigenvalues --  -18.97081 -10.01290  -9.94849  -0.86539  -0.52643
 Alpha  occ. eigenvalues --   -0.39558  -0.29630  -0.22130  -0.20173  -0.08467
 Alpha  occ. eigenvalues --   -0.03803   0.05285
 Alpha virt. eigenvalues --    0.13104   0.13387   0.17426   0.20150   0.21631
 Alpha virt. eigenvalues --    0.21759   0.22417   0.24532   0.26255   0.28460
 Alpha virt. eigenvalues --    0.28974   0.29190   0.34377   0.36390   0.37183

  Beta  occ. eigenvalues --  -18.96908 -10.00811  -9.94565  -0.85988  -0.51717
  Beta  occ. eigenvalues --   -0.38662  -0.29062  -0.21649  -0.19820  -0.05726
  Beta  occ. eigenvalues --   -0.03458
  Beta virt. eigenvalues --    0.11230   0.13219   0.15955   0.17846   0.20298
  Beta virt. eigenvalues --    0.21741   0.21826   0.23191   0.25582   0.26687
  Beta virt. eigenvalues --    0.28772   0.29500   0.29960   0.34918   0.36410

 Mulliken charges and spin densities:
               1          2
     1  C   -0.509147   0.150799
     2  C    0.328948   0.180437
     3  H    0.065153   0.055360
     4  H   -0.393238   0.733187
     5  O   -0.491716  -0.119785
 Sum of Mulliken charges =  -1.00000   1.00000

 Dipole moment (field-independent basis, Debye):
    X=             -1.1468    Y=             -0.3557    Z=              0.0000  Tot=              1.2007
 Quadrupole moment (field-independent basis, Debye-Ang):
   XX=            -30.6222   YY=            -30.5427   ZZ=            -26.1766
   XY=             -1.3534   XZ=             -0.0000   YZ=              0.0000

  Exact polarizability: 185.925 -52.377 171.381   0.000   0.000  57.577
 Approx polarizability: 194.709 -46.400 195.307  -0.000  -0.000  64.909

                      1                      2                      3
                     A'                     A"                     A"
 Frequencies --    195.1513               365.4043               584.0246
 Red. masses --      5.1118                 1.2926                 1.4148
 Frc consts  --      0.1147                 0.1017                 0.2843
 IR Inten    --   1472.4776                23.1081                43.3862

                      4                      5                      6
                     A'                     A'                     A'
 Frequencies --    586.1925               910.3236              1222.0186
 Red. masses --      1.1776                 7.9641                 1.2113
 Frc consts  --      0.2384                 3.8884                 1.0657
 IR Inten    --    720.7488               225.4239                80.3137

                      7                      8                      9
                     A'                     A'                     A'
 Frequencies --   1760.8000              3200.8529              3257.1065
 Red. masses --      7.4557                 1.0622                 1.1067
 Frc consts  --     13.6195                 6.4118                 6.9172
 IR Inten    --    417.3775               642.0674                11.5086

 - Thermochemistry -
 -------------------
 Temperature   298.150 Kelvin.  Pressure   1.00000 Atm.
 Atom     1 has atomic number  6 and mass  12.00000

 Molecular mass:    42.01056 amu.
 Principal axes and moments of inertia in atomic units:
                           1         2         3
     Eigenvalues --    11.05683 171.81972 182.87656
           X           -0.14330   0.98968   0.00000
           Y            0.98968   0.14330   0.00000
           Z           -0.00000   0.00000   1.00000
 This molecule is an asymmetric top.
 Rotational symmetry number  1.
 Rotational temperatures (Kelvin)      7.83351     0.50410     0.47362
 Rotational constants (GHZ):         163.22409    10.50369     9.86863
 Zero-point vibrational energy      72265.7 (Joules/Mol)
                                   17.27191 (Kcal/Mol)
 Warning -- explicit consideration of   4 degrees of freedom as
           vibrations may cause significant error
 Vibrational temperatures:    280.78   525.73   840.28   843.40  1309.75
          (Kelvin)           1758.21  2533.40  4605.31  4686.24

 Zero-point correction=                           0.027525 (Hartree/Particle)
 Thermal correction to Energy=                    0.031676
 Thermal correction to Enthalpy=                  0.032620
 Thermal correction to Gibbs Free Energy=         0.002499
 Sum of electronic and zero-point Energies=           -152.555564
 Sum of electronic and thermal Energies=              -152.551413
 Sum of electronic and thermal Enthalpies=            -152.550469
 Sum of electronic and thermal Free Energies=         -152.580590

                     E (Thermal)             CV                S
                      KCal/Mol        Cal/Mol-Kelvin    Cal/Mol-Kelvin
 Total                   19.877             12.185             63.395
 Electronic               0.000              0.000              1.377
 Translational            0.889              2.981             37.133
 Rotational               0.889              2.981             20.480
 Vibrational             18.099              6.224              4.405
 Vibration     1          0.636              1.847              2.178
 Vibration     2          0.739              1.543              1.099
 Vibration     3          0.941              1.066              0.478
 Vibration     4          0.943              1.061              0.474

 Normal termination of Gaussian 09 at Thu Mar  7 10:06:52 2019.
