 Gaussian 09, Revision E.01,
 Gaussian 09:  EM64L-G09RevE.01 30-Nov-2015

 ------------------------------------------------------
 #p b3lyp/6-311++G(3df,2p) freq IOp(2/17=3) IOp(2/18=3)
 ------------------------------------------------------

 ---------
 b3lyp opt
 ---------
 Symbolic Z-matrix:
 Charge = -1 Multiplicity = 2

                         Standard orientation:
 ---------------------------------------------------------------------
 Center     Atomic      Atomic             Coordinates (Angstroms)
 Number     Number       Type             X           Y           Z
 ---------------------------------------------------------------------
      1          6           0        1.303348    0.614134    0.000000
      2          6           0       -0.000000    0.424189   -0.000000
      3          1           0       -0.737754    1.245005   -0.000000
      4          1           0       -1.626037   -0.654122   -0.000000
      5          8           0       -0.682037   -0.852603    0.000000
 ---------------------------------------------------------------------

 SCF Done:  E(UB3LYP) =  -152.569355474     A.U. after   18 cycles

 The electronic state is 2-A'.
 Alpha  occ. eigenvalues --  -18.95230  -9.99102  -9.93322  -0.83726  -0.51821
 Alpha  occ. eigenvalues --   -0.33330  -0.31836  -0.17946  -0.17519  -0.05257
 Alpha  occ. eigenvalues --   -0.02069   0.02927
 Alpha virt. eigenvalues --    0.11107   0.14211   0.19203   0.20892   0.21900
 Alpha virt. eigenvalues --    0.22040   0.23003   0.24002   0.27975   0.29221
 Alpha virt. eigenvalues --    0.29657   0.31262   0.33088   0.36173   0.37885

  Beta  occ. eigenvalues --  -18.95014  -9.99206  -9.92239  -0.83203  -0.50168
  Beta  occ. eigenvalues --   -0.32356  -0.30642  -0.17415  -0.17235  -0.03302
  Beta  occ. eigenvalues --   -0.01483
  Beta virt. eigenvalues --    0.10400   0.14020   0.15438   0.19435   0.20942
  Beta virt. eigenvalues --    0.21804   0.22664   0.23017   0.25412   0.28114
  Beta virt. eigenvalues --    0.29479   0.30254   0.31665   0.33412   0.36153

 Mulliken charges and spin densities:
               1          2
     1  C   -0.898022   0.968869
     2  C    0.412941  -0.216063
     3  H   -0.054700   0.112780
     4  H    0.081060   0.158373
     5  O   -0.541279  -0.023959
 Sum of Mulliken charges =  -1.00000   1.00000

 Dipole moment (field-independent basis, Debye):
    X=             -5.5124    Y=             -1.0057    Z=             -0.0000  Tot=              5.6034
 Quadrupole moment (field-independent basis, Debye-Ang):
   XX=            -32.2776   YY=            -27.5621   ZZ=            -24.7333
   XY=             -4.6783   XZ=             -0.0000   YZ=              0.0000

  Exact polarizability: 143.876  24.885  67.409  -0.000  -0.000  42.383
 Approx polarizability: 168.753  26.061  75.577   0.000   0.000  53.020

                      1                      2                      3
                     A"                     A'                     A"
 Frequencies --     86.3926               484.0725               687.8903
 Red. masses --      1.0986                 7.2518                 1.7224
 Frc consts  --      0.0048                 1.0012                 0.4802
 IR Inten    --     31.8559                12.6812                26.3439

                      4                      5                      6
                     A'                     A'                     A'
 Frequencies --    813.3379              1157.5662              1249.2809
 Red. masses --      9.3817                 1.0537                 1.2586
 Frc consts  --      3.6566                 0.8319                 1.1574
 IR Inten    --     79.9025                29.7379                67.0872

                      7                      8                      9
                     A'                     A'                     A'
 Frequencies --   1606.6473              2878.7823              3728.7701
 Red. masses --      6.0882                 1.0802                 1.0656
 Frc consts  --      9.2593                 5.2742                 8.7293
 IR Inten    --     75.0617               328.1532               307.7768

 - Thermochemistry -
 -------------------
 Temperature   298.150 Kelvin.  Pressure   1.00000 Atm.
 Atom     1 has atomic number  6 and mass  12.00000

 Molecular mass:    42.01056 amu.
 Principal axes and moments of inertia in atomic units:
                           1         2         3
     Eigenvalues --    20.68978 162.16523 182.85501
           X            0.79618  -0.60506   0.00000
           Y            0.60506   0.79618   0.00000
           Z           -0.00000  -0.00000   1.00000
 This molecule is an asymmetric top.
 Rotational symmetry number  1.
 Rotational temperatures (Kelvin)      4.18631     0.53411     0.47367
 Rotational constants (GHZ):          87.22861    11.12903     9.86979
 Zero-point vibrational energy      75919.4 (Joules/Mol)
                                   18.14518 (Kcal/Mol)
 Warning -- explicit consideration of   2 degrees of freedom as
           vibrations may cause significant error
 Vibrational temperatures:    124.30   696.47   989.72  1170.21  1665.48
          (Kelvin)           1797.43  2311.60  4141.92  5364.86

 Zero-point correction=                           0.028916 (Hartree/Particle)
 Thermal correction to Energy=                    0.032975
 Thermal correction to Enthalpy=                  0.033919
 Thermal correction to Gibbs Free Energy=         0.003224
 Sum of electronic and zero-point Energies=           -152.540439
 Sum of electronic and thermal Energies=              -152.536381
 Sum of electronic and thermal Enthalpies=            -152.535436
 Sum of electronic and thermal Free Energies=         -152.566131

                     E (Thermal)             CV                S
                      KCal/Mol        Cal/Mol-Kelvin    Cal/Mol-Kelvin
 Total                   20.692             11.148             64.602
 Electronic               0.000              0.000              1.377
 Translational            0.889              2.981             37.133
 Rotational               0.889              2.981             21.045
 Vibrational             18.915              5.186              5.047
 Vibration     1          0.601              1.959              3.740
 Vibration     2          0.840              1.285              0.699

 Optimization completed.
    -- Stationary point found.
 Normal termination of Gaussian 09 at Thu Mar  7 20:43:37 2019.
