 Gaussian 09, Revision E.01,
 Gaussian 09:  EM64L-G09RevE.01 30-Nov-2015

 ------------------------------------------------------
 #p b3lyp/6-311++G(3df,2p) freq IOp(2/17=3) IOp(2/18=3)
 ------------------------------------------------------

 ---------
 b3lyp opt
 ---------
 Symbolic Z-matrix:
 Charge = -1 Multiplicity = 4

                         Standard orientation:
 ---------------------------------------------------------------------
 Center     Atomic      Atomic             Coordinates (Angstroms)
 Number     Number       Type             X           Y           Z
 ---------------------------------------------------------------------
      1          6           0        1.291035   -0.040674    0.000000
      2          6           0       -0.000000    0.440690   -0.000000
      3          1           0        2.123984    0.678922    0.000000
      4          1           0       -0.995988   -1.223621    0.000000
      5          8           0       -1.109276   -0.231924   -0.000000
 ---------------------------------------------------------------------

 SCF Done:  E(UB3LYP) =  -152.466986080     A.U. after   21 cycles

 The electronic state is 4-A".
 Alpha  occ. eigenvalues --  -19.06663 -10.11937 -10.06495  -0.97461  -0.62136
 Alpha  occ. eigenvalues --   -0.50149  -0.36734  -0.31242  -0.29122  -0.18182
 Alpha  occ. eigenvalues --   -0.13996  -0.06272   0.07103
 Alpha virt. eigenvalues --    0.09347   0.12805   0.15141   0.17566   0.18617
 Alpha virt. eigenvalues --    0.19856   0.20572   0.21955   0.22682   0.25140
 Alpha virt. eigenvalues --    0.26111   0.30183   0.31879   0.34255   0.38369

  Beta  occ. eigenvalues --  -19.05863 -10.10831 -10.04886  -0.95655  -0.57713
  Beta  occ. eigenvalues --   -0.47885  -0.34805  -0.27484  -0.27154  -0.11919
  Beta virt. eigenvalues --   -0.01337   0.05243   0.11231   0.13423   0.15599
  Beta virt. eigenvalues --    0.16673   0.18280   0.19188   0.20569   0.22044
  Beta virt. eigenvalues --    0.23993   0.24226   0.26334   0.26839   0.31658

 Mulliken charges and spin densities:
               1          2
     1  C    0.119625   0.617196
     2  C    0.829350   0.171154
     3  H   -0.701566   0.851030
     4  H   -0.932058   1.332001
     5  O   -0.315351   0.028618
 Sum of Mulliken charges =  -1.00000   3.00000

 Dipole moment (field-independent basis, Debye):
    X=             -0.4584    Y=              3.4510    Z=             -0.0000  Tot=              3.4813
 Quadrupole moment (field-independent basis, Debye-Ang):
   XX=            -49.3698   YY=            -48.3520   ZZ=            -30.8574
   XY=            -11.5555   XZ=             -0.0000   YZ=              0.0000

  Exact polarizability:1223.664 779.221 781.021  -0.000  -0.000 120.195
 Approx polarizability:1704.2501180.7421115.246  -0.000  -0.000 107.487

                      1                      2                      3
                     A'                     A"                     A"
 Frequencies --    430.9335               451.0929               614.5196
 Red. masses --      2.5108                 1.5520                 1.1195
 Frc consts  --      0.2747                 0.1861                 0.2491
 IR Inten    --   1410.2657               150.7752               996.9080

                      4                      5                      6
                     A'                     A'                     A'
 Frequencies --    901.3062              1089.5651              1211.3273
 Red. masses --      1.4425                 3.3272                 1.7051
 Frc consts  --      0.6904                 2.3272                 1.4741
 IR Inten    --   1786.2726               648.4667              3183.1397

                      7                      8                      9
                     A'                     A'                     A'
 Frequencies --   1465.8288              2936.9905              3038.3253
 Red. masses --      7.2140                 1.0880                 1.0630
 Frc consts  --      9.1326                 5.5296                 5.7814
 IR Inten    --    778.0332               530.7788              7884.4756

 - Thermochemistry -
 -------------------
 Temperature   298.150 Kelvin.  Pressure   1.00000 Atm.
 Atom     1 has atomic number  6 and mass  12.00000

 Molecular mass:    42.01056 amu.
 Principal axes and moments of inertia in atomic units:
                           1         2         3
     Eigenvalues --    15.15722 164.74211 179.89934
           X            0.98880  -0.14922   0.00000
           Y            0.14922   0.98880   0.00000
           Z            0.00000  -0.00000   1.00000
 This molecule is an asymmetric top.
 Rotational symmetry number  1.
 Rotational temperatures (Kelvin)      5.71436     0.52575     0.48146
 Rotational constants (GHZ):         119.06807    10.95495    10.03195
 Zero-point vibrational energy      72612.7 (Joules/Mol)
                                   17.35484 (Kcal/Mol)
 Warning -- explicit consideration of   3 degrees of freedom as
           vibrations may cause significant error
 Vibrational temperatures:    620.02   649.02   884.16  1296.78  1567.64
          (Kelvin)           1742.83  2109.00  4225.67  4371.47

 Zero-point correction=                           0.027657 (Hartree/Particle)
 Thermal correction to Energy=                    0.031286
 Thermal correction to Enthalpy=                  0.032230
 Thermal correction to Gibbs Free Energy=         0.002319
 Sum of electronic and zero-point Energies=           -152.439329
 Sum of electronic and thermal Energies=              -152.435700
 Sum of electronic and thermal Enthalpies=            -152.434756
 Sum of electronic and thermal Free Energies=         -152.464667

                     E (Thermal)             CV                S
                      KCal/Mol        Cal/Mol-Kelvin    Cal/Mol-Kelvin
 Total                   19.632             10.794             62.953
 Electronic               0.000              0.000              2.755
 Translational            0.889              2.981             37.133
 Rotational               0.889              2.981             20.735
 Vibrational             17.855              4.832              2.331
 Vibration     1          0.792              1.403              0.856
 Vibration     2          0.810              1.358              0.792
 Vibration     3          0.974              1.001              0.425

 Optimization completed.
    -- Stationary point found.
 Normal termination of Gaussian 09 at Thu Mar  7 20:50:16 2019.
