 Gaussian 09, Revision E.01,
 Gaussian 09:  EM64L-G09RevE.01 30-Nov-2015

 ------------------------------------------------------
 #p b3lyp/6-311++G(3df,2p) freq IOp(2/17=3) IOp(2/18=3)
 ------------------------------------------------------

 ---------
 b3lyp opt
 ---------
 Symbolic Z-matrix:
 Charge = -1 Multiplicity = 4

                         Standard orientation:
 ---------------------------------------------------------------------
 Center     Atomic      Atomic             Coordinates (Angstroms)
 Number     Number       Type             X           Y           Z
 ---------------------------------------------------------------------
      1          6           0        0.000000    1.344667   -0.000000
      2          6           0        0.438352    0.071164   -0.000000
      3          1           0       -1.038343    1.666239   -0.000000
      4          1           0       -1.070534   -1.144610    0.000000
      5          8           0       -0.065154   -1.127077    0.000000
 ---------------------------------------------------------------------

 SCF Done:  E(UB3LYP) =  -152.456231291     A.U. after   21 cycles

 The electronic state is 4-A".
 Alpha  occ. eigenvalues --  -19.06446 -10.11726 -10.05504  -0.96927  -0.62019
 Alpha  occ. eigenvalues --   -0.49526  -0.35934  -0.32352  -0.31014  -0.14366
 Alpha  occ. eigenvalues --   -0.14157  -0.06666   0.06936
 Alpha virt. eigenvalues --    0.11569   0.13375   0.15112   0.17755   0.18461
 Alpha virt. eigenvalues --    0.19846   0.20585   0.22014   0.24943   0.25008
 Alpha virt. eigenvalues --    0.26070   0.31119   0.32904   0.33791   0.37585

  Beta  occ. eigenvalues --  -19.05508 -10.10368 -10.03941  -0.94849  -0.57744
  Beta  occ. eigenvalues --   -0.47037  -0.33405  -0.30399  -0.26937  -0.08943
  Beta virt. eigenvalues --   -0.01318   0.05945   0.12170   0.13963   0.16118
  Beta virt. eigenvalues --    0.17088   0.18726   0.19535   0.20652   0.21198
  Beta virt. eigenvalues --    0.24736   0.25339   0.26516   0.27377   0.32626

 Mulliken charges and spin densities:
               1          2
     1  C   -0.264081   0.864002
     2  C    1.172733  -0.145550
     3  H   -0.527672   0.775135
     4  H   -1.026108   1.426333
     5  O   -0.354872   0.080079
 Sum of Mulliken charges =  -1.00000   3.00000

 Dipole moment (field-independent basis, Debye):
    X=              5.7812    Y=              1.6874    Z=              0.0000  Tot=              6.0224
 Quadrupole moment (field-independent basis, Debye-Ang):
   XX=            -48.4060   YY=            -44.0029   ZZ=            -30.6122
   XY=             -7.9971   XZ=              0.0000   YZ=              0.0000

  Exact polarizability: 179.354 -71.437 745.139   0.000   0.000  97.606
 Approx polarizability: 154.683 -41.828 554.275  -0.000  -0.000  99.149

                      1                      2                      3
                     A'                     A'                     A"
 Frequencies --    407.4300               634.0032               787.8389
 Red. masses --      4.7362                 1.1031                 1.2677
 Frc consts  --      0.4632                 0.2612                 0.4636
 IR Inten    --    524.0864               229.7787               102.5166

                      4                      5                      6
                     A"                     A'                     A'
 Frequencies --   1044.1069              1078.8508              1246.6447
 Red. masses --      1.7742                 4.4107                 1.4555
 Frc consts  --      1.1396                 3.0247                 1.3328
 IR Inten    --   1257.5519               766.5080               757.9650

                      7                      8                      9
                     A'                     A'                     A'
 Frequencies --   1588.9216              2884.0715              3088.7135
 Red. masses --      9.3633                 1.0637                 1.0896
 Frc consts  --     13.9278                 5.2131                 6.1247
 IR Inten    --    165.4548              2591.3237               792.2200

 - Thermochemistry -
 -------------------
 Temperature   298.150 Kelvin.  Pressure   1.00000 Atm.
 Atom     1 has atomic number  6 and mass  12.00000

 Molecular mass:    42.01056 amu.
 Principal axes and moments of inertia in atomic units:
                           1         2         3
     Eigenvalues --    16.01213 165.04086 181.05299
           X            0.02554   0.99967   0.00000
           Y            0.99967  -0.02554   0.00000
           Z            0.00000   0.00000   1.00000
 This molecule is an asymmetric top.
 Rotational symmetry number  1.
 Rotational temperatures (Kelvin)      5.40926     0.52480     0.47839
 Rotational constants (GHZ):         112.71090    10.93512     9.96803
 Zero-point vibrational energy      76325.2 (Joules/Mol)
                                   18.24217 (Kcal/Mol)
 Warning -- explicit consideration of   1 degrees of freedom as
           vibrations may cause significant error
 Vibrational temperatures:    586.20   912.19  1133.52  1502.24  1552.22
          (Kelvin)           1793.64  2286.10  4149.53  4443.96

 Zero-point correction=                           0.029071 (Hartree/Particle)
 Thermal correction to Energy=                    0.032505
 Thermal correction to Enthalpy=                  0.033449
 Thermal correction to Gibbs Free Energy=         0.003791
 Sum of electronic and zero-point Energies=           -152.427161
 Sum of electronic and thermal Energies=              -152.423726
 Sum of electronic and thermal Enthalpies=            -152.422782
 Sum of electronic and thermal Free Energies=         -152.452441

                     E (Thermal)             CV                S
                      KCal/Mol        Cal/Mol-Kelvin    Cal/Mol-Kelvin
 Total                   20.397              9.909             62.422
 Electronic               0.000              0.000              2.755
 Translational            0.889              2.981             37.133
 Rotational               0.889              2.981             20.798
 Vibrational             18.620              3.947              1.736
 Vibration     1          0.772              1.454              0.936

 Optimization completed.
    -- Stationary point found.
 Normal termination of Gaussian 09 at Thu Mar  7 10:07:09 2019.
