 Gaussian 09, Revision E.01,
 Gaussian 09:  EM64L-G09RevE.01 30-Nov-2015

 ------------------------------------------------------
 #p b3lyp/6-311++G(3df,2p) freq IOp(2/17=3) IOp(2/18=3)
 ------------------------------------------------------

 ---------
 b3lyp opt
 ---------
 Symbolic Z-matrix:
 Charge = -1 Multiplicity = 2

                         Standard orientation:
 ---------------------------------------------------------------------
 Center     Atomic      Atomic             Coordinates (Angstroms)
 Number     Number       Type             X           Y           Z
 ---------------------------------------------------------------------
      1          6           0        0.608734   -1.172951    0.000000
      2          6           0        0.029797   -0.118469    0.000000
      3          1           0        1.103898   -2.109636    0.000000
      4          1           0       -0.000000    1.793540   -0.000000
      5          8           0       -0.616886    1.008077   -0.000000
 ---------------------------------------------------------------------

 SCF Done:  E(UB3LYP) =  -152.589663297     A.U. after   23 cycles

 The electronic state is 2-A'.
 Alpha  occ. eigenvalues --  -19.03857 -10.08571 -10.01295  -0.94538  -0.60305
 Alpha  occ. eigenvalues --   -0.46818  -0.37770  -0.31440  -0.27695  -0.13113
 Alpha  occ. eigenvalues --   -0.10968   0.05926
 Alpha virt. eigenvalues --    0.08690   0.15186   0.16725   0.16981   0.18641
 Alpha virt. eigenvalues --    0.19138   0.20027   0.21879   0.22635   0.25117
 Alpha virt. eigenvalues --    0.26002   0.29151   0.32608   0.35315   0.36402

  Beta  occ. eigenvalues --  -19.03682 -10.08550 -10.01247  -0.94169  -0.60172
  Beta  occ. eigenvalues --   -0.46453  -0.37695  -0.31260  -0.27526  -0.12985
  Beta  occ. eigenvalues --   -0.10878
  Beta virt. eigenvalues --    0.09384   0.11623   0.15502   0.16815   0.17328
  Beta virt. eigenvalues --    0.19375   0.19416   0.20553   0.22724   0.22884
  Beta virt. eigenvalues --    0.25176   0.26346   0.29971   0.33095   0.35624

 Mulliken charges and spin densities:
               1          2
     1  C   -1.578970   1.515943
     2  C    3.900498  -3.927077
     3  H   -1.471367   1.770139
     4  H   -1.217128   1.569552
     5  O   -0.633033   0.071444
 Sum of Mulliken charges =  -1.00000   1.00000

 Dipole moment (field-independent basis, Debye):
    X=             -2.4477    Y=             -3.4074    Z=             -0.0000  Tot=              4.1955
 Quadrupole moment (field-independent basis, Debye-Ang):
   XX=            -36.6676   YY=            -57.4910   ZZ=            -32.3404
   XY=              3.8130   XZ=             -0.0000   YZ=              0.0000

  Exact polarizability: 260.215-369.4761645.404   0.000  -0.000 108.581
 Approx polarizability: 264.564-447.1821891.520   0.000  -0.000 103.360

                      1                      2                      3
                     A'                     A"                     A"
 Frequencies --    355.5895               419.7201               534.5285
 Red. masses --      4.9182                 9.0399                 1.1904
 Frc consts  --      0.3664                 0.9383                 0.2004
 IR Inten    --     50.2166                26.6088               434.8325

                      4                      5                      6
                     A'                     A'                     A'
 Frequencies --    631.0541              1065.1532              1169.8093
 Red. masses --      1.1947                 8.9639                 1.1851
 Frc consts  --      0.2803                 5.9920                 0.9555
 IR Inten    --    306.1544              1008.1426              1315.4073

                      7                      8                      9
                     A'                     A'                     A'
 Frequencies --   2205.6866              2961.4110              3464.7654
 Red. masses --      6.0067                 1.0732                 1.1572
 Frc consts  --     17.2178                 5.5456                 8.1848
 IR Inten    --   2112.0361             15906.8528               739.9022

 - Thermochemistry -
 -------------------
 Temperature   298.150 Kelvin.  Pressure   1.00000 Atm.
 Atom     1 has atomic number  6 and mass  12.00000

 Molecular mass:    42.01056 amu.
 Principal axes and moments of inertia in atomic units:
                           1         2         3
     Eigenvalues --     2.82471 184.30455 187.12926
           X           -0.46425   0.88571  -0.00000
           Y            0.88571   0.46425   0.00000
           Z           -0.00000   0.00000   1.00000
 This molecule is an asymmetric top.
 Rotational symmetry number  1.
 Rotational temperatures (Kelvin)     30.66290     0.46995     0.46286
 Rotational constants (GHZ):         638.91183     9.79217     9.64436
 Zero-point vibrational energy      76607.2 (Joules/Mol)
                                   18.30955 (Kcal/Mol)
 Warning -- explicit consideration of   3 degrees of freedom as
           vibrations may cause significant error
 Vibrational temperatures:    511.61   603.88   769.07   907.94  1532.52
          (Kelvin)           1683.09  3173.49  4260.80  4985.02

 Zero-point correction=                           0.029178 (Hartree/Particle)
 Thermal correction to Energy=                    0.033048
 Thermal correction to Enthalpy=                  0.033992
 Thermal correction to Gibbs Free Energy=         0.005077
 Sum of electronic and zero-point Energies=           -152.560485
 Sum of electronic and thermal Energies=              -152.556616
 Sum of electronic and thermal Enthalpies=            -152.555671
 Sum of electronic and thermal Free Energies=         -152.584586

                     E (Thermal)             CV                S
                      KCal/Mol        Cal/Mol-Kelvin    Cal/Mol-Kelvin
 Total                   20.738             11.635             60.857
 Electronic               0.000              0.000              1.377
 Translational            0.889              2.981             37.133
 Rotational               0.889              2.981             19.216
 Vibrational             18.960              5.674              3.130
 Vibration     1          0.731              1.564              1.141
 Vibration     2          0.782              1.427              0.893
 Vibration     3          0.890              1.174              0.577

 Optimization completed.
    -- Stationary point found.
 Normal termination of Gaussian 09 at Thu Mar  7 10:00:55 2019.
