 Gaussian 09, Revision E.01,
 Gaussian 09:  EM64L-G09RevE.01 30-Nov-2015

 ------------------------------------------------------
 #p b3lyp/6-311++G(3df,2p) freq IOp(2/17=3) IOp(2/18=3)
 ------------------------------------------------------

 ---------
 b3lyp opt
 ---------
 Symbolic Z-matrix:
 Charge = -1 Multiplicity = 2

                         Standard orientation:
 ---------------------------------------------------------------------
 Center     Atomic      Atomic             Coordinates (Angstroms)
 Number     Number       Type             X           Y           Z
 ---------------------------------------------------------------------
      1          6           0        1.997208   -0.327466    0.054606
      2          6           0        0.824642    0.061337   -0.013175
      3          6           0       -1.853812   -0.399160    0.106154
      4          1           0       -0.628434    1.262628    0.444237
      5          1           0       -1.408494   -1.345479   -0.260263
      6          8           0       -0.471412    0.509323   -0.133686
 ---------------------------------------------------------------------

 SCF Done:  E(UB3LYP) =  -190.525062745     A.U. after   16 cycles

 The electronic state is 2-A.
 Alpha  occ. eigenvalues --  -19.09091 -10.04530  -9.99906  -9.94646  -0.97168
 Alpha  occ. eigenvalues --   -0.54648  -0.49416  -0.45949  -0.32877  -0.28992
 Alpha  occ. eigenvalues --   -0.11528  -0.07119  -0.06676  -0.05772  -0.03737
 Alpha virt. eigenvalues --    0.10117   0.12951   0.15465   0.18436   0.18835
 Alpha virt. eigenvalues --    0.19874   0.20319   0.21268   0.22081   0.23125
 Alpha virt. eigenvalues --    0.23429   0.24553   0.25828   0.27830   0.29773

  Beta  occ. eigenvalues --  -19.08985 -10.03150  -9.99901  -9.94643  -0.96924
  Beta  occ. eigenvalues --   -0.54426  -0.47202  -0.45783  -0.31681  -0.28040
  Beta  occ. eigenvalues --   -0.09678  -0.06870  -0.06466  -0.05321
  Beta virt. eigenvalues --    0.10170   0.10324   0.13204   0.15857   0.18913
  Beta virt. eigenvalues --    0.19425   0.20179   0.20684   0.21363   0.22238
  Beta virt. eigenvalues --    0.23715   0.23878   0.24784   0.26328   0.27964

 Mulliken charges and spin densities:
               1          2
     1  C   -1.019371   0.006840
     2  C    0.442088  -0.001870
     3  C   -0.449019   1.048265
     4  H    0.304783  -0.002656
     5  H    0.114390  -0.028319
     6  O   -0.392872  -0.022260
 Sum of Mulliken charges =  -1.00000   1.00000

 Dipole moment (field-independent basis, Debye):
    X=             -3.6251    Y=              2.8484    Z=             -0.1706  Tot=              4.6135
 Quadrupole moment (field-independent basis, Debye-Ang):
   XX=            -59.9364   YY=            -26.4995   ZZ=            -30.3505
   XY=              2.1846   XZ=              0.4591   YZ=              1.9227

  Exact polarizability:  93.378  -3.696  53.396   0.188   0.225  53.147
 Approx polarizability: 119.131  -7.594  75.434   0.362   1.427  67.512

                      1                      2                      3
                      A                      A                      A
 Frequencies --    157.8218               222.6746               314.7646
 Red. masses --      7.4197                 2.1859                 2.0683
 Frc consts  --      0.1089                 0.0639                 0.1207
 IR Inten    --     12.2498                16.6078                70.4864

                      4                      5                      6
                      A                      A                      A
 Frequencies --    350.9410               404.5359               619.8277
 Red. masses --      7.3577                 4.0656                 1.4563
 Frc consts  --      0.5339                 0.3920                 0.3296
 IR Inten    --     48.9739                67.0388                78.8544

                      7                      8                      9
                      A                      A                      A
 Frequencies --    883.7541              1173.9106              1288.0428
 Red. masses --     10.6485                 1.1722                 1.0912
 Frc consts  --      4.9001                 0.9518                 1.0666
 IR Inten    --     75.4800                19.2725                24.0533

                     10                     11                     12
                      A                      A                      A
 Frequencies --   2057.8516              2905.0563              3796.7567
 Red. masses --     11.5715                 1.0855                 1.0677
 Frc consts  --     28.8713                 5.3976                 9.0681
 IR Inten    --      3.7445               112.3585               125.0449

 - Thermochemistry -
 -------------------
 Temperature   298.150 Kelvin.  Pressure   1.00000 Atm.
 Atom     1 has atomic number  6 and mass  12.00000

 Molecular mass:    54.01056 amu.
 Principal axes and moments of inertia in atomic units:
                           1         2         3
     Eigenvalues --    41.19816 370.67687 407.26822
           X            0.99993   0.01174   0.00173
           Y           -0.01185   0.99600   0.08858
           Z           -0.00068  -0.08859   0.99607
 This molecule is an asymmetric top.
 Rotational symmetry number  1.
 Rotational temperatures (Kelvin)      2.10237     0.23366     0.21267
 Rotational constants (GHZ):          43.80636     4.86877     4.43133
 Zero-point vibrational energy      84790.9 (Joules/Mol)
                                   20.26552 (Kcal/Mol)
 Warning -- explicit consideration of   6 degrees of freedom as
           vibrations may cause significant error
 Vibrational temperatures:    227.07   320.38   452.88   504.93   582.04
          (Kelvin)            891.79  1271.52  1688.99  1853.20  2960.79
                             4179.72  5462.68

 Zero-point correction=                           0.032295 (Hartree/Particle)
 Thermal correction to Energy=                    0.037588
 Thermal correction to Enthalpy=                  0.038533
 Thermal correction to Gibbs Free Energy=         0.004701
 Sum of electronic and zero-point Energies=           -190.492768
 Sum of electronic and thermal Energies=              -190.487474
 Sum of electronic and thermal Enthalpies=            -190.486530
 Sum of electronic and thermal Free Energies=         -190.520362

                     E (Thermal)             CV                S
                      KCal/Mol        Cal/Mol-Kelvin    Cal/Mol-Kelvin
 Total                   23.587             16.240             71.205
 Electronic               0.000              0.000              1.377
 Translational            0.889              2.981             37.882
 Rotational               0.889              2.981             23.346
 Vibrational             21.810             10.279              8.600
 Vibration     1          0.621              1.894              2.576
 Vibration     2          0.648              1.807              1.937
 Vibration     3          0.702              1.645              1.337
 Vibration     4          0.728              1.573              1.162
 Vibration     5          0.770              1.460              0.946
 Vibration     6          0.980              0.990              0.417

 Normal termination of Gaussian 09 at Thu Mar  7 10:47:12 2019.
