 Gaussian 09, Revision E.01,
 Gaussian 09:  EM64L-G09RevE.01 30-Nov-2015

 ------------------------------------------------------
 #p b3lyp/6-311++G(3df,2p) freq IOp(2/17=3) IOp(2/18=3)
 ------------------------------------------------------

 ---------
 b3lyp opt
 ---------
 Symbolic Z-matrix:
 Charge = -1 Multiplicity = 4

                         Standard orientation:
 ---------------------------------------------------------------------
 Center     Atomic      Atomic             Coordinates (Angstroms)
 Number     Number       Type             X           Y           Z
 ---------------------------------------------------------------------
      1          6           0        0.969717    0.426100   -0.038339
      2          6           0       -1.750719    0.475658   -0.087354
      3          6           0       -1.396973   -0.919068    0.024799
      4          6           0       -0.341268   -0.072795   -0.064120
      5          1           0       -2.108878    1.193050    0.667772
      6          1           0        1.040143    1.525515   -0.140661
      7          8           0        2.023024   -0.272242    0.057871
 ---------------------------------------------------------------------

 SCF Done:  E(UB3LYP) =  -228.713616707     A.U. after   19 cycles

 The electronic state is 4-A.
 Alpha  occ. eigenvalues --  -18.91111 -10.04518 -10.03171 -10.03145 -10.01735
 Alpha  occ. eigenvalues --   -0.82091  -0.71051  -0.50804  -0.40317  -0.32094
 Alpha  occ. eigenvalues --   -0.27102  -0.23559  -0.22625  -0.19802  -0.16373
 Alpha  occ. eigenvalues --   -0.08156  -0.07028  -0.01723   0.03471
 Alpha virt. eigenvalues --    0.11529   0.13471   0.16221   0.17010   0.18441
 Alpha virt. eigenvalues --    0.19261   0.21373   0.22144   0.22165   0.23410
 Alpha virt. eigenvalues --    0.23898   0.25162   0.25492   0.26771   0.27951

  Beta  occ. eigenvalues --  -18.90130 -10.04198 -10.02648 -10.01765  -9.99875
  Beta  occ. eigenvalues --   -0.80227  -0.68477  -0.48413  -0.36984  -0.30972
  Beta  occ. eigenvalues --   -0.24264  -0.19217  -0.17867  -0.16822  -0.10977
  Beta  occ. eigenvalues --   -0.06415
  Beta virt. eigenvalues --    0.05321   0.09851   0.11689   0.13341   0.14482
  Beta virt. eigenvalues --    0.16646   0.17756   0.18747   0.19561   0.21787
  Beta virt. eigenvalues --    0.22279   0.23603   0.23814   0.25084   0.25603

 Mulliken charges and spin densities:
               1          2
     1  C   -0.112876   0.276882
     2  C   -0.444843   0.901062
     3  C   -0.267110   1.227129
     4  C    0.425198   0.219132
     5  H    0.093565   0.059125
     6  H    0.048665  -0.014758
     7  O   -0.742600   0.331429
 Sum of Mulliken charges =  -1.00000   3.00000

 Dipole moment (field-independent basis, Debye):
    X=             -0.7587    Y=              1.8304    Z=              0.5752  Tot=              2.0632
 Quadrupole moment (field-independent basis, Debye-Ang):
   XX=            -52.2798   YY=            -36.4490   ZZ=            -34.6156
   XY=              0.4465   XZ=             -2.1341   YZ=              0.9105

  Exact polarizability:  99.784   1.494  78.814  -0.175   2.278  57.751
 Approx polarizability: 139.959   6.051 113.643   0.987   0.975  71.185

                      1                      2                      3
                      A                      A                      A
 Frequencies --    218.4585               229.4444               404.5096
 Red. masses --      4.5538                 6.4529                 3.1002
 Frc consts  --      0.1280                 0.2002                 0.2989
 IR Inten    --      4.9461                 2.3299                 9.5123

                      4                      5                      6
                      A                      A                      A
 Frequencies --    509.9473               753.9480               806.7015
 Red. masses --      7.4577                 1.6171                 6.3618
 Frc consts  --      1.1426                 0.5416                 2.4392
 IR Inten    --      3.3003                10.8836                27.9757

                      7                      8                      9
                      A                      A                      A
 Frequencies --    898.8685               933.5066               962.6069
 Red. masses --      1.3012                 4.0511                 1.4464
 Frc consts  --      0.6194                 2.0800                 0.7897
 IR Inten    --     15.2034                21.0954                28.0567

                     10                     11                     12
                      A                      A                      A
 Frequencies --   1123.8126              1342.3791              1458.7031
 Red. masses --      9.6352                 1.5851                 3.2058
 Frc consts  --      7.1697                 1.6829                 4.0190
 IR Inten    --     49.5724                93.4720               278.0185

                     13                     14                     15
                      A                      A                      A
 Frequencies --   1647.7095              2859.6350              2870.0481
 Red. masses --     11.5064                 1.0822                 1.0765
 Frc consts  --     18.4056                 5.2139                 5.2243
 IR Inten    --     58.6822               240.2390               283.3067

 - Thermochemistry -
 -------------------
 Temperature   298.150 Kelvin.  Pressure   1.00000 Atm.
 Atom     1 has atomic number  6 and mass  12.00000

 Molecular mass:    66.01056 amu.
 Principal axes and moments of inertia in atomic units:
                           1         2         3
     Eigenvalues --    73.59718 516.27015 585.23440
           X            0.99991  -0.00741  -0.01103
           Y            0.00775   0.99947   0.03156
           Z            0.01079  -0.03165   0.99944
 This molecule is an asymmetric top.
 Rotational symmetry number  1.
 Rotational temperatures (Kelvin)      1.17686     0.16777     0.14800
 Rotational constants (GHZ):          24.52188     3.49573     3.08379
 Zero-point vibrational energy     101803.9 (Joules/Mol)
                                   24.33171 (Kcal/Mol)
 Warning -- explicit consideration of   4 degrees of freedom as
           vibrations may cause significant error
 Vibrational temperatures:    314.31   330.12   582.00   733.70  1084.76
          (Kelvin)           1160.66  1293.27  1343.11  1384.97  1616.91
                             1931.38  2098.75  2370.68  4114.37  4129.35

 Zero-point correction=                           0.038775 (Hartree/Particle)
 Thermal correction to Energy=                    0.043532
 Thermal correction to Enthalpy=                  0.044476
 Thermal correction to Gibbs Free Energy=         0.010170
 Sum of electronic and zero-point Energies=           -228.674842
 Sum of electronic and thermal Energies=              -228.670085
 Sum of electronic and thermal Enthalpies=            -228.669140
 Sum of electronic and thermal Free Energies=         -228.703446

                     E (Thermal)             CV                S
                      KCal/Mol        Cal/Mol-Kelvin    Cal/Mol-Kelvin
 Total                   27.317             15.526             72.203
 Electronic               0.000              0.000              2.755
 Translational            0.889              2.981             38.480
 Rotational               0.889              2.981             24.612
 Vibrational             25.539              9.565              6.356
 Vibration     1          0.646              1.813              1.972
 Vibration     2          0.652              1.796              1.883
 Vibration     3          0.770              1.460              0.946
 Vibration     4          0.865              1.228              0.634

 Optimization completed.
    -- Stationary point found.
 Normal termination of Gaussian 09 at Thu Mar  7 12:34:29 2019.
