 Gaussian 09, Revision E.01,
 Gaussian 09:  EM64L-G09RevE.01 30-Nov-2015

 ------------------------------------------------------
 #p b3lyp/6-311++G(3df,2p) freq IOp(2/17=3) IOp(2/18=3)
 ------------------------------------------------------

 ---------
 b3lyp opt
 ---------
 Symbolic Z-matrix:
 Charge = -1 Multiplicity = 4

                         Standard orientation:
 ---------------------------------------------------------------------
 Center     Atomic      Atomic             Coordinates (Angstroms)
 Number     Number       Type             X           Y           Z
 ---------------------------------------------------------------------
      1          6           0        0.291539    0.995034    0.003747
      2          6           0       -0.967622   -0.832055    0.099319
      3          8           0       -1.001302    0.552371   -0.060167
      4          6           0        0.371186   -1.181474   -0.059409
      5          6           0        1.190015   -0.063596   -0.000820
      6          1           0        0.436619    2.055236    0.154047
      7          1           0        2.263086    0.018335    0.070263
 ---------------------------------------------------------------------

 SCF Done:  E(UB3LYP) =  -228.674988512     A.U. after   27 cycles

 The electronic state is 4-A.
 Alpha  occ. eigenvalues --  -19.07229 -10.12324 -10.10993 -10.09075 -10.06652
 Alpha  occ. eigenvalues --   -0.99027  -0.69982  -0.62232  -0.47228  -0.43862
 Alpha  occ. eigenvalues --   -0.39530  -0.33977  -0.31539  -0.26648  -0.18967
 Alpha  occ. eigenvalues --   -0.16465  -0.14550  -0.12511   0.06049
 Alpha virt. eigenvalues --    0.09325   0.09705   0.13696   0.15059   0.15655
 Alpha virt. eigenvalues --    0.15827   0.16728   0.18789   0.19551   0.20010
 Alpha virt. eigenvalues --    0.20586   0.21454   0.22109   0.22725   0.24912

  Beta  occ. eigenvalues --  -19.06949 -10.11645 -10.09775 -10.07276 -10.06520
  Beta  occ. eigenvalues --   -0.97972  -0.67911  -0.59533  -0.45675  -0.41611
  Beta  occ. eigenvalues --   -0.37422  -0.32202  -0.30462  -0.25589  -0.16669
  Beta  occ. eigenvalues --   -0.10698
  Beta virt. eigenvalues --   -0.01925   0.01144   0.10278   0.11793   0.12241
  Beta virt. eigenvalues --    0.14915   0.15851   0.16321   0.17003   0.18110
  Beta virt. eigenvalues --    0.19675   0.19856   0.20693   0.21285   0.21964

 Mulliken charges and spin densities:
               1          2
     1  C    2.105486  -1.623342
     2  C   -0.551587   1.017581
     3  O   -0.527513   0.018137
     4  C    1.554552  -0.216039
     5  C   -0.020597  -0.149649
     6  H   -1.679152   1.871602
     7  H   -1.881189   2.081710
 Sum of Mulliken charges =  -1.00000   3.00000

 Dipole moment (field-independent basis, Debye):
    X=             -5.4865    Y=             -4.2209    Z=             -1.8644  Tot=              7.1690
 Quadrupole moment (field-independent basis, Debye-Ang):
   XX=            -68.2262   YY=            -63.8589   ZZ=            -46.6395
   XY=             -8.9326   XZ=              0.3911   YZ=             -3.2348

  Exact polarizability: 933.609-389.0691032.985-105.196  94.089 204.953
 Approx polarizability: 845.009-267.848 918.223 -94.680  94.914 193.540

                      1                      2                      3
                      A                      A                      A
 Frequencies --    389.3592               486.1451               602.1957
 Red. masses --      4.8661                 4.1732                 5.4248
 Frc consts  --      0.4346                 0.5811                 1.1591
 IR Inten    --   3943.1213                55.1280               468.8242

                      4                      5                      6
                      A                      A                      A
 Frequencies --    687.6078               774.9353               838.2332
 Red. masses --      2.0373                 3.1975                 5.3203
 Frc consts  --      0.5675                 1.1313                 2.2025
 IR Inten    --   1279.1132               395.3374               247.3217

                      7                      8                      9
                      A                      A                      A
 Frequencies --    883.1254               967.8622              1066.3463
 Red. masses --      1.6831                 2.3561                 2.3006
 Frc consts  --      0.7734                 1.3004                 1.5413
 IR Inten    --    732.6789               965.0904                19.2844

                     10                     11                     12
                      A                      A                      A
 Frequencies --   1130.2515              1222.0606              1287.8919
 Red. masses --      3.3390                 3.2902                 2.3271
 Frc consts  --      2.5131                 2.8950                 2.2742
 IR Inten    --   1023.6253               293.3717               360.1287

                     13                     14                     15
                      A                      A                      A
 Frequencies --   1410.8981              3175.0840              3195.2946
 Red. masses --      2.6589                 1.0946                 1.0976
 Frc consts  --      3.1185                 6.5017                 6.6024
 IR Inten    --    131.2313               167.9936               150.9178

 - Thermochemistry -
 -------------------
 Temperature   298.150 Kelvin.  Pressure   1.00000 Atm.
 Atom     1 has atomic number  6 and mass  12.00000

 Molecular mass:    66.01056 amu.
 Principal axes and moments of inertia in atomic units:
                           1         2         3
     Eigenvalues --   164.78578 187.80823 350.85445
           X            0.98731   0.15874   0.00464
           Y           -0.15877   0.98729   0.00713
           Z           -0.00345  -0.00778   0.99996
 This molecule is an asymmetric top.
 Rotational symmetry number  1.
 Rotational temperatures (Kelvin)      0.52561     0.46118     0.24687
 Rotational constants (GHZ):          10.95204     9.60949     5.14385
 Zero-point vibrational energy     108365.5 (Joules/Mol)
                                   25.89997 (Kcal/Mol)
 Warning -- explicit consideration of   3 degrees of freedom as
           vibrations may cause significant error
 Vibrational temperatures:    560.20   699.45   866.42   989.31  1114.96
          (Kelvin)           1206.03  1270.62  1392.54  1534.23  1626.18
                             1758.27  1852.99  2029.97  4568.23  4597.31

 Zero-point correction=                           0.041274 (Hartree/Particle)
 Thermal correction to Energy=                    0.045276
 Thermal correction to Enthalpy=                  0.046220
 Thermal correction to Gibbs Free Energy=         0.013687
 Sum of electronic and zero-point Energies=           -228.633714
 Sum of electronic and thermal Energies=              -228.629713
 Sum of electronic and thermal Enthalpies=            -228.628769
 Sum of electronic and thermal Free Energies=         -228.661301

                     E (Thermal)             CV                S
                      KCal/Mol        Cal/Mol-Kelvin    Cal/Mol-Kelvin
 Total                   28.411             13.848             68.471
 Electronic               0.000              0.000              2.755
 Translational            0.889              2.981             38.480
 Rotational               0.889              2.981             23.900
 Vibrational             26.633              7.886              3.336
 Vibration     1          0.757              1.493              1.003
 Vibration     2          0.842              1.281              0.694
 Vibration     3          0.961              1.027              0.446

 Optimization completed.
    -- Stationary point found.
 Normal termination of Gaussian 09 at Thu Mar  7 13:22:00 2019.
