 Gaussian 09, Revision E.01,
 Gaussian 09:  EM64L-G09RevE.01 30-Nov-2015

 ------------------------------------------------------
 #p b3lyp/6-311++G(3df,2p) freq IOp(2/17=3) IOp(2/18=3)
 ------------------------------------------------------

 ---------
 b3lyp opt
 ---------
 Symbolic Z-matrix:
 Charge = -1 Multiplicity = 2

                         Standard orientation:
 ---------------------------------------------------------------------
 Center     Atomic      Atomic             Coordinates (Angstroms)
 Number     Number       Type             X           Y           Z
 ---------------------------------------------------------------------
      1          6           0       -0.637729   -0.889859    0.000000
      2          6           0       -0.061179    1.730771   -0.000000
      3          6           0        1.204336    1.198853   -0.000000
      4          6           0       -0.000000    0.361237   -0.000000
      5          1           0       -0.649554    2.638651   -0.000000
      6          1           0       -1.747473   -0.841855    0.000000
      7          8           0       -0.079443   -2.025351    0.000000
 ---------------------------------------------------------------------

 SCF Done:  E(UB3LYP) =  -228.802398289     A.U. after   18 cycles

 The electronic state is 2-A".
 Alpha  occ. eigenvalues --  -18.90924 -10.04087 -10.01814 -10.01579  -9.99324
 Alpha  occ. eigenvalues --   -0.81863  -0.71283  -0.50269  -0.39842  -0.31635
 Alpha  occ. eigenvalues --   -0.27439  -0.22536  -0.22479  -0.16770  -0.14202
 Alpha  occ. eigenvalues --   -0.06945  -0.04537   0.01309
 Alpha virt. eigenvalues --    0.10613   0.12857   0.15146   0.16737   0.17607
 Alpha virt. eigenvalues --    0.18634   0.19358   0.21798   0.21846   0.22375
 Alpha virt. eigenvalues --    0.23486   0.24515   0.25320   0.25822   0.26646

  Beta  occ. eigenvalues --  -18.89923 -10.03805 -10.01603 -10.01247  -9.99247
  Beta  occ. eigenvalues --   -0.80018  -0.70728  -0.48379  -0.39453  -0.31030
  Beta  occ. eigenvalues --   -0.26870  -0.21728  -0.19325  -0.13926  -0.13055
  Beta  occ. eigenvalues --   -0.06080  -0.04290
  Beta virt. eigenvalues --    0.10495   0.10598   0.12859   0.15788   0.16742
  Beta virt. eigenvalues --    0.18083   0.18644   0.19385   0.21925   0.22143
  Beta virt. eigenvalues --    0.22404   0.23487   0.25340   0.26179   0.26544

 Mulliken charges and spin densities:
               1          2
     1  C   -0.229930   0.207839
     2  C   -0.121753   0.197225
     3  C   -0.512571   0.092113
     4  C    0.418543   0.185407
     5  H    0.167137  -0.007908
     6  H    0.015705  -0.019837
     7  O   -0.737131   0.345162
 Sum of Mulliken charges =  -1.00000   1.00000

 Dipole moment (field-independent basis, Debye):
    X=             -3.8941    Y=              2.0626    Z=             -0.0000  Tot=              4.4067
 Quadrupole moment (field-independent basis, Debye-Ang):
   XX=            -41.3126   YY=            -47.5320   ZZ=            -32.7977
   XY=             -6.2612   XZ=             -0.0000   YZ=              0.0000

  Exact polarizability:  72.291   9.382  94.824  -0.000  -0.000  44.636
 Approx polarizability:  96.332   3.805 133.524  -0.000  -0.000  62.830

                      1                      2                      3
                     A"                     A'                     A"
 Frequencies --    219.4241               226.2848               369.2289
 Red. masses --      3.7139                 6.7867                 3.5275
 Frc consts  --      0.1054                 0.2047                 0.2833
 IR Inten    --      0.4042                 3.2555                 0.0351

                      4                      5                      6
                     A'                     A"                     A'
 Frequencies --    580.7802               721.3574               765.6188
 Red. masses --      5.4923                 1.3521                 6.6025
 Frc consts  --      1.0915                 0.4145                 2.2803
 IR Inten    --      6.1612                 7.2600                20.8459

                      7                      8                      9
                     A"                     A'                     A'
 Frequencies --    803.0136               923.8174              1128.0940
 Red. masses --      1.6687                 1.3907                 5.9559
 Frc consts  --      0.6340                 0.6993                 4.4657
 IR Inten    --      9.7401                 8.3561                12.7833

                     10                     11                     12
                     A'                     A'                     A'
 Frequencies --   1322.2510              1365.1245              1480.3761
 Red. masses --      5.1700                 1.5321                 4.0013
 Frc consts  --      5.3256                 1.6822                 5.1664
 IR Inten    --    147.6514                18.5583               290.0071

                     13                     14                     15
                     A'                     A'                     A'
 Frequencies --   1690.2159              2815.1128              3148.6743
 Red. masses --      9.1950                 1.0752                 1.1030
 Frc consts  --     15.4769                 5.0201                 6.4429
 IR Inten    --      7.0211               259.9439                35.4401

 - Thermochemistry -
 -------------------
 Temperature   298.150 Kelvin.  Pressure   1.00000 Atm.
 Atom     1 has atomic number  6 and mass  12.00000

 Molecular mass:    66.01056 amu.
 Principal axes and moments of inertia in atomic units:
                           1         2         3
     Eigenvalues --    72.86035 510.67256 583.53290
           X            0.21075   0.97754  -0.00000
           Y            0.97754  -0.21075   0.00000
           Z           -0.00000   0.00000   1.00000
 This molecule is an asymmetric top.
 Rotational symmetry number  1.
 Rotational temperatures (Kelvin)      1.18876     0.16961     0.14843
 Rotational constants (GHZ):          24.76987     3.53405     3.09278
 Zero-point vibrational energy     105028.4 (Joules/Mol)
                                   25.10239 (Kcal/Mol)
 Warning -- explicit consideration of   4 degrees of freedom as
           vibrations may cause significant error
 Vibrational temperatures:    315.70   325.57   531.24   835.61  1037.87
          (Kelvin)           1101.55  1155.36  1329.17  1623.07  1902.42
                             1964.11  2129.93  2431.84  4050.31  4530.23

 Zero-point correction=                           0.040003 (Hartree/Particle)
 Thermal correction to Energy=                    0.044768
 Thermal correction to Enthalpy=                  0.045712
 Thermal correction to Gibbs Free Energy=         0.012046
 Sum of electronic and zero-point Energies=           -228.762395
 Sum of electronic and thermal Energies=              -228.757631
 Sum of electronic and thermal Enthalpies=            -228.756687
 Sum of electronic and thermal Free Energies=         -228.790352

                     E (Thermal)             CV                S
                      KCal/Mol        Cal/Mol-Kelvin    Cal/Mol-Kelvin
 Total                   28.092             15.427             70.855
 Electronic               0.000              0.000              1.377
 Translational            0.889              2.981             38.480
 Rotational               0.889              2.981             24.588
 Vibrational             26.315              9.465              6.409
 Vibration     1          0.647              1.811              1.964
 Vibration     2          0.650              1.801              1.908
 Vibration     3          0.742              1.535              1.083
 Vibration     4          0.937              1.073              0.484

 Normal termination of Gaussian 09 at Thu Mar  7 21:07:26 2019.
