 Gaussian 09, Revision E.01,
 Gaussian 09:  EM64L-G09RevE.01 30-Nov-2015

 ------------------------------------------------------
 #p b3lyp/6-311++G(3df,2p) freq IOp(2/17=3) IOp(2/18=3)
 ------------------------------------------------------

 ---------
 b3lyp opt
 ---------
 Symbolic Z-matrix:
 Charge = -1 Multiplicity = 2

                         Standard orientation:
 ---------------------------------------------------------------------
 Center     Atomic      Atomic             Coordinates (Angstroms)
 Number     Number       Type             X           Y           Z
 ---------------------------------------------------------------------
      1          6           0        0.000000   -1.093409    0.222599
      2          6           0        0.000000    1.093409    0.222599
      3          8           0       -0.000000    0.000000    1.091477
      4          6           0       -0.000000    0.691877   -1.072104
      5          6           0       -0.000000   -0.691877   -1.072104
      6          1           0        0.000000   -2.045983    0.731120
      7          1           0        0.000000    2.045983    0.731120
 ---------------------------------------------------------------------

 SCF Done:  E(UB3LYP) =  -228.788424563     A.U. after   15 cycles

 The electronic state is 2-B2.
 Alpha  occ. eigenvalues --  -18.98390 -10.02062 -10.02058  -9.95483  -9.95428
 Alpha  occ. eigenvalues --   -0.89117  -0.58850  -0.53129  -0.37070  -0.35603
 Alpha  occ. eigenvalues --   -0.29155  -0.24411  -0.23759  -0.18164  -0.07893
 Alpha  occ. eigenvalues --   -0.06779  -0.03077  -0.01306
 Alpha virt. eigenvalues --    0.11912   0.12342   0.17440   0.17988   0.18533
 Alpha virt. eigenvalues --    0.18990   0.21042   0.22429   0.23145   0.23530
 Alpha virt. eigenvalues --    0.24180   0.24591   0.25154   0.25376   0.26243

  Beta  occ. eigenvalues --  -18.98367 -10.01872 -10.01868  -9.94604  -9.94545
  Beta  occ. eigenvalues --   -0.88973  -0.57786  -0.52613  -0.36918  -0.34325
  Beta  occ. eigenvalues --   -0.27694  -0.24379  -0.23451  -0.17579  -0.07090
  Beta  occ. eigenvalues --   -0.02749  -0.01811
  Beta virt. eigenvalues --    0.10003   0.11929   0.12654   0.17639   0.18266
  Beta virt. eigenvalues --    0.19037   0.19224   0.21112   0.22513   0.23168
  Beta virt. eigenvalues --    0.23766   0.24686   0.24724   0.25381   0.25439

 Mulliken charges and spin densities:
               1          2
     1  C   -0.154860  -0.051516
     2  C   -0.154860  -0.051516
     3  O   -0.613426   0.011853
     4  C   -0.159490   0.537599
     5  C   -0.159490   0.537599
     6  H    0.121063   0.007990
     7  H    0.121063   0.007990
 Sum of Mulliken charges =  -1.00000   1.00000

 Dipole moment (field-independent basis, Debye):
    X=              0.0000    Y=              0.0000    Z=              3.8981  Tot=              3.8981
 Quadrupole moment (field-independent basis, Debye-Ang):
   XX=            -35.2358   YY=            -37.0511   ZZ=            -44.2608
   XY=             -0.0000   XZ=              0.0000   YZ=             -0.0000

  Exact polarizability:  51.635  -0.000 109.402  -0.000   0.000  77.797
 Approx polarizability:  69.974   0.000 157.782   0.000   0.000 114.011

                      1                      2                      3
                     B2                     A2                     B1
 Frequencies --    535.8996               589.7872               597.1048
 Red. masses --     10.0810                11.8423                 3.3971
 Frc consts  --      1.7058                 2.4270                 0.7136
 IR Inten    --    366.9924                 0.0000                15.1183

                      4                      5                      6
                     A2                     B1                     A1
 Frequencies --    664.8934               716.9739               890.1135
 Red. masses --      1.1999                 1.3796                 6.1691
 Frc consts  --      0.3125                 0.4178                 2.8798
 IR Inten    --      0.0000                50.9743                61.8641

                      7                      8                      9
                     B2                     A1                     A1
 Frequencies --    970.4738               975.6393              1188.7382
 Red. masses --     10.5490                 4.7584                 2.0946
 Frc consts  --      5.8537                 2.6686                 1.7439
 IR Inten    --      4.1030                39.8108                 0.0000

                     10                     11                     12
                     B2                     A1                     A1
 Frequencies --   1226.8780              1374.3699              1433.8450
 Red. masses --      1.1926                 3.6786                 4.1742
 Frc consts  --      1.0577                 4.0939                 5.0562
 IR Inten    --      1.0452                 2.7890                75.9729

                     13                     14                     15
                     B2                     B2                     A1
 Frequencies --   1441.1870              3187.7696              3192.9495
 Red. masses --      6.4529                 1.0888                 1.0950
 Frc consts  --      7.8968                 6.5190                 6.5776
 IR Inten    --     29.5565                75.8045                51.4611

 - Thermochemistry -
 -------------------
 Temperature   298.150 Kelvin.  Pressure   1.00000 Atm.
 Atom     1 has atomic number  6 and mass  12.00000

 Molecular mass:    66.01056 amu.
 Principal axes and moments of inertia in atomic units:
                           1         2         3
     Eigenvalues --   173.62257 174.53704 348.15961
           X            0.00000  -0.00000   1.00000
           Y            0.00000   1.00000   0.00000
           Z            1.00000  -0.00000  -0.00000
 This molecule is an asymmetric top.
 Rotational symmetry number  2.
 Rotational temperatures (Kelvin)      0.49886     0.49625     0.24878
 Rotational constants (GHZ):          10.39462    10.34016     5.18366
 Zero-point vibrational energy     113565.2 (Joules/Mol)
                                   27.14274 (Kcal/Mol)
 Warning -- explicit consideration of   3 degrees of freedom as
           vibrations may cause significant error
 Vibrational temperatures:    771.04   848.57   859.10   956.63  1031.56
          (Kelvin)           1280.67  1396.29  1403.73  1710.33  1765.20
                             1977.41  2062.98  2073.54  4586.48  4593.94

 Zero-point correction=                           0.043255 (Hartree/Particle)
 Thermal correction to Energy=                    0.047038
 Thermal correction to Enthalpy=                  0.047983
 Thermal correction to Gibbs Free Energy=         0.017113
 Sum of electronic and zero-point Energies=           -228.745170
 Sum of electronic and thermal Energies=              -228.741386
 Sum of electronic and thermal Enthalpies=            -228.740442
 Sum of electronic and thermal Free Energies=         -228.771311

                     E (Thermal)             CV                S
                      KCal/Mol        Cal/Mol-Kelvin    Cal/Mol-Kelvin
 Total                   29.517             12.950             64.969
 Electronic               0.000              0.000              1.377
 Translational            0.889              2.981             38.480
 Rotational               0.889              2.981             22.494
 Vibrational             27.740              6.988              2.618
 Vibration     1          0.891              1.171              0.574
 Vibration     2          0.947              1.054              0.468
 Vibration     3          0.955              1.038              0.455

 Optimization completed.
    -- Stationary point found.
 Normal termination of Gaussian 09 at Thu Mar  7 21:00:40 2019.
