 Gaussian 09, Revision E.01,
 Gaussian 09:  EM64L-G09RevE.01 30-Nov-2015

 ------------------------------------------------------
 #p b3lyp/6-311++G(3df,2p) freq IOp(2/17=3) IOp(2/18=3)
 ------------------------------------------------------

 ---------
 b3lyp opt
 ---------
 Symbolic Z-matrix:
 Charge = -1 Multiplicity = 2

                         Standard orientation:
 ---------------------------------------------------------------------
 Center     Atomic      Atomic             Coordinates (Angstroms)
 Number     Number       Type             X           Y           Z
 ---------------------------------------------------------------------
      1          6           0        0.000000   -0.000000   -0.565400
      2          1           0        0.000000    0.933785   -1.155700
      3          1           0       -0.000000   -0.933785   -1.155700
      4          8           0       -0.000000    0.000000    0.712985
 ---------------------------------------------------------------------

 SCF Done:  E(UB3LYP) =  -114.526819641     A.U. after   15 cycles

 The electronic state is 2-B1.
 Alpha  occ. eigenvalues --  -18.85031  -9.97863  -0.75092  -0.38170  -0.21979
 Alpha  occ. eigenvalues --   -0.17707  -0.13299  -0.01355   0.10195
 Alpha virt. eigenvalues --    0.13535   0.15649   0.19428   0.21925   0.25270
 Alpha virt. eigenvalues --    0.25904   0.32556   0.36092   0.37210   0.39767
 Alpha virt. eigenvalues --    0.42286   0.45609   0.51032   0.55141   0.57369

  Beta  occ. eigenvalues --  -18.84064  -9.97290  -0.73254  -0.36147  -0.21464
  Beta  occ. eigenvalues --   -0.16684  -0.08283  -0.00579
  Beta virt. eigenvalues --    0.13605   0.15485   0.18566   0.19343   0.25522
  Beta virt. eigenvalues --    0.25832   0.26363   0.33113   0.36232   0.37269
  Beta virt. eigenvalues --    0.40358   0.42646   0.45697   0.52145   0.55447

 Mulliken charges and spin densities:
               1          2
     1  C   -0.409282   0.847941
     2  H    0.029089  -0.035636
     3  H    0.029089  -0.035636
     4  O   -0.648896   0.223331
 Sum of Mulliken charges =  -1.00000   1.00000

 Dipole moment (field-independent basis, Debye):
    X=              0.0000    Y=              0.0000    Z=             -0.1742  Tot=              0.1742
 Quadrupole moment (field-independent basis, Debye-Ang):
   XX=            -21.8505   YY=            -17.2281   ZZ=            -21.3412
   XY=              0.0000   XZ=              0.0000   YZ=             -0.0000

  Exact polarizability:-808.933  -0.000  29.703  -0.000  -0.000  42.595
 Approx polarizability: 137.397   0.000  35.353  -0.000   0.000  53.637

                      1                      2                      3
                     B1                     B2                     A1
 Frequencies --    523.2880              1163.4407              1312.7663
 Red. masses --      1.3535                 1.3227                 3.9474
 Frc consts  --      0.2184                 1.0549                 4.0081
 IR Inten    --  10789.1995                 0.6854               346.6788

                      4                      5                      6
                     A1                     A1                     B2
 Frequencies --   1523.8197              2872.8683              2877.4646
 Red. masses --      1.2799                 1.0391                 1.1155
 Frc consts  --      1.7510                 5.0528                 5.4418
 IR Inten    --    103.8723               185.9176               372.5542

 - Thermochemistry -
 -------------------
 Temperature   298.150 Kelvin.  Pressure   1.00000 Atm.
 Atom     1 has atomic number  6 and mass  12.00000

 Molecular mass:    30.01056 amu.
 Principal axes and moments of inertia in atomic units:
                           1         2         3
     Eigenvalues --     6.27635  51.72536  58.00170
           X           -0.00000   0.00000   1.00000
           Y            0.00000   1.00000  -0.00000
           Z            1.00000  -0.00000   0.00000
 This molecule is an asymmetric top.
 Rotational symmetry number  2.
 Rotational temperatures (Kelvin)     13.80003     1.67449     1.49330
 Rotational constants (GHZ):         287.54638    34.89084    31.11531
 Zero-point vibrational energy      61450.1 (Joules/Mol)
                                   14.68692 (Kcal/Mol)
 Warning -- explicit consideration of   1 degrees of freedom as
           vibrations may cause significant error
 Vibrational temperatures:    752.89  1673.93  1888.78  2192.43  4133.41
          (Kelvin)           4140.02

 Zero-point correction=                           0.023405 (Hartree/Particle)
 Thermal correction to Energy=                    0.026480
 Thermal correction to Enthalpy=                  0.027424
 Thermal correction to Gibbs Free Energy=         0.001576
 Sum of electronic and zero-point Energies=           -114.503415
 Sum of electronic and thermal Energies=              -114.500340
 Sum of electronic and thermal Enthalpies=            -114.499396
 Sum of electronic and thermal Free Energies=         -114.525243

                     E (Thermal)             CV                S
                      KCal/Mol        Cal/Mol-Kelvin    Cal/Mol-Kelvin
 Total                   16.616              7.602             54.400
 Electronic               0.000              0.000              1.377
 Translational            0.889              2.981             36.130
 Rotational               0.889              2.981             16.206
 Vibrational             14.839              1.640              0.687
 Vibration     1          0.878              1.198              0.602

 Optimization completed.
    -- Stationary point found.
 Normal termination of Gaussian 09 at Thu Mar  7 12:40:14 2019.
