 Gaussian 09, Revision E.01,
 Gaussian 09:  EM64L-G09RevE.01 30-Nov-2015

 ------------------------------------------------------
 #p b3lyp/6-311++G(3df,2p) freq IOp(2/17=3) IOp(2/18=3)
 ------------------------------------------------------

 ---------
 b3lyp opt
 ---------
 Symbolic Z-matrix:
 Charge = -1 Multiplicity = 2

                         Standard orientation:
 ---------------------------------------------------------------------
 Center     Atomic      Atomic             Coordinates (Angstroms)
 Number     Number       Type             X           Y           Z
 ---------------------------------------------------------------------
      1          6           0        0.010385   -0.824252   -0.000000
      2          1           0       -1.087153   -1.038502   -0.000000
      3          1           0        0.941761    0.853913    0.000000
      4          8           0        0.010385    0.641263    0.000000
 ---------------------------------------------------------------------

 SCF Done:  E(UB3LYP) =  -114.455724859     A.U. after   16 cycles

 The electronic state is 2-A".
 Alpha  occ. eigenvalues --  -18.91589  -9.94555  -0.79578  -0.38864  -0.22213
 Alpha  occ. eigenvalues --   -0.17540  -0.14055   0.01628   0.08430
 Alpha virt. eigenvalues --    0.13870   0.15360   0.21463   0.22991   0.24042
 Alpha virt. eigenvalues --    0.27204   0.31800   0.34383   0.36216   0.36662
 Alpha virt. eigenvalues --    0.40229   0.43665   0.50509   0.53396   0.59660

  Beta  occ. eigenvalues --  -18.91196  -9.93423  -0.78701  -0.36875  -0.21175
  Beta  occ. eigenvalues --   -0.16808  -0.11192   0.03370
  Beta virt. eigenvalues --    0.13879   0.15340   0.18663   0.21520   0.24131
  Beta virt. eigenvalues --    0.27287   0.27880   0.31884   0.34727   0.36543
  Beta virt. eigenvalues --    0.36884   0.40259   0.44454   0.50953   0.54888

 Mulliken charges and spin densities:
               1          2
     1  C   -0.826260   1.031130
     2  H    0.076232  -0.033270
     3  H    0.189619  -0.013157
     4  O   -0.439590   0.015296
 Sum of Mulliken charges =  -1.00000   1.00000

 Dipole moment (field-independent basis, Debye):
    X=             -0.1377    Y=              3.9639    Z=              0.0000  Tot=              3.9662
 Quadrupole moment (field-independent basis, Debye-Ang):
   XX=            -17.4122   YY=            -23.8527   ZZ=            -20.6542
   XY=              3.8869   XZ=              0.0000   YZ=             -0.0000

  Exact polarizability:  49.422   0.854  45.798   0.000  -0.000  83.688
 Approx polarizability:  55.163   2.647  51.126  -0.000   0.000  62.345

                      1                      2                      3
                     A"                     A'                     A'
 Frequencies --    563.1436               833.5661              1061.0691
 Red. masses --      1.0744                12.4912                 1.0760
 Frc consts  --      0.2008                 5.1137                 0.7138
 IR Inten    --     88.0196               201.9456                92.7071

                      4                      5                      6
                     A'                     A'                     A'
 Frequencies --   1365.1414              2722.3532              3893.2718
 Red. masses --      1.1667                 1.0834                 1.0665
 Frc consts  --      1.2810                 4.7306                 9.5242
 IR Inten    --     30.4952               632.5032                78.5936

 - Thermochemistry -
 -------------------
 Temperature   298.150 Kelvin.  Pressure   1.00000 Atm.
 Atom     1 has atomic number  6 and mass  12.00000

 Molecular mass:    30.01056 amu.
 Principal axes and moments of inertia in atomic units:
                           1         2         3
     Eigenvalues --     6.53045  60.02758  66.55803
           X            0.13139   0.99133   0.00000
           Y            0.99133  -0.13139   0.00000
           Z           -0.00000  -0.00000   1.00000
 This molecule is an asymmetric top.
 Rotational symmetry number  1.
 Rotational temperatures (Kelvin)     13.26307     1.44290     1.30133
 Rotational constants (GHZ):         276.35784    30.06520    27.11531
 Zero-point vibrational energy      62436.4 (Joules/Mol)
                                   14.92265 (Kcal/Mol)
 Warning -- explicit consideration of   1 degrees of freedom as
           vibrations may cause significant error
 Vibrational temperatures:    810.24  1199.31  1526.64  1964.13  3916.85
          (Kelvin)           5601.54

 Zero-point correction=                           0.023781 (Hartree/Particle)
 Thermal correction to Energy=                    0.026902
 Thermal correction to Enthalpy=                  0.027846
 Thermal correction to Gibbs Free Energy=         0.001140
 Sum of electronic and zero-point Energies=           -114.431944
 Sum of electronic and thermal Energies=              -114.428823
 Sum of electronic and thermal Enthalpies=            -114.427879
 Sum of electronic and thermal Free Energies=         -114.454585

                     E (Thermal)             CV                S
                      KCal/Mol        Cal/Mol-Kelvin    Cal/Mol-Kelvin
 Total                   16.881              8.104             56.208
 Electronic               0.000              0.000              1.377
 Translational            0.889              2.981             36.130
 Rotational               0.889              2.981             17.907
 Vibrational             15.104              2.143              0.793
 Vibration     1          0.919              1.111              0.518

 Optimization completed.
    -- Stationary point found.
 Normal termination of Gaussian 09 at Thu Mar  7 13:25:59 2019.
