 Gaussian 09, Revision E.01,
 Gaussian 09:  EM64L-G09RevE.01 30-Nov-2015

 ------------------------------------------------------
 #p b3lyp/6-311++G(3df,2p) freq IOp(2/17=3) IOp(2/18=3)
 ------------------------------------------------------

 ---------
 b3lyp opt
 ---------
 Symbolic Z-matrix:
 Charge = -1 Multiplicity = 2

                         Standard orientation:
 ---------------------------------------------------------------------
 Center     Atomic      Atomic             Coordinates (Angstroms)
 Number     Number       Type             X           Y           Z
 ---------------------------------------------------------------------
      1          6           0        0.060078   -1.086610   -0.000000
      2          1           0       -0.420584    0.949670   -0.786695
      3          1           0       -0.420584    0.949670    0.786695
      4          8           0        0.060078    0.577545    0.000000
 ---------------------------------------------------------------------

 SCF Done:  E(UB3LYP) =  -114.337991288     A.U. after   21 cycles

 The electronic state is 2-A".
 Alpha  occ. eigenvalues --  -19.04136 -10.04189  -0.91587  -0.43767  -0.41924
 Alpha  occ. eigenvalues --   -0.27392  -0.19642  -0.03234  -0.02127
 Alpha virt. eigenvalues --    0.11100   0.14799   0.16606   0.19836   0.20819
 Alpha virt. eigenvalues --    0.22149   0.25452   0.27950   0.28768   0.31740
 Alpha virt. eigenvalues --    0.34821   0.35395   0.43199   0.52078   0.52683

  Beta  occ. eigenvalues --  -19.04288 -10.01572  -0.91805  -0.41858  -0.39830
  Beta  occ. eigenvalues --   -0.25700  -0.15005   0.05552
  Beta virt. eigenvalues --    0.11761   0.13271   0.13376   0.17374   0.20337
  Beta virt. eigenvalues --    0.22727   0.24630   0.25659   0.27534   0.28622
  Beta virt. eigenvalues --    0.31369   0.34598   0.34727   0.43043   0.54664

 Mulliken charges and spin densities:
               1          2
     1  C    0.041572   2.443492
     2  H   -0.539962  -0.869127
     3  H   -0.539962  -0.869127
     4  O    0.038353   0.294762
 Sum of Mulliken charges =  -1.00000   1.00000

 Dipole moment (field-independent basis, Debye):
    X=              1.6138    Y=             -2.0520    Z=             -0.0000  Tot=              2.6106
 Quadrupole moment (field-independent basis, Debye-Ang):
   XX=            -27.1462   YY=            -37.1673   ZZ=            -26.9969
   XY=              3.8021   XZ=              0.0000   YZ=             -0.0000

  Exact polarizability:  67.977 -11.471 101.469  -0.000   0.000 374.801
 Approx polarizability:  67.839  -7.718  93.324  -0.000   0.000 343.000

                      1                      2                      3
                     A'                     A'                     A"
 Frequencies --    423.4652               629.0450               692.2830
 Red. masses --     10.3168                 1.1922                 1.1082
 Frc consts  --      1.0900                 0.2779                 0.3129
 IR Inten    --     71.6473               273.0616                36.0094

                      4                      5                      6
                     A'                     A"                     A'
 Frequencies --   1465.2647              3048.5256              3182.1647
 Red. masses --      1.0785                 1.0902                 1.0437
 Frc consts  --      1.3643                 5.9697                 6.2271
 IR Inten    --    100.5653              4042.7961              1375.7793

 - Thermochemistry -
 -------------------
 Temperature   298.150 Kelvin.  Pressure   1.00000 Atm.
 Atom     1 has atomic number  6 and mass  12.00000

 Molecular mass:    30.01056 amu.
 Principal axes and moments of inertia in atomic units:
                           1         2         3
     Eigenvalues --     5.84097  77.26875  80.33732
           X           -0.04708  -0.00000   0.99889
           Y            0.99889  -0.00000   0.04708
           Z            0.00000   1.00000   0.00000
 This molecule is an asymmetric top.
 Rotational symmetry number  1.
 Rotational temperatures (Kelvin)     14.82867     1.12094     1.07813
 Rotational constants (GHZ):         308.97969    23.35668    22.46454
 Zero-point vibrational energy      56468.2 (Joules/Mol)
                                   13.49623 (Kcal/Mol)
 Warning -- explicit consideration of   1 degrees of freedom as
           vibrations may cause significant error
 Vibrational temperatures:    609.27   905.05   996.04  2108.19  4386.14
          (Kelvin)           4578.42

 Zero-point correction=                           0.021508 (Hartree/Particle)
 Thermal correction to Energy=                    0.024894
 Thermal correction to Enthalpy=                  0.025838
 Thermal correction to Gibbs Free Energy=        -0.001413
 Sum of electronic and zero-point Energies=           -114.316484
 Sum of electronic and thermal Energies=              -114.313098
 Sum of electronic and thermal Enthalpies=            -114.312154
 Sum of electronic and thermal Free Energies=         -114.339404

                     E (Thermal)             CV                S
                      KCal/Mol        Cal/Mol-Kelvin    Cal/Mol-Kelvin
 Total                   15.621              9.281             57.354
 Electronic               0.000              0.000              1.377
 Translational            0.889              2.981             36.130
 Rotational               0.889              2.981             18.234
 Vibrational             13.843              3.319              1.612
 Vibration     1          0.786              1.419              0.880

 Optimization completed.
    -- Stationary point found.
 Normal termination of Gaussian 09 at Thu Mar  7 13:23:47 2019.
