 Gaussian 09, Revision E.01,
 Gaussian 09:  EM64L-G09RevE.01 30-Nov-2015

 ------------------------------------------------------
 #p b3lyp/6-311++G(3df,2p) freq IOp(2/17=3) IOp(2/18=3)
 ------------------------------------------------------

 ---------
 b3lyp opt
 ---------
 Symbolic Z-matrix:
 Charge = -1 Multiplicity = 4

                         Standard orientation:
 ---------------------------------------------------------------------
 Center     Atomic      Atomic             Coordinates (Angstroms)
 Number     Number       Type             X           Y           Z
 ---------------------------------------------------------------------
      1          6           0       -0.059631   -1.094301   -0.000000
      2          1           0        0.417415    0.959144    0.786806
      3          1           0        0.417415    0.959144   -0.786806
      4          8           0       -0.059631    0.580939    0.000000
 ---------------------------------------------------------------------

 SCF Done:  E(UB3LYP) =  -114.338907442     A.U. after   14 cycles

 The electronic state is 4-A".
 Alpha  occ. eigenvalues --  -19.04079 -10.04031  -0.91776  -0.43664  -0.41916
 Alpha  occ. eigenvalues --   -0.27353  -0.19888  -0.03112  -0.02036   0.05503
 Alpha virt. eigenvalues --    0.12432   0.16350   0.19637   0.20190   0.22138
 Alpha virt. eigenvalues --    0.24826   0.26696   0.27379   0.31136   0.34349
 Alpha virt. eigenvalues --    0.34462   0.42853   0.51931   0.52600   0.58117

  Beta  occ. eigenvalues --  -19.03696 -10.01293  -0.90743  -0.41111  -0.38964
  Beta  occ. eigenvalues --   -0.25026  -0.14455
  Beta virt. eigenvalues --    0.11248   0.12423   0.13305   0.15389   0.17614
  Beta virt. eigenvalues --    0.21195   0.23113   0.24700   0.26645   0.29153
  Beta virt. eigenvalues --    0.29310   0.32014   0.35209   0.35765   0.43596

 Mulliken charges and spin densities:
               1          2
     1  C    0.007818   1.654965
     2  H   -0.522995   0.857945
     3  H   -0.522995   0.857945
     4  O    0.038173  -0.370855
 Sum of Mulliken charges =  -1.00000   3.00000

 Dipole moment (field-independent basis, Debye):
    X=             -1.5374    Y=             -1.9099    Z=             -0.0000  Tot=              2.4518
 Quadrupole moment (field-independent basis, Debye-Ang):
   XX=            -26.9007   YY=            -36.7899   ZZ=            -26.7182
   XY=             -3.6084   XZ=             -0.0000   YZ=              0.0000

  Exact polarizability:  64.843  14.397 107.108   0.000  -0.000 354.586
 Approx polarizability:  66.601  10.427 100.779   0.000   0.000 325.813

                      1                      2                      3
                     A'                     A'                     A"
 Frequencies --    375.8695               610.6820               717.9368
 Red. masses --     10.6636                 1.1868                 1.1104
 Frc consts  --      0.8876                 0.2608                 0.3372
 IR Inten    --     40.4076               213.5807               122.7512

                      4                      5                      6
                     A'                     A"                     A'
 Frequencies --   1461.9281              3089.0372              3188.3950
 Red. masses --      1.0794                 1.0883                 1.0437
 Frc consts  --      1.3592                 6.1184                 6.2513
 IR Inten    --    100.5389              5593.9384              1333.2679

 - Thermochemistry -
 -------------------
 Temperature   298.150 Kelvin.  Pressure   1.00000 Atm.
 Atom     1 has atomic number  6 and mass  12.00000

 Molecular mass:    30.01056 amu.
 Principal axes and moments of inertia in atomic units:
                           1         2         3
     Eigenvalues --     5.82058  78.31054  81.40203
           X            0.04651  -0.00000   0.99892
           Y            0.99892  -0.00000  -0.04651
           Z            0.00000   1.00000   0.00000
 This molecule is an asymmetric top.
 Rotational symmetry number  1.
 Rotational temperatures (Kelvin)     14.88062     1.10603     1.06403
 Rotational constants (GHZ):         310.06210    23.04595    22.17071
 Zero-point vibrational energy      56486.8 (Joules/Mol)
                                   13.50066 (Kcal/Mol)
 Warning -- explicit consideration of   2 degrees of freedom as
           vibrations may cause significant error
 Vibrational temperatures:    540.79   878.63  1032.95  2103.39  4444.43
          (Kelvin)           4587.38

 Zero-point correction=                           0.021515 (Hartree/Particle)
 Thermal correction to Energy=                    0.024946
 Thermal correction to Enthalpy=                  0.025891
 Thermal correction to Gibbs Free Energy=        -0.002108
 Sum of electronic and zero-point Energies=           -114.317393
 Sum of electronic and thermal Energies=              -114.313961
 Sum of electronic and thermal Enthalpies=            -114.313017
 Sum of electronic and thermal Free Energies=         -114.341016

                     E (Thermal)             CV                S
                      KCal/Mol        Cal/Mol-Kelvin    Cal/Mol-Kelvin
 Total                   15.654              9.373             58.929
 Electronic               0.000              0.000              2.755
 Translational            0.889              2.981             36.130
 Rotational               0.889              2.981             18.257
 Vibrational             13.877              3.412              1.787
 Vibration     1          0.747              1.522              1.056
 Vibration     2          0.970              1.009              0.432

 Optimization completed.
    -- Stationary point found.
 Normal termination of Gaussian 09 at Thu Mar  7 21:10:54 2019.
