 Gaussian 09, Revision E.01,
 Gaussian 09:  EM64L-G09RevE.01 30-Nov-2015

 ------------------------------------------------------
 #p b3lyp/6-311++G(3df,2p) freq IOp(2/17=3) IOp(2/18=3)
 ------------------------------------------------------

 ---------
 b3lyp opt
 ---------
 Symbolic Z-matrix:
 Charge = -1 Multiplicity = 2

                         Standard orientation:
 ---------------------------------------------------------------------
 Center     Atomic      Atomic             Coordinates (Angstroms)
 Number     Number       Type             X           Y           Z
 ---------------------------------------------------------------------
      1          6           0       -0.010377   -0.823569   -0.000000
      2          1           0        1.087031   -1.039120   -0.000000
      3          1           0       -0.941749    0.854050    0.000000
      4          8           0       -0.010377    0.640810    0.000000
 ---------------------------------------------------------------------

 SCF Done:  E(UB3LYP) =  -114.455725081     A.U. after   16 cycles

 The electronic state is 2-A".
 Alpha  occ. eigenvalues --  -18.91605  -9.94552  -0.79612  -0.38881  -0.22221
 Alpha  occ. eigenvalues --   -0.17567  -0.14082   0.01643   0.08443
 Alpha virt. eigenvalues --    0.13866   0.15358   0.21463   0.22989   0.24040
 Alpha virt. eigenvalues --    0.27203   0.31792   0.34383   0.36215   0.36658
 Alpha virt. eigenvalues --    0.40229   0.43695   0.50523   0.53394   0.59657

  Beta  occ. eigenvalues --  -18.91211  -9.93420  -0.78733  -0.36897  -0.21182
  Beta  occ. eigenvalues --   -0.16833  -0.11216   0.03385
  Beta virt. eigenvalues --    0.13875   0.15339   0.18667   0.21519   0.24129
  Beta virt. eigenvalues --    0.27288   0.27879   0.31877   0.34727   0.36542
  Beta virt. eigenvalues --    0.36880   0.40257   0.44481   0.50972   0.54885

 Mulliken charges and spin densities:
               1          2
     1  C   -0.827530   1.031218
     2  H    0.076191  -0.033273
     3  H    0.189707  -0.013210
     4  O   -0.438367   0.015265
 Sum of Mulliken charges =  -1.00000   1.00000

 Dipole moment (field-independent basis, Debye):
    X=              0.1384    Y=              3.9702    Z=              0.0000  Tot=              3.9726
 Quadrupole moment (field-independent basis, Debye-Ang):
   XX=            -17.4196   YY=            -23.8516   ZZ=            -20.6633
   XY=             -3.8897   XZ=             -0.0000   YZ=             -0.0000

  Exact polarizability:  49.502  -0.874  45.811  -0.000  -0.000  84.097
 Approx polarizability:  55.225  -2.662  51.116   0.000   0.000  62.480

                      1                      2                      3
                     A"                     A'                     A'
 Frequencies --    564.8662               836.6521              1062.2650
 Red. masses --      1.0744                12.4764                 1.0761
 Frc consts  --      0.2020                 5.1455                 0.7154
 IR Inten    --     87.9864               202.3693                92.5652

                      4                      5                      6
                     A'                     A'                     A'
 Frequencies --   1365.6721              2721.0926              3891.3359
 Red. masses --      1.1671                 1.0834                 1.0665
 Frc consts  --      1.2825                 4.7262                 9.5147
 IR Inten    --     30.6429               634.1477                79.2882

 - Thermochemistry -
 -------------------
 Temperature   298.150 Kelvin.  Pressure   1.00000 Atm.
 Atom     1 has atomic number  6 and mass  12.00000

 Molecular mass:    30.01056 amu.
 Principal axes and moments of inertia in atomic units:
                           1         2         3
     Eigenvalues --     6.52748  59.95357  66.48105
           X           -0.13161   0.99130   0.00000
           Y            0.99130   0.13161   0.00000
           Z           -0.00000  -0.00000   1.00000
 This molecule is an asymmetric top.
 Rotational symmetry number  1.
 Rotational temperatures (Kelvin)     13.26910     1.44468     1.30283
 Rotational constants (GHZ):         276.48360    30.10231    27.14670
 Zero-point vibrational energy      62456.3 (Joules/Mol)
                                   14.92742 (Kcal/Mol)
 Warning -- explicit consideration of   1 degrees of freedom as
           vibrations may cause significant error
 Vibrational temperatures:    812.72  1203.75  1528.36  1964.90  3915.04
          (Kelvin)           5598.76

 Zero-point correction=                           0.023788 (Hartree/Particle)
 Thermal correction to Energy=                    0.026907
 Thermal correction to Enthalpy=                  0.027851
 Thermal correction to Gibbs Free Energy=         0.001149
 Sum of electronic and zero-point Energies=           -114.431937
 Sum of electronic and thermal Energies=              -114.428818
 Sum of electronic and thermal Enthalpies=            -114.427874
 Sum of electronic and thermal Free Energies=         -114.454576

                     E (Thermal)             CV                S
                      KCal/Mol        Cal/Mol-Kelvin    Cal/Mol-Kelvin
 Total                   16.885              8.095             56.199
 Electronic               0.000              0.000              1.377
 Translational            0.889              2.981             36.130
 Rotational               0.889              2.981             17.904
 Vibrational             15.107              2.133              0.787
 Vibration     1          0.921              1.107              0.514

 Optimization completed.
    -- Stationary point found.
 Normal termination of Gaussian 09 at Thu Mar  7 13:23:54 2019.
