 Gaussian 09, Revision E.01,
 Gaussian 09:  EM64L-G09RevE.01 30-Nov-2015

 ------------------------------------------------------
 #p b3lyp/6-311++G(3df,2p) freq IOp(2/17=3) IOp(2/18=3)
 ------------------------------------------------------

 ---------
 b3lyp opt
 ---------
 Symbolic Z-matrix:
 Charge = -1 Multiplicity = 4

                         Standard orientation:
 ---------------------------------------------------------------------
 Center     Atomic      Atomic             Coordinates (Angstroms)
 Number     Number       Type             X           Y           Z
 ---------------------------------------------------------------------
      1          6           0       -0.713915   -0.069054   -0.147558
      2          1           0       -1.446047    0.427740    0.493168
      3          1           0        1.064226    0.687151   -0.306873
      4          8           0        0.583164   -0.087571    0.087382
 ---------------------------------------------------------------------

 SCF Done:  E(UB3LYP) =  -114.404100750     A.U. after   16 cycles

 The electronic state is 4-A.
 Alpha  occ. eigenvalues --  -19.02357 -10.08067  -0.92828  -0.51429  -0.38189
 Alpha  occ. eigenvalues --   -0.30175  -0.25983  -0.08559  -0.04924   0.07074
 Alpha virt. eigenvalues --    0.10588   0.17040   0.17380   0.19209   0.22425
 Alpha virt. eigenvalues --    0.26393   0.29299   0.31745   0.33785   0.37227
 Alpha virt. eigenvalues --    0.38974   0.45057   0.45726   0.51548   0.55545

  Beta  occ. eigenvalues --  -19.01430 -10.05426  -0.90569  -0.46903  -0.34618
  Beta  occ. eigenvalues --   -0.26683  -0.21208
  Beta virt. eigenvalues --    0.06984   0.10870   0.11689   0.13598   0.18256
  Beta virt. eigenvalues --    0.19199   0.21574   0.23671   0.28851   0.31114
  Beta virt. eigenvalues --    0.32105   0.34392   0.38220   0.40229   0.47447

 Mulliken charges and spin densities:
               1          2
     1  C    1.414830   0.231294
     2  H   -0.997142   1.228838
     3  H   -1.107729   1.458340
     4  O   -0.309959   0.081528
 Sum of Mulliken charges =  -1.00000   3.00000

 Dipole moment (field-independent basis, Debye):
    X=             -1.8619    Y=             -4.0779    Z=              0.5463  Tot=              4.5160
 Quadrupole moment (field-independent basis, Debye-Ang):
   XX=            -39.8690   YY=            -32.3613   ZZ=            -29.0936
   XY=             -2.8942   XZ=              4.0386   YZ=             -0.0432

  Exact polarizability: 959.308  21.556 123.634-301.821 -10.240 247.315
 Approx polarizability: 929.586  33.228 109.947-302.301 -12.576 231.242

                      1                      2                      3
                      A                      A                      A
 Frequencies --    452.5759              1077.1395              1102.6051
 Red. masses --      1.1297                 1.2441                 1.2858
 Frc consts  --      0.1363                 0.8505                 0.9210
 IR Inten    --    763.5834               438.8221               779.3116

                      4                      5                      6
                      A                      A                      A
 Frequencies --   1315.7098              3008.7549              3111.9317
 Red. masses --      4.9108                 1.0821                 1.0662
 Frc consts  --      5.0087                 5.7716                 6.0834
 IR Inten    --    262.1758               863.4163              6723.6781

 - Thermochemistry -
 -------------------
 Temperature   298.150 Kelvin.  Pressure   1.00000 Atm.
 Atom     1 has atomic number  6 and mass  12.00000

 Molecular mass:    30.01056 amu.
 Principal axes and moments of inertia in atomic units:
                           1         2         3
     Eigenvalues --     5.16206  55.43282  55.97535
           X            0.99732   0.00681  -0.07285
           Y           -0.00696   0.99997  -0.00179
           Z            0.07284   0.00230   0.99734
 This molecule is an asymmetric top.
 Rotational symmetry number  1.
 Rotational temperatures (Kelvin)     16.77894     1.56250     1.54736
 Rotational constants (GHZ):         349.61674    32.55727    32.24171
 Zero-point vibrational energy      60224.3 (Joules/Mol)
                                   14.39395 (Kcal/Mol)
 Warning -- explicit consideration of   1 degrees of freedom as
           vibrations may cause significant error
 Vibrational temperatures:    651.15  1549.76  1586.40  1893.01  4328.92
          (Kelvin)           4477.37

 Zero-point correction=                           0.022938 (Hartree/Particle)
 Thermal correction to Energy=                    0.026095
 Thermal correction to Enthalpy=                  0.027039
 Thermal correction to Gibbs Free Energy=        -0.000163
 Sum of electronic and zero-point Energies=           -114.381163
 Sum of electronic and thermal Energies=              -114.378006
 Sum of electronic and thermal Enthalpies=            -114.377062
 Sum of electronic and thermal Free Energies=         -114.404264

                     E (Thermal)             CV                S
                      KCal/Mol        Cal/Mol-Kelvin    Cal/Mol-Kelvin
 Total                   16.375              8.036             57.251
 Electronic               0.000              0.000              2.755
 Translational            0.889              2.981             36.130
 Rotational               0.889              2.981             17.422
 Vibrational             14.597              2.074              0.944
 Vibration     1          0.811              1.355              0.788

 Optimization completed.
    -- Stationary point found.
 Normal termination of Gaussian 09 at Thu Mar  7 13:30:42 2019.
