 Gaussian 09, Revision E.01,
 Gaussian 09:  EM64L-G09RevE.01 30-Nov-2015

 ------------------------------------------------------
 #p b3lyp/6-311++G(3df,2p) freq IOp(2/17=3) IOp(2/18=3)
 ------------------------------------------------------

 ---------
 b3lyp opt
 ---------
 Symbolic Z-matrix:
 Charge = -1 Multiplicity = 2

                         Standard orientation:
 ---------------------------------------------------------------------
 Center     Atomic      Atomic             Coordinates (Angstroms)
 Number     Number       Type             X           Y           Z
 ---------------------------------------------------------------------
      1          1           0       -0.000000    0.761500   -0.487531
      2          1           0       -0.000000   -0.761500   -0.487531
      3          8           0        0.000000   -0.000000    0.121886
 ---------------------------------------------------------------------

 SCF Done:  E(UB3LYP) =  -76.4367578061     A.U. after   11 cycles

 The electronic state is 2-A1.
 Alpha  occ. eigenvalues --  -18.93232  -0.81430  -0.32866  -0.20551  -0.12429
 Alpha  occ. eigenvalues --    0.08061
 Alpha virt. eigenvalues --    0.13669   0.28778   0.29682   0.30690   0.30918
 Alpha virt. eigenvalues --    0.36289   0.38275   0.65595   0.70492   0.78585
 Alpha virt. eigenvalues --    0.82362   0.86716   1.06391   1.07179   1.16967

  Beta  occ. eigenvalues --  -18.93049  -0.80941  -0.32624  -0.20262  -0.12240
  Beta virt. eigenvalues --    0.12948   0.15967   0.29993   0.30658   0.31346
  Beta virt. eigenvalues --    0.32082   0.36851   0.39066   0.66534   0.71468
  Beta virt. eigenvalues --    0.78969   0.82671   0.86953   1.06848   1.07710

 Mulliken charges and spin densities:
               1          2
     1  H   -0.499375   0.762495
     2  H   -0.499375   0.762495
     3  O   -0.001250  -0.524989
 Sum of Mulliken charges =  -1.00000   1.00000

 Dipole moment (field-independent basis, Debye):
    X=              0.0000    Y=             -0.0000    Z=              1.9031  Tot=              1.9031
 Quadrupole moment (field-independent basis, Debye-Ang):
   XX=            -20.2265   YY=            -20.8265   ZZ=            -21.7471
   XY=             -0.0000   XZ=             -0.0000   YZ=              0.0000

  Exact polarizability:  43.046  -0.000 559.721  -0.000  -0.000  45.808
 Approx polarizability:  43.110   0.000 428.049   0.000   0.000  46.114

                      1                      2                      3
                     A1                     A1                     B2
 Frequencies --   1557.4906              3547.2367              3576.9800
 Red. masses --      1.0804                 1.0473                 1.0800
 Frc consts  --      1.5441                 7.7646                 8.1417
 IR Inten    --    337.1022                 0.9955              3837.7542

 - Thermochemistry -
 -------------------
 Temperature   298.150 Kelvin.  Pressure   1.00000 Atm.
 Atom     1 has atomic number  1 and mass   1.00783

 Molecular mass:    18.01056 amu.
 Principal axes and moments of inertia in atomic units:
                           1         2         3
     Eigenvalues --     2.37409   4.17400   6.54808
           X            0.00000   0.00000   1.00000
           Y            1.00000  -0.00000  -0.00000
           Z            0.00000   1.00000  -0.00000
 This molecule is an asymmetric top.
 Rotational symmetry number  2.
 Rotational temperatures (Kelvin)     36.48301    20.75081    13.22735
 Rotational constants (GHZ):         760.18347   432.37721   275.61366
 Zero-point vibrational energy      51928.1 (Joules/Mol)
                                   12.41112 (Kcal/Mol)
 Vibrational temperatures:   2240.88  5103.68  5146.47
          (Kelvin)

 Zero-point correction=                           0.019778 (Hartree/Particle)
 Thermal correction to Energy=                    0.022615
 Thermal correction to Enthalpy=                  0.023559
 Thermal correction to Gibbs Free Energy=         0.001434
 Sum of electronic and zero-point Energies=            -76.416979
 Sum of electronic and thermal Energies=               -76.414143
 Sum of electronic and thermal Enthalpies=             -76.413199
 Sum of electronic and thermal Free Energies=          -76.435324

                     E (Thermal)             CV                S
                      KCal/Mol        Cal/Mol-Kelvin    Cal/Mol-Kelvin
 Total                   14.191              6.023             46.566
 Electronic               0.000              0.000              1.377
 Translational            0.889              2.981             34.608
 Rotational               0.889              2.981             10.571
 Vibrational             12.414              0.061              0.009

 Optimization completed.
    -- Stationary point found.
 Normal termination of Gaussian 09 at Thu Mar  7 13:29:19 2019.
