 Gaussian 09, Revision E.01,
 Gaussian 09:  EM64L-G09RevE.01 30-Nov-2015

 ------------------------------------------------------
 #p b3lyp/6-311++G(3df,2p) freq IOp(2/17=3) IOp(2/18=3)
 ------------------------------------------------------

 ---------
 b3lyp opt
 ---------
 Symbolic Z-matrix:
 Charge = -1 Multiplicity = 3

                         Standard orientation:
 ---------------------------------------------------------------------
 Center     Atomic      Atomic             Coordinates (Angstroms)
 Number     Number       Type             X           Y           Z
 ---------------------------------------------------------------------
      1          6           0        1.246218   -0.377324   -0.018011
      2          6           0       -1.112519   -0.195379   -0.031837
      3          1           0       -1.055342   -1.270763    0.099235
      4          1           0        2.007936    0.397783    0.243994
      5          8           0        0.030978    0.492173   -0.033896
      6          1           0       -2.002614    0.371812    0.227025
 ---------------------------------------------------------------------

 SCF Done:  E(UB3LYP) =  -153.117514206     A.U. after   19 cycles

 The electronic state is 3-A.
 Alpha  occ. eigenvalues --  -18.95779 -10.02936  -9.96826  -0.85599  -0.49539
 Alpha  occ. eigenvalues --   -0.38658  -0.29171  -0.22934  -0.22414  -0.16091
 Alpha  occ. eigenvalues --   -0.01459  -0.00225   0.06168
 Alpha virt. eigenvalues --    0.11851   0.14271   0.15059   0.19311   0.20221
 Alpha virt. eigenvalues --    0.21543   0.23488   0.24291   0.26013   0.27543
 Alpha virt. eigenvalues --    0.27917   0.30674   0.34269   0.35344   0.36654

  Beta  occ. eigenvalues --  -18.94946 -10.01817  -9.95610  -0.83732  -0.46782
  Beta  occ. eigenvalues --   -0.36149  -0.28291  -0.21283  -0.16753  -0.15255
  Beta  occ. eigenvalues --    0.00821
  Beta virt. eigenvalues --    0.11842   0.12654   0.14245   0.14997   0.16827
  Beta virt. eigenvalues --    0.19326   0.21593   0.23419   0.24847   0.26489
  Beta virt. eigenvalues --    0.27044   0.27737   0.28615   0.31273   0.34848

 Mulliken charges and spin densities:
               1          2
     1  C   -0.730885   1.059721
     2  C   -0.163096   0.947984
     3  H    0.048130  -0.046670
     4  H    0.087621  -0.030614
     5  O   -0.327148   0.078549
     6  H    0.085379  -0.008970
 Sum of Mulliken charges =  -1.00000   2.00000

 Dipole moment (field-independent basis, Debye):
    X=             -3.4044    Y=              2.2922    Z=              0.5020  Tot=              4.1348
 Quadrupole moment (field-independent basis, Debye-Ang):
   XX=            -31.0440   YY=            -27.9616   ZZ=            -27.8391
   XY=              3.4138   XZ=              0.1562   YZ=             -0.0833

  Exact polarizability:  86.906  -1.349  58.857 -15.691   1.702 100.510
 Approx polarizability:  90.564   3.095  69.828  -8.379   0.340  88.244

                      1                      2                      3
                      A                      A                      A
 Frequencies --     97.4837               285.5490               454.4522
 Red. masses --      1.1582                 1.2134                 2.5598
 Frc consts  --      0.0065                 0.0583                 0.3115
 IR Inten    --     37.2772                13.4673                 5.8205

                      4                      5                      6
                      A                      A                      A
 Frequencies --    466.6119               716.0172              1157.9256
 Red. masses --      1.4549                 7.5445                 1.4305
 Frc consts  --      0.1866                 2.2789                 1.1300
 IR Inten    --     45.7784               103.2699                30.9057

                      7                      8                      9
                      A                      A                      A
 Frequencies --   1191.9874              1329.7342              1440.7834
 Red. masses --      1.9634                 1.5794                 1.2489
 Frc consts  --      1.6437                 1.6454                 1.5274
 IR Inten    --     86.7450                99.3256                22.2233

                     10                     11                     12
                      A                      A                      A
 Frequencies --   2745.9432              3048.9791              3179.9155
 Red. masses --      1.0834                 1.0432                 1.1214
 Frc consts  --      4.8132                 5.7139                 6.6807
 IR Inten    --    492.4512               211.6665                45.9057

 - Thermochemistry -
 -------------------
 Temperature   298.150 Kelvin.  Pressure   1.00000 Atm.
 Atom     1 has atomic number  6 and mass  12.00000

 Molecular mass:    43.01839 amu.
 Principal axes and moments of inertia in atomic units:
                           1         2         3
     Eigenvalues --    28.76251 153.23981 180.94218
           X            0.99919   0.04010  -0.00175
           Y           -0.04009   0.99918   0.00587
           Z            0.00198  -0.00580   0.99998
 This molecule is an asymmetric top.
 Rotational symmetry number  1.
 Rotational temperatures (Kelvin)      3.01134     0.56522     0.47868
 Rotational constants (GHZ):          62.74630    11.77724     9.97413
 Zero-point vibrational energy      96391.4 (Joules/Mol)
                                   23.03810 (Kcal/Mol)
 Warning -- explicit consideration of   4 degrees of freedom as
           vibrations may cause significant error
 Vibrational temperatures:    140.26   410.84   653.85   671.35  1030.19
          (Kelvin)           1665.99  1715.00  1913.19  2072.96  3950.79
                             4386.80  4575.18

 Zero-point correction=                           0.036714 (Hartree/Particle)
 Thermal correction to Energy=                    0.041394
 Thermal correction to Enthalpy=                  0.042338
 Thermal correction to Gibbs Free Energy=         0.010198
 Sum of electronic and zero-point Energies=           -153.080801
 Sum of electronic and thermal Energies=              -153.076120
 Sum of electronic and thermal Enthalpies=            -153.075176
 Sum of electronic and thermal Free Energies=         -153.107316

                     E (Thermal)             CV                S
                      KCal/Mol        Cal/Mol-Kelvin    Cal/Mol-Kelvin
 Total                   25.975             13.758             67.645
 Electronic               0.000              0.000              2.183
 Translational            0.889              2.981             37.204
 Rotational               0.889              2.981             21.305
 Vibrational             24.198              7.797              6.953
 Vibration     1          0.603              1.951              3.504
 Vibration     2          0.683              1.701              1.500
 Vibration     3          0.813              1.351              0.782
 Vibration     4          0.824              1.324              0.747

 Normal termination of Gaussian 09 at Thu Mar  7 08:26:07 2019.
