 Gaussian 09, Revision E.01,
 Gaussian 09:  EM64L-G09RevE.01 30-Nov-2015

 ------------------------------------------------------
 #p b3lyp/6-311++G(3df,2p) freq IOp(2/17=3) IOp(2/18=3)
 ------------------------------------------------------

 ---------
 b3lyp opt
 ---------
 Symbolic Z-matrix:
 Charge = -1 Multiplicity = 1

                         Standard orientation:
 ---------------------------------------------------------------------
 Center     Atomic      Atomic             Coordinates (Angstroms)
 Number     Number       Type             X           Y           Z
 ---------------------------------------------------------------------
      1          6           0        1.199038    0.348219    0.023495
      2          6           0       -1.193595    0.121523   -0.127450
      3          1           0       -1.233210    1.153703    0.235951
      4          1           0        2.020187   -0.421960    0.021016
      5          8           0        0.125869   -0.374171   -0.010456
      6          1           0       -1.826582   -0.556832    0.450416
 ---------------------------------------------------------------------

 SCF Done:  E(RB3LYP) =  -153.148829916     A.U. after   15 cycles

 The electronic state is 1-A.
 Alpha  occ. eigenvalues --  -18.99924 -10.00066  -9.96742  -0.89113  -0.51914
 Alpha  occ. eigenvalues --   -0.35083  -0.28685  -0.24088  -0.21391  -0.15739
 Alpha  occ. eigenvalues --   -0.00786   0.02731
 Alpha virt. eigenvalues --    0.12690   0.13642   0.14371   0.16021   0.19936
 Alpha virt. eigenvalues --    0.21356   0.22078   0.24010   0.25070   0.25728
 Alpha virt. eigenvalues --    0.27361   0.27908   0.31639   0.35098   0.37175

 Mulliken charges:
               1
     1  C   -0.506990
     2  C   -0.445236
     3  H    0.009977
     4  H    0.099608
     5  O   -0.229661
     6  H    0.072301
 Sum of Mulliken charges =  -1.00000

 Dipole moment (field-independent basis, Debye):
    X=              0.4119    Y=             -2.0694    Z=              1.4455  Tot=              2.5576
 Quadrupole moment (field-independent basis, Debye-Ang):
   XX=            -33.1351   YY=            -27.1600   ZZ=            -26.3932
   XY=             -2.8500   XZ=             -3.1753   YZ=             -0.2408

  Exact polarizability: 105.632   2.290  55.598   9.036   2.743  58.088
 Approx polarizability: 161.661   3.011  67.033  14.496   2.783  69.491

                      1                      2                      3
                      A                      A                      A
 Frequencies --    372.4469               508.7886               644.3333
 Red. masses --      1.4319                 3.0690                 1.9377
 Frc consts  --      0.1170                 0.4681                 0.4740
 IR Inten    --     74.3694                33.5460               397.6798

                      4                      5                      6
                      A                      A                      A
 Frequencies --    719.3262               988.1291              1199.1710
 Red. masses --      1.3199                 2.1121                 1.4515
 Frc consts  --      0.4024                 1.2150                 1.2298
 IR Inten    --     48.0765                 9.3961                14.2740

                      7                      8                      9
                      A                      A                      A
 Frequencies --   1322.7414              1399.4374              1453.8334
 Red. masses --      2.8387                 1.2767                 1.1731
 Frc consts  --      2.9263                 1.4732                 1.4609
 IR Inten    --     26.5910                25.1113                17.0389

                     10                     11                     12
                      A                      A                      A
 Frequencies --   2637.3482              2965.8727              3056.0149
 Red. masses --      1.0820                 1.0453                 1.1122
 Frc consts  --      4.4341                 5.4177                 6.1202
 IR Inten    --    612.2767               146.8799               105.6767

 - Thermochemistry -
 -------------------
 Temperature   298.150 Kelvin.  Pressure   1.00000 Atm.
 Atom     1 has atomic number  6 and mass  12.00000

 Molecular mass:    43.01839 amu.
 Principal axes and moments of inertia in atomic units:
                           1         2         3
     Eigenvalues --    21.74383 157.40925 176.11453
           X            0.99914  -0.03274  -0.02526
           Y            0.03297   0.99942   0.00889
           Z            0.02496  -0.00971   0.99964
 This molecule is an asymmetric top.
 Rotational symmetry number  1.
 Rotational temperatures (Kelvin)      3.98337     0.55025     0.49180
 Rotational constants (GHZ):          83.00016    11.46528    10.24754
 Zero-point vibrational energy     103282.2 (Joules/Mol)
                                   24.68505 (Kcal/Mol)
 Warning -- explicit consideration of   2 degrees of freedom as
           vibrations may cause significant error
 Vibrational temperatures:    535.87   732.03   927.05  1034.95  1421.70
          (Kelvin)           1725.34  1903.13  2013.48  2091.74  3794.55
                             4267.22  4396.92

 Zero-point correction=                           0.039338 (Hartree/Particle)
 Thermal correction to Energy=                    0.043047
 Thermal correction to Enthalpy=                  0.043991
 Thermal correction to Gibbs Free Energy=         0.015104
 Sum of electronic and zero-point Energies=           -153.109492
 Sum of electronic and thermal Energies=              -153.105783
 Sum of electronic and thermal Enthalpies=            -153.104839
 Sum of electronic and thermal Free Energies=         -153.133726

                     E (Thermal)             CV                S
                      KCal/Mol        Cal/Mol-Kelvin    Cal/Mol-Kelvin
 Total                   27.012             11.381             60.797
 Electronic               0.000              0.000              0.000
 Translational            0.889              2.981             37.204
 Rotational               0.889              2.981             21.027
 Vibrational             25.235              5.420              2.566
 Vibration     1          0.744              1.529              1.070
 Vibration     2          0.864              1.231              0.637

 Normal termination of Gaussian 09 at Thu Mar  7 08:12:38 2019.
