 Gaussian 09, Revision E.01,
 Gaussian 09:  EM64L-G09RevE.01 30-Nov-2015

 ------------------------------------------------------
 #p b3lyp/6-311++G(3df,2p) freq IOp(2/17=3) IOp(2/18=3)
 ------------------------------------------------------

 ---------
 b3lyp opt
 ---------
 Symbolic Z-matrix:
 Charge = -1 Multiplicity = 1

                         Standard orientation:
 ---------------------------------------------------------------------
 Center     Atomic      Atomic             Coordinates (Angstroms)
 Number     Number       Type             X           Y           Z
 ---------------------------------------------------------------------
      1          6           0       -0.645215   -0.388811    0.011884
      2          6           0        0.831622   -0.442990   -0.200579
      3          1           0       -1.121701   -0.662864    0.965204
      4          1           0       -1.317628   -0.563784   -0.837805
      5          1           0        1.278560   -0.639366    0.801308
      6          8           0        0.005291    0.857102    0.025432
 ---------------------------------------------------------------------

 SCF Done:  E(RB3LYP) =  -153.188953151     A.U. after   15 cycles

 The electronic state is 1-A.
 Alpha  occ. eigenvalues --  -18.89840  -9.99877  -9.94477  -0.80883  -0.43832
 Alpha  occ. eigenvalues --   -0.36853  -0.26003  -0.21417  -0.14094  -0.07364
 Alpha  occ. eigenvalues --   -0.05984   0.04070
 Alpha virt. eigenvalues --    0.12691   0.14392   0.15339   0.18253   0.22003
 Alpha virt. eigenvalues --    0.22449   0.22921   0.26382   0.27419   0.28127
 Alpha virt. eigenvalues --    0.28771   0.31812   0.34254   0.35888   0.36352

 Mulliken charges:
               1
     1  C   -0.009681
     2  C   -0.492041
     3  H    0.022719
     4  H    0.036511
     5  H    0.061147
     6  O   -0.618655
 Sum of Mulliken charges =  -1.00000

 Dipole moment (field-independent basis, Debye):
    X=             -3.2264    Y=             -0.0550    Z=              1.9720  Tot=              3.7817
 Quadrupole moment (field-independent basis, Debye-Ang):
   XX=            -27.9887   YY=            -26.5283   ZZ=            -25.5343
   XY=              2.2663   XZ=              3.5346   YZ=             -1.6482

  Exact polarizability:  62.784  -3.606  41.319  -8.586   2.199  59.942
 Approx polarizability:  74.046  -3.405  59.339  -5.489   1.042  67.324

                      1                      2                      3
                      A                      A                      A
 Frequencies --    548.4377               851.8537               877.6903
 Red. masses --     10.7301                 1.0778                 6.3210
 Frc consts  --      1.9015                 0.4608                 2.8689
 IR Inten    --     46.5500                16.2677                36.1829

                      4                      5                      6
                      A                      A                      A
 Frequencies --   1055.1058              1123.2481              1174.5614
 Red. masses --      1.0809                 1.4911                 1.3354
 Frc consts  --      0.7090                 1.1084                 1.0854
 IR Inten    --     14.8802                 7.9995                 0.5793

                      7                      8                      9
                      A                      A                      A
 Frequencies --   1191.5976              1234.2334              1503.7250
 Red. masses --      2.4642                 1.3962                 1.1135
 Frc consts  --      2.0615                 1.2531                 1.4834
 IR Inten    --     27.0360                 7.0427                15.0652

                     10                     11                     12
                      A                      A                      A
 Frequencies --   2723.5800              2905.7706              2942.4801
 Red. masses --      1.0843                 1.0563                 1.1007
 Frc consts  --      4.7388                 5.2547                 5.6151
 IR Inten    --    516.2162               294.4718               183.3670

 - Thermochemistry -
 -------------------
 Temperature   298.150 Kelvin.  Pressure   1.00000 Atm.
 Atom     1 has atomic number  6 and mass  12.00000

 Molecular mass:    43.01839 amu.
 Principal axes and moments of inertia in atomic units:
                           1         2         3
     Eigenvalues --    68.90998  75.30212 125.14097
           X            0.87176   0.48574   0.06400
           Y           -0.48361   0.87405  -0.04643
           Z           -0.07849   0.00953   0.99687
 This molecule is an asymmetric top.
 Rotational symmetry number  1.
 Rotational temperatures (Kelvin)      1.25691     1.15022     0.69213
 Rotational constants (GHZ):          26.18984    23.96667    14.42167
 Zero-point vibrational energy     108455.1 (Joules/Mol)
                                   25.92140 (Kcal/Mol)
 Warning -- explicit consideration of   1 degrees of freedom as
           vibrations may cause significant error
 Vibrational temperatures:    789.08  1225.63  1262.80  1518.06  1616.10
          (Kelvin)           1689.93  1714.44  1775.78  2163.52  3918.62
                             4180.75  4233.57

 Zero-point correction=                           0.041308 (Hartree/Particle)
 Thermal correction to Energy=                    0.044563
 Thermal correction to Enthalpy=                  0.045507
 Thermal correction to Gibbs Free Energy=         0.017264
 Sum of electronic and zero-point Energies=           -153.147645
 Sum of electronic and thermal Energies=              -153.144390
 Sum of electronic and thermal Enthalpies=            -153.143446
 Sum of electronic and thermal Free Energies=         -153.171689

                     E (Thermal)             CV                S
                      KCal/Mol        Cal/Mol-Kelvin    Cal/Mol-Kelvin
 Total                   27.964              9.478             59.442
 Electronic               0.000              0.000              0.000
 Translational            0.889              2.981             37.204
 Rotational               0.889              2.981             21.101
 Vibrational             26.186              3.516              1.137
 Vibration     1          0.904              1.143              0.547

 Optimization completed.
    -- Stationary point found.
 Normal termination of Gaussian 09 at Thu Mar  7 08:14:58 2019.
