 Gaussian 09, Revision E.01,
 Gaussian 09:  EM64L-G09RevE.01 30-Nov-2015

 ------------------------------------------------------
 #p b3lyp/6-311++G(3df,2p) freq IOp(2/17=3) IOp(2/18=3)
 ------------------------------------------------------

 ---------
 b3lyp opt
 ---------
 Symbolic Z-matrix:
 Charge = -1 Multiplicity = 3

                         Standard orientation:
 ---------------------------------------------------------------------
 Center     Atomic      Atomic             Coordinates (Angstroms)
 Number     Number       Type             X           Y           Z
 ---------------------------------------------------------------------
      1          6           0        1.591941   -0.494466   -0.000255
      2          6           0        0.787576    0.488177    0.000267
      3          1           0        0.392524    1.480282    0.000742
      4          1           0       -1.746266    0.262139   -0.765251
      5          1           0       -1.745076    0.256241    0.768598
      6          8           0       -1.397286   -0.245116   -0.000520
 ---------------------------------------------------------------------

 SCF Done:  E(UB3LYP) =  -153.090366779     A.U. after   24 cycles

 The electronic state is 3-A.
 Alpha  occ. eigenvalues --  -19.01740 -10.06854 -10.05648  -0.89531  -0.63062
 Alpha  occ. eigenvalues --   -0.41753  -0.40133  -0.29005  -0.23005  -0.15990
 Alpha  occ. eigenvalues --   -0.15548  -0.14714   0.05163
 Alpha virt. eigenvalues --    0.10563   0.11740   0.13897   0.14828   0.15946
 Alpha virt. eigenvalues --    0.19108   0.19817   0.19828   0.21730   0.24257
 Alpha virt. eigenvalues --    0.24320   0.26087   0.27795   0.27917   0.30051

  Beta  occ. eigenvalues --  -19.01030 -10.06147 -10.04947  -0.87947  -0.59779
  Beta  occ. eigenvalues --   -0.40448  -0.39533  -0.27459  -0.19828  -0.14600
  Beta  occ. eigenvalues --   -0.14231
  Beta virt. eigenvalues --   -0.02962   0.09970   0.12420   0.13708   0.15300
  Beta virt. eigenvalues --    0.15782   0.17255   0.19687   0.19996   0.20511
  Beta virt. eigenvalues --    0.22740   0.24724   0.25962   0.26537   0.28875

 Mulliken charges and spin densities:
               1          2
     1  C    0.515737  -0.678235
     2  C    0.661262  -0.067618
     3  H   -1.359210   1.633297
     4  H   -0.262301   0.561934
     5  H   -0.261429   0.560871
     6  O   -0.294059  -0.010249
 Sum of Mulliken charges =  -1.00000   2.00000

 Dipole moment (field-independent basis, Debye):
    X=              2.8085    Y=             -1.7639    Z=             -0.0015  Tot=              3.3165
 Quadrupole moment (field-independent basis, Debye-Ang):
   XX=            -52.1941   YY=            -41.3798   ZZ=            -34.3240
   XY=              6.8182   XZ=              0.0059   YZ=             -0.0044

  Exact polarizability: 371.736 249.006 389.727   0.327  -1.025 413.292
 Approx polarizability: 332.411 182.781 312.788   0.184  -0.907 352.499

                      1                      2                      3
                      A                      A                      A
 Frequencies --     82.6227               138.9260               229.8327
 Red. masses --      1.1626                 8.8948                 7.5486
 Frc consts  --      0.0047                 0.1011                 0.2349
 IR Inten    --      0.0087                25.0404                36.1401

                      4                      5                      6
                      A                      A                      A
 Frequencies --    476.4867               526.8709               615.7274
 Red. masses --      1.0277                 1.1146                 1.3946
 Frc consts  --      0.1375                 0.1823                 0.3115
 IR Inten    --      7.6561               518.2064               202.0109

                      7                      8                      9
                      A                      A                      A
 Frequencies --    768.6578              1532.9444              1737.6732
 Red. masses --      1.1030                 1.0808                 6.6994
 Frc consts  --      0.3840                 1.4964                11.9185
 IR Inten    --     98.4579               138.5627                 4.1720

                     10                     11                     12
                      A                      A                      A
 Frequencies --   3341.2854              3409.1259              3424.5839
 Red. masses --      1.1232                 1.0504                 1.0809
 Frc consts  --      7.3884                 7.1927                 7.4686
 IR Inten    --    919.9618              2661.7087              3713.7240

 - Thermochemistry -
 -------------------
 Temperature   298.150 Kelvin.  Pressure   1.00000 Atm.
 Atom     1 has atomic number  6 and mass  12.00000

 Molecular mass:    43.01839 amu.
 Principal axes and moments of inertia in atomic units:
                           1         2         3
     Eigenvalues --    36.38780 272.64716 300.56753
           X            0.99998  -0.00698  -0.00006
           Y            0.00698   0.99998  -0.00030
           Z            0.00007   0.00030   1.00000
 This molecule is an asymmetric top.
 Rotational symmetry number  1.
 Rotational temperatures (Kelvin)      2.38030     0.31768     0.28817
 Rotational constants (GHZ):          49.59742     6.61933     6.00445
 Zero-point vibrational energy      97404.4 (Joules/Mol)
                                   23.28020 (Kcal/Mol)
 Warning -- explicit consideration of   6 degrees of freedom as
           vibrations may cause significant error
 Vibrational temperatures:    118.88   199.88   330.68   685.56   758.05
          (Kelvin)            885.89  1105.93  2205.56  2500.12  4807.36
                             4904.97  4927.21

 Zero-point correction=                           0.037099 (Hartree/Particle)
 Thermal correction to Energy=                    0.042571
 Thermal correction to Enthalpy=                  0.043515
 Thermal correction to Gibbs Free Energy=         0.009061
 Sum of electronic and zero-point Energies=           -153.053267
 Sum of electronic and thermal Energies=              -153.047796
 Sum of electronic and thermal Enthalpies=            -153.046851
 Sum of electronic and thermal Free Energies=         -153.081306

                     E (Thermal)             CV                S
                      KCal/Mol        Cal/Mol-Kelvin    Cal/Mol-Kelvin
 Total                   26.714             15.926             72.515
 Electronic               0.000              0.000              2.183
 Translational            0.889              2.981             37.204
 Rotational               0.889              2.981             22.616
 Vibrational             24.936              9.965             10.513
 Vibration     1          0.600              1.961              3.828
 Vibration     2          0.615              1.914              2.819
 Vibration     3          0.652              1.795              1.880
 Vibration     4          0.833              1.302              0.720
 Vibration     5          0.882              1.191              0.594
 Vibration     6          0.975              0.999              0.423

 Normal termination of Gaussian 09 at Thu Mar  7 08:26:13 2019.
