 Gaussian 09, Revision E.01,
 Gaussian 09:  EM64L-G09RevE.01 30-Nov-2015

 ------------------------------------------------------
 #p b3lyp/6-311++G(3df,2p) freq IOp(2/17=3) IOp(2/18=3)
 ------------------------------------------------------

 ---------
 b3lyp opt
 ---------
 Symbolic Z-matrix:
 Charge = -1 Multiplicity = 3

                         Standard orientation:
 ---------------------------------------------------------------------
 Center     Atomic      Atomic             Coordinates (Angstroms)
 Number     Number       Type             X           Y           Z
 ---------------------------------------------------------------------
      1          6           0        0.016521    0.364202   -0.008916
      2          6           0        1.256994   -0.084344    0.010349
      3          1           0        2.096544    0.598790   -0.056943
      4          1           0        1.476063   -1.144689    0.123001
      5          1           0       -1.886385    0.398364    0.314207
      6          8           0       -1.165914   -0.191452   -0.048607
 ---------------------------------------------------------------------

 SCF Done:  E(UB3LYP) =  -153.173887033     A.U. after   22 cycles

 The electronic state is 3-A.
 Alpha  occ. eigenvalues --  -19.03458 -10.10062 -10.01979  -0.94294  -0.61826
 Alpha  occ. eigenvalues --   -0.46633  -0.35934  -0.32578  -0.29418  -0.26253
 Alpha  occ. eigenvalues --   -0.11177  -0.08011   0.06505
 Alpha virt. eigenvalues --    0.09579   0.11516   0.14865   0.16715   0.18177
 Alpha virt. eigenvalues --    0.18675   0.19459   0.22281   0.23292   0.24761
 Alpha virt. eigenvalues --    0.25059   0.27491   0.29374   0.32750   0.33338

  Beta  occ. eigenvalues --  -19.02904 -10.08610 -10.01942  -0.92889  -0.60244
  Beta  occ. eigenvalues --   -0.45548  -0.33600  -0.30141  -0.28502  -0.24805
  Beta  occ. eigenvalues --   -0.10352
  Beta virt. eigenvalues --    0.06082   0.10323   0.12033   0.12805   0.15852
  Beta virt. eigenvalues --    0.17696   0.18572   0.19408   0.20928   0.23011
  Beta virt. eigenvalues --    0.24004   0.25289   0.25622   0.28041   0.30884

 Mulliken charges and spin densities:
               1          2
     1  C   -0.090997   1.430496
     2  C    1.668317  -2.293287
     3  H   -0.732155   0.882343
     4  H    0.174823   0.003284
     5  H   -1.416110   1.776339
     6  O   -0.603879   0.200826
 Sum of Mulliken charges =  -1.00000   2.00000

 Dipole moment (field-independent basis, Debye):
    X=              5.2780    Y=             -2.8666    Z=             -1.6032  Tot=              6.2165
 Quadrupole moment (field-independent basis, Debye-Ang):
   XX=            -62.1479   YY=            -35.3437   ZZ=            -33.7171
   XY=              1.3792   XZ=              4.4632   YZ=             -0.9403

  Exact polarizability:1435.375 109.062 424.422-144.271 -56.897 133.679
 Approx polarizability:1565.030  91.479 269.229-154.981 -33.741 126.993

                      1                      2                      3
                      A                      A                      A
 Frequencies --    260.2111               427.4775               567.0389
 Red. masses --      1.1218                 2.3442                 1.5459
 Frc consts  --      0.0448                 0.2524                 0.2929
 IR Inten    --    902.7645               127.1757               181.4679

                      4                      5                      6
                      A                      A                      A
 Frequencies --    771.5397               957.3508              1097.1676
 Red. masses --      1.3385                 1.7357                 1.5393
 Frc consts  --      0.4695                 0.9373                 1.0917
 IR Inten    --      1.1111               959.6443               666.1019

                      7                      8                      9
                      A                      A                      A
 Frequencies --   1185.1258              1411.3520              1678.8159
 Red. masses --      2.3268                 1.1676                 7.4883
 Frc consts  --      1.9255                 1.3703                12.4348
 IR Inten    --   1119.0673                45.5599              1509.8143

                     10                     11                     12
                      A                      A                      A
 Frequencies --   2971.2515              3052.7756              3138.5405
 Red. masses --      1.0678                 1.0564                 1.1109
 Frc consts  --      5.5542                 5.8005                 6.4471
 IR Inten    --   8840.1455               142.6323               285.0447

 - Thermochemistry -
 -------------------
 Temperature   298.150 Kelvin.  Pressure   1.00000 Atm.
 Atom     1 has atomic number  6 and mass  12.00000

 Molecular mass:    43.01839 amu.
 Principal axes and moments of inertia in atomic units:
                           1         2         3
     Eigenvalues --    15.08579 182.26016 196.28035
           X            0.99963  -0.02534  -0.00986
           Y            0.02525   0.99963  -0.00984
           Z            0.01010   0.00959   0.99990
 This molecule is an asymmetric top.
 Rotational symmetry number  1.
 Rotational temperatures (Kelvin)      5.74142     0.47522     0.44128
 Rotational constants (GHZ):         119.63188     9.90201     9.19471
 Zero-point vibrational energy     104784.8 (Joules/Mol)
                                   25.04416 (Kcal/Mol)
 Warning -- explicit consideration of   3 degrees of freedom as
           vibrations may cause significant error
 Vibrational temperatures:    374.39   615.04   815.84  1110.07  1377.41
          (Kelvin)           1578.58  1705.13  2030.62  2415.44  4274.96
                             4392.26  4515.65

 Zero-point correction=                           0.039910 (Hartree/Particle)
 Thermal correction to Energy=                    0.043861
 Thermal correction to Enthalpy=                  0.044805
 Thermal correction to Gibbs Free Energy=         0.014485
 Sum of electronic and zero-point Energies=           -153.133977
 Sum of electronic and thermal Energies=              -153.130026
 Sum of electronic and thermal Enthalpies=            -153.129082
 Sum of electronic and thermal Free Energies=         -153.159402

                     E (Thermal)             CV                S
                      KCal/Mol        Cal/Mol-Kelvin    Cal/Mol-Kelvin
 Total                   27.523             11.984             63.814
 Electronic               0.000              0.000              2.183
 Translational            0.889              2.981             37.204
 Rotational               0.889              2.981             20.917
 Vibrational             25.746              6.023              3.510
 Vibration     1          0.668              1.745              1.660
 Vibration     2          0.789              1.410              0.867
 Vibration     3          0.923              1.103              0.510

 Optimization completed.
    -- Stationary point found.
 Normal termination of Gaussian 09 at Thu Mar  7 08:18:30 2019.
