 Gaussian 09, Revision E.01,
 Gaussian 09:  EM64L-G09RevE.01 30-Nov-2015

 ------------------------------------------------------
 #p b3lyp/6-311++G(3df,2p) freq IOp(2/17=3) IOp(2/18=3)
 ------------------------------------------------------

 ---------
 b3lyp opt
 ---------
 Symbolic Z-matrix:
 Charge = -1 Multiplicity = 3

                         Standard orientation:
 ---------------------------------------------------------------------
 Center     Atomic      Atomic             Coordinates (Angstroms)
 Number     Number       Type             X           Y           Z
 ---------------------------------------------------------------------
      1          6           0        0.000000    1.264510   -0.000000
      2          6           0        1.386923    1.257574   -0.000000
      3          6           0       -1.096307   -0.827151    0.000000
      4          1           0       -0.552521    1.543574    0.902973
      5          1           0       -0.552521    1.543574   -0.902973
      6          1           0        2.060596    0.397773   -0.000000
      7          8           0       -0.337407   -1.706815    0.000000
 ---------------------------------------------------------------------

 SCF Done:  E(UB3LYP) =  -191.264241179     A.U. after   17 cycles

 The electronic state is 3-A".
 Alpha  occ. eigenvalues --  -18.99473 -10.06548  -9.97554  -9.96889  -0.92429
 Alpha  occ. eigenvalues --   -0.54758  -0.38230  -0.36049  -0.25961  -0.25347
 Alpha  occ. eigenvalues --   -0.23266  -0.22618  -0.17281  -0.08338   0.00251
 Alpha  occ. eigenvalues --    0.05469
 Alpha virt. eigenvalues --    0.13033   0.13708   0.14106   0.15911   0.16346
 Alpha virt. eigenvalues --    0.18391   0.20787   0.21454   0.21785   0.22878
 Alpha virt. eigenvalues --    0.23684   0.25293   0.26423   0.27008   0.28153

  Beta  occ. eigenvalues --  -18.99171 -10.06283  -9.97383  -9.95079  -0.91880
  Beta  occ. eigenvalues --   -0.52266  -0.35982  -0.34145  -0.24980  -0.24056
  Beta  occ. eigenvalues --   -0.21710  -0.21139  -0.16149  -0.04003
  Beta virt. eigenvalues --    0.12681   0.13511   0.13574   0.13927   0.14208
  Beta virt. eigenvalues --    0.16493   0.16761   0.18749   0.21614   0.22019
  Beta virt. eigenvalues --    0.22094   0.24787   0.24992   0.25386   0.27355

 Mulliken charges and spin densities:
               1          2
     1  C   -0.182778  -0.008735
     2  C   -0.650407   1.493151
     3  C   -0.056690   0.289319
     4  H    0.062871   0.067505
     5  H    0.062871   0.067505
     6  H    0.126362   0.022963
     7  O   -0.362230   0.068291
 Sum of Mulliken charges =  -1.00000   2.00000

 Dipole moment (field-independent basis, Debye):
    X=             -1.3807    Y=             -2.2760    Z=             -0.0000  Tot=              2.6620
 Quadrupole moment (field-independent basis, Debye-Ang):
   XX=            -40.4991   YY=            -43.2580   ZZ=            -28.6422
   XY=             -8.6415   XZ=              0.0000   YZ=              0.0000

  Exact polarizability: 145.433  38.249 129.197   0.000  -0.000  57.389
 Approx polarizability: 165.000  47.032 158.875  -0.000  -0.000  70.297

                      1                      2                      3
                     A'                     A"                     A'
 Frequencies --     90.1444               101.7694               158.5313
 Red. masses --      7.0783                 2.8324                 4.4064
 Frc consts  --      0.0339                 0.0173                 0.0652
 IR Inten    --     11.8807                 0.3746                10.4455

                      4                      5                      6
                     A"                     A'                     A"
 Frequencies --    192.2051               380.8962               444.5400
 Red. masses --      1.2790                 6.0048                 1.1866
 Frc consts  --      0.0278                 0.5133                 0.1382
 IR Inten    --     16.2413                 2.8087                32.2765

                      7                      8                      9
                     A'                     A'                     A"
 Frequencies --    756.7945               797.3706               945.7878
 Red. masses --      1.1312                 1.4256                 1.2521
 Frc consts  --      0.3817                 0.5340                 0.6599
 IR Inten    --     40.5273               500.2770                 3.6973

                     10                     11                     12
                     A'                     A'                     A'
 Frequencies --   1250.1190              1427.0074              1888.6669
 Red. masses --      3.2452                 1.2275                13.3039
 Frc consts  --      2.9881                 1.4728                27.9602
 IR Inten    --    112.9760                26.7650               864.0753

                     13                     14                     15
                     A'                     A"                     A'
 Frequencies --   2968.5066              2992.4105              3008.0838
 Red. masses --      1.0493                 1.1090                 1.0898
 Frc consts  --      5.4480                 5.8510                 5.8101
 IR Inten    --    148.7640                76.4481               261.6244

 - Thermochemistry -
 -------------------
 Temperature   298.150 Kelvin.  Pressure   1.00000 Atm.
 Atom     1 has atomic number  6 and mass  12.00000

 Molecular mass:    55.01839 amu.
 Principal axes and moments of inertia in atomic units:
                           1         2         3
     Eigenvalues --    87.21288 431.34107 506.81601
           X            0.47153   0.88185   0.00000
           Y            0.88185  -0.47153   0.00000
           Z           -0.00000  -0.00000   1.00000
 This molecule is an asymmetric top.
 Rotational symmetry number  1.
 Rotational temperatures (Kelvin)      0.99313     0.20080     0.17090
 Rotational constants (GHZ):          20.69352     4.18402     3.56094
 Zero-point vibrational energy     104092.1 (Joules/Mol)
                                   24.87860 (Kcal/Mol)
 Warning -- explicit consideration of   6 degrees of freedom as
           vibrations may cause significant error
 Vibrational temperatures:    129.70   146.42   228.09   276.54   548.02
          (Kelvin)            639.59  1088.86  1147.24  1360.78  1798.64
                             2053.14  2717.37  4271.01  4305.41  4327.96

 Zero-point correction=                           0.039647 (Hartree/Particle)
 Thermal correction to Energy=                    0.046000
 Thermal correction to Enthalpy=                  0.046944
 Thermal correction to Gibbs Free Energy=         0.009456
 Sum of electronic and zero-point Energies=           -191.224595
 Sum of electronic and thermal Energies=              -191.218241
 Sum of electronic and thermal Enthalpies=            -191.217297
 Sum of electronic and thermal Free Energies=         -191.254785

                     E (Thermal)             CV                S
                      KCal/Mol        Cal/Mol-Kelvin    Cal/Mol-Kelvin
 Total                   28.866             18.603             78.901
 Electronic               0.000              0.000              2.183
 Translational            0.889              2.981             37.937
 Rotational               0.889              2.981             24.459
 Vibrational             27.088             12.641             14.322
 Vibration     1          0.602              1.956              3.657
 Vibration     2          0.604              1.948              3.420
 Vibration     3          0.621              1.893              2.567
 Vibration     4          0.634              1.851              2.206
 Vibration     5          0.751              1.511              1.036
 Vibration     6          0.804              1.373              0.812

 Normal termination of Gaussian 09 at Fri Mar  8 05:55:34 2019.
