 Gaussian 09, Revision E.01,
 Gaussian 09:  EM64L-G09RevE.01 30-Nov-2015

 ------------------------------------------------------
 #p b3lyp/6-311++G(3df,2p) freq IOp(2/17=3) IOp(2/18=3)
 ------------------------------------------------------

 ---------
 b3lyp opt
 ---------
 Symbolic Z-matrix:
 Charge = -1 Multiplicity = 1

                         Standard orientation:
 ---------------------------------------------------------------------
 Center     Atomic      Atomic             Coordinates (Angstroms)
 Number     Number       Type             X           Y           Z
 ---------------------------------------------------------------------
      1          6           0        1.133546    0.353133    0.000000
      2          1           0       -1.345835   -1.748245   -0.000000
      3          6           0        0.000000    1.107398    0.000000
      4          6           0       -0.560557   -1.005484    0.000000
      5          6           0        0.795361   -1.068927   -0.000000
      6          1           0        2.133242    0.772924    0.000000
      7          1           0       -0.192626    2.170747    0.000000
      8          8           0       -1.100609    0.310981    0.000000
 ---------------------------------------------------------------------

 SCF Done:  E(RB3LYP) =  -229.462585800     A.U. after   16 cycles

 The electronic state is 1-A'.
 Alpha  occ. eigenvalues --  -18.98366 -10.02578  -9.99764  -9.97047  -9.91781
 Alpha  occ. eigenvalues --   -0.89311  -0.57857  -0.52976  -0.37635  -0.36469
 Alpha  occ. eigenvalues --   -0.30932  -0.24439  -0.23901  -0.18952  -0.16221
 Alpha  occ. eigenvalues --   -0.07050  -0.02616   0.00657
 Alpha virt. eigenvalues --    0.11167   0.12853   0.13335   0.17533   0.18308
 Alpha virt. eigenvalues --    0.19013   0.20639   0.22280   0.22710   0.23359
 Alpha virt. eigenvalues --    0.23833   0.24002   0.25283   0.25383   0.25609

 Mulliken charges:
               1
     1  C   -0.454832
     2  H    0.107305
     3  C    0.146760
     4  C   -0.403868
     5  C    0.034912
     6  H    0.061784
     7  H    0.131710
     8  O   -0.623773
 Sum of Mulliken charges =  -1.00000

 Dipole moment (field-independent basis, Debye):
    X=             -2.4570    Y=              4.1411    Z=              0.0000  Tot=              4.8152
 Quadrupole moment (field-independent basis, Debye-Ang):
   XX=            -40.3372   YY=            -42.3266   ZZ=            -36.4193
   XY=              7.0298   XZ=             -0.0000   YZ=             -0.0000

  Exact polarizability:  79.498  -9.949  94.194   0.000  -0.000  55.042
 Approx polarizability: 119.705  -9.198 126.911   0.000  -0.000  75.602

                      1                      2                      3
                     A"                     A"                     A"
 Frequencies --    605.5535               614.0308               670.3481
 Red. masses --      2.8876                 4.6613                 1.2779
 Frc consts  --      0.6239                 1.0355                 0.3383
 IR Inten    --     12.5027                 9.1553                 0.8466

                      4                      5                      6
                     A"                     A'                     A"
 Frequencies --    720.0975               794.4685               849.5918
 Red. masses --      1.3645                 6.6669                 1.3202
 Frc consts  --      0.4169                 2.4793                 0.5614
 IR Inten    --     70.6962                40.0138                 2.4698

                      7                      8                      9
                     A'                     A'                     A'
 Frequencies --    863.6393               919.2036              1030.2029
 Red. masses --      6.6140                 8.7751                 2.0885
 Frc consts  --      2.9066                 4.3684                 1.3060
 IR Inten    --     30.4443                 0.7629                24.2294

                     10                     11                     12
                     A'                     A'                     A'
 Frequencies --   1072.2342              1139.2105              1247.6797
 Red. masses --      4.4639                 1.4749                 1.2615
 Frc consts  --      3.0237                 1.1277                 1.1571
 IR Inten    --     28.1220                13.0419                 0.9921

                     13                     14                     15
                     A'                     A'                     A'
 Frequencies --   1323.3431              1435.7067              1495.1195
 Red. masses --      2.3198                 3.2992                 4.3826
 Frc consts  --      2.3936                 4.0067                 5.7721
 IR Inten    --      7.5022                51.2357                16.7187

                     16                     17                     18
                     A'                     A'                     A'
 Frequencies --   3127.6642              3180.2256              3188.1064
 Red. masses --      1.0874                 1.0914                 1.0983
 Frc consts  --      6.2672                 6.5034                 6.5772
 IR Inten    --     50.9987                66.7189                64.7311

 - Thermochemistry -
 -------------------
 Temperature   298.150 Kelvin.  Pressure   1.00000 Atm.
 Atom     1 has atomic number  6 and mass  12.00000

 Molecular mass:    67.01839 amu.
 Principal axes and moments of inertia in atomic units:
                           1         2         3
     Eigenvalues --   184.69329 188.88715 373.58045
           X            0.86610   0.49987   0.00000
           Y           -0.49987   0.86610   0.00000
           Z            0.00000  -0.00000   1.00000
 This molecule is an asymmetric top.
 Rotational symmetry number  1.
 Rotational temperatures (Kelvin)      0.46896     0.45855     0.23185
 Rotational constants (GHZ):           9.77156     9.55460     4.83093
 Zero-point vibrational energy     145205.3 (Joules/Mol)
                                   34.70489 (Kcal/Mol)
 Warning -- explicit consideration of   2 degrees of freedom as
           vibrations may cause significant error
 Vibrational temperatures:    871.26   883.45   964.48  1036.06  1143.06
          (Kelvin)           1222.37  1242.58  1322.53  1482.23  1542.70
                             1639.07  1795.13  1903.99  2065.66  2151.14
                             4500.01  4575.63  4586.97

 Zero-point correction=                           0.055306 (Hartree/Particle)
 Thermal correction to Energy=                    0.059052
 Thermal correction to Enthalpy=                  0.059997
 Thermal correction to Gibbs Free Energy=         0.029083
 Sum of electronic and zero-point Energies=           -229.407280
 Sum of electronic and thermal Energies=              -229.403533
 Sum of electronic and thermal Enthalpies=            -229.402589
 Sum of electronic and thermal Free Energies=         -229.433503

                     E (Thermal)             CV                S
                      KCal/Mol        Cal/Mol-Kelvin    Cal/Mol-Kelvin
 Total                   37.056             13.301             65.064
 Electronic               0.000              0.000              0.000
 Translational            0.889              2.981             38.525
 Rotational               0.889              2.981             24.081
 Vibrational             35.278              7.340              2.458
 Vibration     1          0.964              1.020              0.440
 Vibration     2          0.973              1.002              0.426

 Normal termination of Gaussian 09 at Thu Mar  7 09:03:41 2019.
