 Gaussian 09, Revision E.01,
 Gaussian 09:  EM64L-G09RevE.01 30-Nov-2015

 ------------------------------------------------------
 #p b3lyp/6-311++G(3df,2p) freq IOp(2/17=3) IOp(2/18=3)
 ------------------------------------------------------

 ---------
 b3lyp opt
 ---------
 Symbolic Z-matrix:
 Charge = -1 Multiplicity = 3

                         Standard orientation:
 ---------------------------------------------------------------------
 Center     Atomic      Atomic             Coordinates (Angstroms)
 Number     Number       Type             X           Y           Z
 ---------------------------------------------------------------------
      1          6           0        0.217529    1.494164    0.679453
      2          6           0        0.217529   -0.981295    0.000000
      3          8           0       -0.207892   -2.116279    0.000000
      4          6           0       -0.459401    0.295844   -0.000000
      5          6           0        0.217529    1.494164   -0.679453
      6          1           0        1.027224    1.449066    1.409238
      7          1           0       -1.550433    0.214839   -0.000000
      8          1           0        1.027224    1.449066   -1.409238
 ---------------------------------------------------------------------

 SCF Done:  E(UB3LYP) =  -229.378355825     A.U. after   16 cycles

 The electronic state is 3-A".
 Alpha  occ. eigenvalues --  -18.96224 -10.05675 -10.01643  -9.98404  -9.98340
 Alpha  occ. eigenvalues --   -0.87964  -0.67590  -0.48322  -0.36890  -0.35365
 Alpha  occ. eigenvalues --   -0.29965  -0.27759  -0.23218  -0.22725  -0.15292
 Alpha  occ. eigenvalues --   -0.11656  -0.08477  -0.00673   0.04073
 Alpha virt. eigenvalues --    0.12213   0.12996   0.13221   0.16120   0.17143
 Alpha virt. eigenvalues --    0.19359   0.20161   0.20595   0.21071   0.21410
 Alpha virt. eigenvalues --    0.24522   0.25079   0.25625   0.25626   0.26051

  Beta  occ. eigenvalues --  -18.95174 -10.04548 -10.01433  -9.97840  -9.97773
  Beta  occ. eigenvalues --   -0.85918  -0.66868  -0.46242  -0.35429  -0.33711
  Beta  occ. eigenvalues --   -0.28333  -0.26402  -0.21075  -0.18844  -0.13702
  Beta  occ. eigenvalues --   -0.10622  -0.04714
  Beta virt. eigenvalues --    0.10740   0.12476   0.12877   0.13176   0.13742
  Beta virt. eigenvalues --    0.16490   0.19509   0.19687   0.20672   0.20709
  Beta virt. eigenvalues --    0.21238   0.22623   0.25037   0.25111   0.25562

 Mulliken charges and spin densities:
               1          2
     1  C   -0.392690   0.413799
     2  C   -0.206758   1.064007
     3  O   -0.602039   0.287154
     4  C    0.360234  -0.401558
     5  C   -0.392690   0.413799
     6  H    0.076064   0.063699
     7  H    0.081813   0.095400
     8  H    0.076064   0.063699
 Sum of Mulliken charges =  -1.00000   2.00000

 Dipole moment (field-independent basis, Debye):
    X=              0.2710    Y=             -0.6157    Z=              0.0000  Tot=              0.6727
 Quadrupole moment (field-independent basis, Debye-Ang):
   XX=            -35.4560   YY=            -53.5364   ZZ=            -36.8493
   XY=              1.3884   XZ=              0.0000   YZ=             -0.0000

  Exact polarizability:  81.717  -4.297 115.362  -0.000   0.000  81.762
 Approx polarizability:  99.777   0.312 173.411  -0.000  -0.000 112.456

                      1                      2                      3
                     A"                     A'                     A'
 Frequencies --    174.9683               305.2284               487.4276
 Red. masses --      5.9350                 4.2474                 6.0272
 Frc consts  --      0.1071                 0.2331                 0.8437
 IR Inten    --      0.6150                 6.8682                26.1840

                      4                      5                      6
                     A"                     A"                     A'
 Frequencies --    492.1186               638.3647               646.3538
 Red. masses --      5.1529                 2.9496                 1.1454
 Frc consts  --      0.7353                 0.7082                 0.2819
 IR Inten    --      6.4856               135.9313               253.0366

                      7                      8                      9
                     A"                     A'                     A'
 Frequencies --    853.1621               908.8786               971.5216
 Red. masses --      1.6336                 1.4687                 7.3632
 Frc consts  --      0.7006                 0.7148                 4.0947
 IR Inten    --     57.2375               115.5940                 9.5305

                     10                     11                     12
                     A"                     A'                     A"
 Frequencies --    979.2145              1039.2542              1048.9778
 Red. masses --      1.2429                 3.4453                 1.3120
 Frc consts  --      0.7021                 2.1924                 0.8506
 IR Inten    --      0.0178                 6.1276                23.3161

                     13                     14                     15
                     A'                     A'                     A'
 Frequencies --   1250.1126              1439.7620              1706.3638
 Red. masses --      1.1818                 5.9693                12.9579
 Frc consts  --      1.0881                 7.2905                22.2294
 IR Inten    --      2.7132               298.8623               748.8426

                     16                     17                     18
                     A'                     A"                     A'
 Frequencies --   2975.3495              2986.3169              3034.1733
 Red. masses --      1.0835                 1.0818                 1.1024
 Frc consts  --      5.6516                 5.6841                 5.9798
 IR Inten    --    146.5958               257.3561               168.6810

 - Thermochemistry -
 -------------------
 Temperature   298.150 Kelvin.  Pressure   1.00000 Atm.
 Atom     1 has atomic number  6 and mass  12.00000

 Molecular mass:    67.01839 amu.
 Principal axes and moments of inertia in atomic units:
                           1         2         3
     Eigenvalues --    82.97910 540.77474 565.51840
           X            0.09881   0.00000   0.99511
           Y            0.99511   0.00000  -0.09881
           Z           -0.00000   1.00000  -0.00000
 This molecule is an asymmetric top.
 Rotational symmetry number  1.
 Rotational temperatures (Kelvin)      1.04380     0.16017     0.15316
 Rotational constants (GHZ):          21.74935     3.33733     3.19130
 Zero-point vibrational energy     131215.7 (Joules/Mol)
                                   31.36130 (Kcal/Mol)
 Warning -- explicit consideration of   4 degrees of freedom as
           vibrations may cause significant error
 Vibrational temperatures:    251.74   439.16   701.30   708.05   918.46
          (Kelvin)            929.96  1227.51  1307.67  1397.80  1408.87
                             1495.25  1509.24  1798.63  2071.49  2455.07
                             4280.86  4296.64  4365.49

 Zero-point correction=                           0.049977 (Hartree/Particle)
 Thermal correction to Energy=                    0.054846
 Thermal correction to Enthalpy=                  0.055790
 Thermal correction to Gibbs Free Energy=         0.021546
 Sum of electronic and zero-point Energies=           -229.328378
 Sum of electronic and thermal Energies=              -229.323510
 Sum of electronic and thermal Enthalpies=            -229.322565
 Sum of electronic and thermal Free Energies=         -229.356810

                     E (Thermal)             CV                S
                      KCal/Mol        Cal/Mol-Kelvin    Cal/Mol-Kelvin
 Total                   34.417             16.762             72.074
 Electronic               0.000              0.000              2.183
 Translational            0.889              2.981             38.525
 Rotational               0.889              2.981             24.743
 Vibrational             32.639             10.800              6.622
 Vibration     1          0.627              1.873              2.381
 Vibration     2          0.696              1.664              1.388
 Vibration     3          0.843              1.278              0.690
 Vibration     4          0.848              1.268              0.678

 Optimization completed.
    -- Stationary point found.
 Normal termination of Gaussian 09 at Fri Mar  8 06:36:59 2019.
