 Gaussian 09, Revision E.01,
 Gaussian 09:  EM64L-G09RevE.01 30-Nov-2015

 ------------------------------------------------------
 #p b3lyp/6-311++G(3df,2p) freq IOp(2/17=3) IOp(2/18=3)
 ------------------------------------------------------

 ---------
 b3lyp opt
 ---------
 Symbolic Z-matrix:
 Charge = -1 Multiplicity = 1

                         Standard orientation:
 ---------------------------------------------------------------------
 Center     Atomic      Atomic             Coordinates (Angstroms)
 Number     Number       Type             X           Y           Z
 ---------------------------------------------------------------------
      1          6           0       -1.387863    0.778721   -0.020553
      2          6           0        1.057097   -0.432873    0.001586
      3          8           0        2.036351    0.377468   -0.081423
      4          6           0       -0.262465   -0.178136    0.285069
      5          6           0       -1.635248   -0.503023   -0.099426
      6          1           0       -1.796124    1.774771   -0.033343
      7          1           0        1.274221   -1.530468   -0.053755
      8          1           0       -2.398027   -1.252179   -0.261573
 ---------------------------------------------------------------------

 SCF Done:  E(RB3LYP) =  -229.402689648     A.U. after   19 cycles

 The electronic state is 1-A.
 Alpha  occ. eigenvalues --  -18.84953 -10.03303 -10.02347 -10.00393  -9.97636
 Alpha  occ. eigenvalues --   -0.75918  -0.69989  -0.47138  -0.40980  -0.37734
 Alpha  occ. eigenvalues --   -0.27837  -0.21679  -0.19430  -0.18032  -0.12074
 Alpha  occ. eigenvalues --   -0.11331  -0.02214   0.04027
 Alpha virt. eigenvalues --    0.10198   0.11495   0.13732   0.14095   0.17072
 Alpha virt. eigenvalues --    0.17732   0.19174   0.19834   0.21666   0.22222
 Alpha virt. eigenvalues --    0.23097   0.23361   0.24525   0.25022   0.26445

 Mulliken charges:
               1
     1  C   -0.540122
     2  C   -0.319326
     3  O   -0.855212
     4  C    0.396687
     5  C    0.062672
     6  H    0.168626
     7  H   -0.088455
     8  H    0.175128
 Sum of Mulliken charges =  -1.00000

 Dipole moment (field-independent basis, Debye):
    X=             -5.2084    Y=             -0.7739    Z=             -0.6370  Tot=              5.3040
 Quadrupole moment (field-independent basis, Debye-Ang):
   XX=            -49.2490   YY=            -33.8628   ZZ=            -36.6356
   XY=             -2.0431   XZ=              0.4197   YZ=              1.4120

  Exact polarizability: 105.776  -8.562  83.850   3.341  -6.878  64.703
 Approx polarizability: 151.350  -4.750 123.150  -2.626  -6.281  81.441

                      1                      2                      3
                      A                      A                      A
 Frequencies --    137.6927               214.6040               372.6573
 Red. masses --      5.7639                 3.8658                 2.0056
 Frc consts  --      0.0644                 0.1049                 0.1641
 IR Inten    --     59.8179                11.9777                21.9000

                      4                      5                      6
                      A                      A                      A
 Frequencies --    406.0984               465.5392               650.8541
 Red. masses --      1.5989                 3.3339                 5.8786
 Frc consts  --      0.1554                 0.4257                 1.4672
 IR Inten    --     80.6661                64.4835                19.1537

                      7                      8                      9
                      A                      A                      A
 Frequencies --    811.3139               858.3611               879.4663
 Red. masses --      1.5641                 2.0708                 1.4657
 Frc consts  --      0.6066                 0.8990                 0.6680
 IR Inten    --      5.8902                14.5009                 7.6660

                     10                     11                     12
                      A                      A                      A
 Frequencies --    967.2901              1040.5765              1322.9023
 Red. masses --      1.6715                 1.4761                 1.9253
 Frc consts  --      0.9215                 0.9417                 1.9852
 IR Inten    --     15.6604                12.0637               182.9144

                     13                     14                     15
                      A                      A                      A
 Frequencies --   1388.1124              1590.0752              1690.0965
 Red. masses --      2.3678                 7.4129                 6.3492
 Frc consts  --      2.6881                11.0427                10.6854
 IR Inten    --    179.3466               389.0371               120.1540

                     16                     17                     18
                      A                      A                      A
 Frequencies --   2712.2599              3154.5204              3232.6910
 Red. masses --      1.0731                 1.0894                 1.1217
 Frc consts  --      4.6511                 6.3872                 6.9065
 IR Inten    --    424.7563                36.0384                11.7423

 - Thermochemistry -
 -------------------
 Temperature   298.150 Kelvin.  Pressure   1.00000 Atm.
 Atom     1 has atomic number  6 and mass  12.00000

 Molecular mass:    67.01839 amu.
 Principal axes and moments of inertia in atomic units:
                           1         2         3
     Eigenvalues --    84.13731 527.19284 602.27539
           X            0.99985  -0.01678   0.00409
           Y            0.01671   0.99973   0.01636
           Z           -0.00437  -0.01628   0.99986
 This molecule is an asymmetric top.
 Rotational symmetry number  1.
 Rotational temperatures (Kelvin)      1.02943     0.16429     0.14381
 Rotational constants (GHZ):          21.44995     3.42330     2.99654
 Zero-point vibrational energy     130961.8 (Joules/Mol)
                                   31.30063 (Kcal/Mol)
 Warning -- explicit consideration of   5 degrees of freedom as
           vibrations may cause significant error
 Vibrational temperatures:    198.11   308.77   536.17   584.28   669.81
          (Kelvin)            936.43  1167.30  1234.99  1265.35  1391.71
                             1497.16  1903.36  1997.18  2287.76  2431.67
                             3902.33  4538.65  4651.12

 Zero-point correction=                           0.049881 (Hartree/Particle)
 Thermal correction to Energy=                    0.055235
 Thermal correction to Enthalpy=                  0.056180
 Thermal correction to Gibbs Free Energy=         0.021948
 Sum of electronic and zero-point Energies=           -229.352809
 Sum of electronic and thermal Energies=              -229.347454
 Sum of electronic and thermal Enthalpies=            -229.346510
 Sum of electronic and thermal Free Energies=         -229.380742

                     E (Thermal)             CV                S
                      KCal/Mol        Cal/Mol-Kelvin    Cal/Mol-Kelvin
 Total                   34.661             17.744             72.046
 Electronic               0.000              0.000              0.000
 Translational            0.889              2.981             38.525
 Rotational               0.889              2.981             24.794
 Vibrational             32.883             11.783              8.727
 Vibration     1          0.614              1.916              2.836
 Vibration     2          0.645              1.819              2.004
 Vibration     3          0.744              1.528              1.069
 Vibration     4          0.771              1.457              0.941
 Vibration     5          0.823              1.327              0.750

 Normal termination of Gaussian 09 at Thu Mar  7 09:25:24 2019.
