 Gaussian 09, Revision E.01,
 Gaussian 09:  EM64L-G09RevE.01 30-Nov-2015

 ------------------------------------------------------
 #p b3lyp/6-311++G(3df,2p) freq IOp(2/17=3) IOp(2/18=3)
 ------------------------------------------------------

 ---------
 b3lyp opt
 ---------
 Symbolic Z-matrix:
 Charge = -1 Multiplicity = 3

                         Standard orientation:
 ---------------------------------------------------------------------
 Center     Atomic      Atomic             Coordinates (Angstroms)
 Number     Number       Type             X           Y           Z
 ---------------------------------------------------------------------
      1          6           0       -1.000473   -0.175377    0.033721
      2          1           0       -1.225327    0.914745   -0.032748
      3          1           0        1.082251   -0.779007    0.274375
      4          1           0        1.045852    0.800526    0.363369
      5          8           0        0.637508    0.014500   -0.100916
 ---------------------------------------------------------------------

 SCF Done:  E(UB3LYP) =  -114.982038703     A.U. after   16 cycles

 The electronic state is 3-A.
 Alpha  occ. eigenvalues --  -19.04319 -10.02189  -0.92062  -0.47012  -0.42354
 Alpha  occ. eigenvalues --   -0.29333  -0.24162  -0.08112  -0.01771   0.05412
 Alpha virt. eigenvalues --    0.12006   0.13459   0.17713   0.20095   0.21712
 Alpha virt. eigenvalues --    0.23591   0.24943   0.27323   0.27760   0.30791
 Alpha virt. eigenvalues --    0.32253   0.34391   0.36010   0.44236   0.50127

  Beta  occ. eigenvalues --  -19.03934 -10.00755  -0.91163  -0.44105  -0.41776
  Beta  occ. eigenvalues --   -0.27745  -0.22917  -0.05844
  Beta virt. eigenvalues --    0.10884   0.12430   0.13069   0.15091   0.19027
  Beta virt. eigenvalues --    0.21946   0.22729   0.24472   0.26311   0.28881
  Beta virt. eigenvalues --    0.29348   0.31584   0.33125   0.34994   0.36994

 Mulliken charges and spin densities:
               1          2
     1  C    0.048272   0.546360
     2  H   -0.010227   0.091097
     3  H   -0.344914   0.673743
     4  H   -0.680082   1.012520
     5  O   -0.013048  -0.323720
 Sum of Mulliken charges =  -1.00000   2.00000

 Dipole moment (field-independent basis, Debye):
    X=             -2.2271    Y=              0.1133    Z=             -1.3718  Tot=              2.6181
 Quadrupole moment (field-independent basis, Debye-Ang):
   XX=            -37.2689   YY=            -29.0418   ZZ=            -27.1702
   XY=             -4.5013   XZ=             -2.4909   YZ=             -0.7518

  Exact polarizability: 150.107 -42.469 369.694  15.381   9.800  67.725
 Approx polarizability: 134.224 -35.625 342.069  11.458   8.733  70.201

                      1                      2                      3
                      A                      A                      A
 Frequencies --    324.3294               421.9165               618.0046
 Red. masses --      1.0775                 9.3026                 1.1916
 Frc consts  --      0.0668                 0.9757                 0.2681
 IR Inten    --     99.9741                27.4406               230.1244

                      4                      5                      6
                      A                      A                      A
 Frequencies --    774.0898              1258.6836              1476.7989
 Red. masses --      1.0673                 1.1332                 1.0811
 Frc consts  --      0.3768                 1.0578                 1.3892
 IR Inten    --    133.7673                26.9327               297.9905

                      7                      8                      9
                      A                      A                      A
 Frequencies --   2813.5552              3023.5304              3340.5397
 Red. masses --      1.0858                 1.0716                 1.0614
 Frc consts  --      5.0640                 5.7719                 6.9785
 IR Inten    --     13.9281              3318.1036              2891.6853

 - Thermochemistry -
 -------------------
 Temperature   298.150 Kelvin.  Pressure   1.00000 Atm.
 Atom     1 has atomic number  6 and mass  12.00000

 Molecular mass:    31.01839 amu.
 Principal axes and moments of inertia in atomic units:
                           1         2         3
     Eigenvalues --     9.77127  81.12149  88.39043
           X            0.99795  -0.05519   0.03250
           Y            0.05476   0.99840   0.01397
           Z           -0.03322  -0.01217   0.99937
 This molecule is an asymmetric top.
 Rotational symmetry number  1.
 Rotational temperatures (Kelvin)      8.86413     1.06770     0.97990
 Rotational constants (GHZ):         184.69871    22.24739    20.41783
 Zero-point vibrational energy      84046.3 (Joules/Mol)
                                   20.08755 (Kcal/Mol)
 Warning -- explicit consideration of   3 degrees of freedom as
           vibrations may cause significant error
 Vibrational temperatures:    466.64   607.04   889.17  1113.74  1810.96
          (Kelvin)           2124.78  4048.07  4350.18  4806.29

 Zero-point correction=                           0.032012 (Hartree/Particle)
 Thermal correction to Energy=                    0.035779
 Thermal correction to Enthalpy=                  0.036723
 Thermal correction to Gibbs Free Energy=         0.008135
 Sum of electronic and zero-point Energies=           -114.950027
 Sum of electronic and thermal Energies=              -114.946260
 Sum of electronic and thermal Enthalpies=            -114.945316
 Sum of electronic and thermal Free Energies=         -114.973904

                     E (Thermal)             CV                S
                      KCal/Mol        Cal/Mol-Kelvin    Cal/Mol-Kelvin
 Total                   22.451             10.951             60.169
 Electronic               0.000              0.000              2.183
 Translational            0.889              2.981             36.229
 Rotational               0.889              2.981             18.889
 Vibrational             20.674              4.989              2.868
 Vibration     1          0.709              1.627              1.288
 Vibration     2          0.784              1.423              0.885
 Vibration     3          0.978              0.994              0.420

 Normal termination of Gaussian 09 at Thu Mar  7 10:32:09 2019.
