 Gaussian 09, Revision E.01,
 Gaussian 09:  EM64L-G09RevE.01 30-Nov-2015

 ------------------------------------------------------
 #p b3lyp/6-311++G(3df,2p) freq IOp(2/17=3) IOp(2/18=3)
 ------------------------------------------------------

 ---------
 b3lyp opt
 ---------
 Symbolic Z-matrix:
 Charge = -1 Multiplicity = 3

                         Standard orientation:
 ---------------------------------------------------------------------
 Center     Atomic      Atomic             Coordinates (Angstroms)
 Number     Number       Type             X           Y           Z
 ---------------------------------------------------------------------
      1          6           0       -0.680308    0.026558   -0.059963
      2          1           0        1.097113    0.748494    0.012037
      3          1           0       -1.098477    1.007211    0.129590
      4          1           0       -1.243903   -0.873831    0.136600
      5          8           0        0.665889   -0.130153    0.010194
 ---------------------------------------------------------------------

 SCF Done:  E(UB3LYP) =  -115.086670328     A.U. after   18 cycles

 The electronic state is 3-A.
 Alpha  occ. eigenvalues --  -19.00474 -10.05974  -0.90600  -0.51936  -0.37852
 Alpha  occ. eigenvalues --   -0.30662  -0.24985  -0.20911  -0.02616   0.06942
 Alpha virt. eigenvalues --    0.10516   0.12305   0.17664   0.18095   0.21012
 Alpha virt. eigenvalues --    0.22699   0.27073   0.28255   0.31609   0.32948
 Alpha virt. eigenvalues --    0.33831   0.37747   0.38238   0.46103   0.47023

  Beta  occ. eigenvalues --  -18.99782 -10.04666  -0.89124  -0.49191  -0.36597
  Beta  occ. eigenvalues --   -0.29693  -0.20604  -0.20035
  Beta virt. eigenvalues --    0.10620   0.10908   0.12634   0.14148   0.18699
  Beta virt. eigenvalues --    0.20187   0.22171   0.23448   0.28124   0.29661
  Beta virt. eigenvalues --    0.32067   0.33332   0.34109   0.38446   0.39108

 Mulliken charges and spin densities:
               1          2
     1  C    1.947693  -1.132451
     2  H   -0.800615   1.078006
     3  H   -1.282462   1.413012
     4  H   -0.254096   0.349217
     5  O   -0.610521   0.292216
 Sum of Mulliken charges =  -1.00000   2.00000

 Dipole moment (field-independent basis, Debye):
    X=             -0.8657    Y=             -4.9003    Z=             -0.3430  Tot=              4.9880
 Quadrupole moment (field-independent basis, Debye-Ang):
   XX=            -38.0881   YY=            -39.4296   ZZ=            -28.3378
   XY=             -0.9650   XZ=              0.1192   YZ=             -1.3299

  Exact polarizability:1003.127 265.257 838.727 -38.834  24.480 133.786
 Approx polarizability: 851.012 125.224 453.248 -37.751  11.864 115.432

                      1                      2                      3
                      A                      A                      A
 Frequencies --    488.7725               501.9581              1062.4460
 Red. masses --      1.0893                 1.2819                 1.0867
 Frc consts  --      0.1533                 0.1903                 0.7227
 IR Inten    --    165.6165               280.3627               244.4111

                      4                      5                      6
                      A                      A                      A
 Frequencies --   1197.9896              1355.5869              1462.2404
 Red. masses --      5.1192                 1.2619                 1.1701
 Frc consts  --      4.3287                 1.3662                 1.4740
 IR Inten    --    904.0790               565.2201                87.0729

                      7                      8                      9
                      A                      A                      A
 Frequencies --   3078.5261              3228.1364              3413.1643
 Red. masses --      1.0465                 1.1228                 1.0653
 Frc consts  --      5.8433                 6.8935                 7.3122
 IR Inten    --     16.5639                62.5558             11235.4941

 - Thermochemistry -
 -------------------
 Temperature   298.150 Kelvin.  Pressure   1.00000 Atm.
 Atom     1 has atomic number  6 and mass  12.00000

 Molecular mass:    31.01839 amu.
 Principal axes and moments of inertia in atomic units:
                           1         2         3
     Eigenvalues --     9.43687  59.65516  68.57478
           X            0.99836   0.05426  -0.01838
           Y           -0.05417   0.99852   0.00544
           Z            0.01864  -0.00443   0.99982
 This molecule is an asymmetric top.
 Rotational symmetry number  1.
 Rotational temperatures (Kelvin)      9.17824     1.45191     1.26306
 Rotational constants (GHZ):         191.24366    30.25290    26.31786
 Zero-point vibrational energy      94438.1 (Joules/Mol)
                                   22.57125 (Kcal/Mol)
 Warning -- explicit consideration of   2 degrees of freedom as
           vibrations may cause significant error
 Vibrational temperatures:    703.23   722.20  1528.62  1723.64  1950.38
          (Kelvin)           2103.84  4429.31  4644.56  4910.78

 Zero-point correction=                           0.035970 (Hartree/Particle)
 Thermal correction to Energy=                    0.039318
 Thermal correction to Enthalpy=                  0.040262
 Thermal correction to Gibbs Free Energy=         0.012610
 Sum of electronic and zero-point Energies=           -115.050701
 Sum of electronic and thermal Energies=              -115.047353
 Sum of electronic and thermal Enthalpies=            -115.046408
 Sum of electronic and thermal Free Energies=         -115.074060

                     E (Thermal)             CV                S
                      KCal/Mol        Cal/Mol-Kelvin    Cal/Mol-Kelvin
 Total                   24.672              9.211             58.198
 Electronic               0.000              0.000              2.183
 Translational            0.889              2.981             36.229
 Rotational               0.889              2.981             18.296
 Vibrational             22.895              3.249              1.490
 Vibration     1          0.845              1.275              0.687
 Vibration     2          0.857              1.246              0.653

 Optimization completed.
    -- Stationary point found.
 Normal termination of Gaussian 09 at Thu Mar  7 10:32:12 2019.
