 Gaussian 09, Revision E.01,
 Gaussian 09:  EM64L-G09RevE.01 30-Nov-2015

 ------------------------------------------------------
 #p b3lyp/6-311++G(3df,2p) freq IOp(2/17=3) IOp(2/18=3)
 ------------------------------------------------------

 ---------
 b3lyp opt
 ---------
 Symbolic Z-matrix:
 Charge = -1 Multiplicity = 1

                         Standard orientation:
 ---------------------------------------------------------------------
 Center     Atomic      Atomic             Coordinates (Angstroms)
 Number     Number       Type             X           Y           Z
 ---------------------------------------------------------------------
      1          6           0        0.016914   -0.777803   -0.000000
      2          1           0        0.947516    0.932983   -0.000000
      3          1           0       -0.592159   -1.067031    0.877955
      4          1           0       -0.592159   -1.067031   -0.877955
      5          8           0        0.016914    0.733487   -0.000000
 ---------------------------------------------------------------------

 SCF Done:  E(RB3LYP) =  -115.100985515     A.U. after   14 cycles

 The electronic state is 1-A'.
 Alpha  occ. eigenvalues --  -18.89164  -9.93080  -0.76606  -0.39582  -0.22273
 Alpha  occ. eigenvalues --   -0.16946  -0.15831  -0.04599   0.05974
 Alpha virt. eigenvalues --    0.13706   0.15159   0.16970   0.21176   0.24070
 Alpha virt. eigenvalues --    0.24997   0.28111   0.32624   0.34375   0.36627
 Alpha virt. eigenvalues --    0.37191   0.37772   0.42035   0.43760   0.48985

 Mulliken charges:
               1
     1  C   -0.618432
     2  H    0.172276
     3  H    0.019990
     4  H    0.019990
     5  O   -0.593825
 Sum of Mulliken charges =  -1.00000

 Dipole moment (field-independent basis, Debye):
    X=             -0.7639    Y=              2.7999    Z=              0.0000  Tot=              2.9022
 Quadrupole moment (field-independent basis, Debye-Ang):
   XX=            -20.8408   YY=            -23.8857   ZZ=            -18.6713
   XY=              4.6543   XZ=             -0.0000   YZ=             -0.0000

  Exact polarizability:  76.797   0.645  53.608   0.000   0.000  44.711
 Approx polarizability:  75.157   1.860  56.335   0.000  -0.000  52.120

                      1                      2                      3
                     A"                     A'                     A'
 Frequencies --    352.7197               771.1344               978.4832
 Red. masses --      1.0669                 8.5105                 1.1718
 Frc consts  --      0.0782                 2.9817                 0.6610
 IR Inten    --    119.6344                95.9098                98.3570

                      4                      5                      6
                     A"                     A'                     A'
 Frequencies --   1175.6198              1191.0071              1450.8578
 Red. masses --      1.1264                 1.2067                 1.0546
 Frc consts  --      0.9172                 1.0085                 1.3079
 IR Inten    --      0.7841                49.7988                 4.5259

                      7                      8                      9
                     A'                     A"                     A'
 Frequencies --   2822.1973              2857.0030              3938.6736
 Red. masses --      1.0472                 1.1069                 1.0676
 Frc consts  --      4.9141                 5.3233                 9.7576
 IR Inten    --    703.6109               234.9481               234.7574

 - Thermochemistry -
 -------------------
 Temperature   298.150 Kelvin.  Pressure   1.00000 Atm.
 Atom     1 has atomic number  6 and mass  12.00000

 Molecular mass:    31.01839 amu.
 Principal axes and moments of inertia in atomic units:
                           1         2         3
     Eigenvalues --    10.34972  73.59816  74.34497
           X            0.12349   0.00000   0.99235
           Y            0.99235   0.00000  -0.12349
           Z           -0.00000   1.00000  -0.00000
 This molecule is an asymmetric top.
 Rotational symmetry number  1.
 Rotational temperatures (Kelvin)      8.36871     1.17685     1.16503
 Rotational constants (GHZ):         174.37585    24.52155    24.27523
 Zero-point vibrational energy      92936.1 (Joules/Mol)
                                   22.21225 (Kcal/Mol)
 Warning -- explicit consideration of   1 degrees of freedom as
           vibrations may cause significant error
 Vibrational temperatures:    507.48  1109.49  1407.82  1691.45  1713.59
          (Kelvin)           2087.46  4060.51  4110.58  5666.87

 Zero-point correction=                           0.035397 (Hartree/Particle)
 Thermal correction to Energy=                    0.038757
 Thermal correction to Enthalpy=                  0.039702
 Thermal correction to Gibbs Free Energy=         0.012858
 Sum of electronic and zero-point Energies=           -115.065588
 Sum of electronic and thermal Energies=              -115.062228
 Sum of electronic and thermal Enthalpies=            -115.061284
 Sum of electronic and thermal Free Energies=         -115.088128

                     E (Thermal)             CV                S
                      KCal/Mol        Cal/Mol-Kelvin    Cal/Mol-Kelvin
 Total                   24.321              9.154             56.497
 Electronic               0.000              0.000              0.000
 Translational            0.889              2.981             36.229
 Rotational               0.889              2.981             18.677
 Vibrational             22.543              3.192              1.591
 Vibration     1          0.729              1.570              1.154

 Optimization completed.
    -- Stationary point found.
 Normal termination of Gaussian 09 at Fri Mar  8 06:15:01 2019.
