 Gaussian 09, Revision E.01,
 Gaussian 09:  EM64L-G09RevE.01 30-Nov-2015

 ------------------------------------------------------
 #p b3lyp/6-311++G(3df,2p) freq IOp(2/17=3) IOp(2/18=3)
 ------------------------------------------------------

 ---------
 b3lyp opt
 ---------
 Symbolic Z-matrix:
 Charge = -1 Multiplicity = 3

                         Standard orientation:
 ---------------------------------------------------------------------
 Center     Atomic      Atomic             Coordinates (Angstroms)
 Number     Number       Type             X           Y           Z
 ---------------------------------------------------------------------
      1          6           0        0.012749   -0.568098   -0.000000
      2          1           0        0.439340   -1.016659    0.910497
      3          1           0       -1.057756   -0.879733   -0.000000
      4          1           0        0.439340   -1.016659   -0.910497
      5          8           0        0.012749    0.790180    0.000000
 ---------------------------------------------------------------------

 SCF Done:  E(UB3LYP) =  -115.075420598     A.U. after   16 cycles

 The electronic state is 3-A'.
 Alpha  occ. eigenvalues --  -19.03203 -10.07560  -0.89328  -0.53059  -0.34217
 Alpha  occ. eigenvalues --   -0.32073  -0.30508  -0.19066  -0.15279   0.06495
 Alpha virt. eigenvalues --    0.11564   0.11614   0.14516   0.19739   0.20544
 Alpha virt. eigenvalues --    0.22517   0.28087   0.28856   0.30073   0.32589
 Alpha virt. eigenvalues --    0.32737   0.34073   0.36673   0.44804   0.45747

  Beta  occ. eigenvalues --  -19.00901 -10.07481  -0.84241  -0.50913  -0.31353
  Beta  occ. eigenvalues --   -0.29080  -0.28346  -0.13329
  Beta virt. eigenvalues --   -0.00904   0.10683   0.13751   0.14070   0.15055
  Beta virt. eigenvalues --    0.20469   0.21058   0.23156   0.28246   0.29752
  Beta virt. eigenvalues --    0.30685   0.33840   0.34036   0.34250   0.37041

 Mulliken charges and spin densities:
               1          2
     1  C    3.612969  -3.631285
     2  H   -1.221207   1.375955
     3  H   -1.512743   1.796852
     4  H   -1.221207   1.375955
     5  O   -0.657811   1.082523
 Sum of Mulliken charges =  -1.00000   2.00000

 Dipole moment (field-independent basis, Debye):
    X=              1.0079    Y=              5.8090    Z=             -0.0000  Tot=              5.8958
 Quadrupole moment (field-independent basis, Debye-Ang):
   XX=            -37.7891   YY=            -41.4495   ZZ=            -37.8614
   XY=             -1.0084   XZ=              0.0000   YZ=              0.0000

  Exact polarizability: 777.082 -50.507 252.459  -0.000  -0.000 827.470
 Approx polarizability: 661.591 -39.922 190.744  -0.000   0.000 645.588

                      1                      2                      3
                     A"                     A'                     A'
 Frequencies --    619.4632               949.1926              1096.3253
 Red. masses --      1.3167                 1.5581                 3.8802
 Frc consts  --      0.2977                 0.8271                 2.7478
 IR Inten    --   1841.7815                83.2474                49.4189

                      4                      5                      6
                     A'                     A"                     A'
 Frequencies --   1322.5212              1330.0068              1499.9489
 Red. masses --      1.0984                 1.0402                 1.1083
 Frc consts  --      1.1320                 1.0841                 1.4691
 IR Inten    --    512.6946               725.4157               478.3182

                      7                      8                      9
                     A'                     A'                     A"
 Frequencies --   2778.9961              2893.9365              2958.5101
 Red. masses --      1.0522                 1.0604                 1.0983
 Frc consts  --      4.7876                 5.2326                 5.6641
 IR Inten    --     54.3449                 3.3895                22.3271

 - Thermochemistry -
 -------------------
 Temperature   298.150 Kelvin.  Pressure   1.00000 Atm.
 Atom     1 has atomic number  6 and mass  12.00000

 Molecular mass:    31.01839 amu.
 Principal axes and moments of inertia in atomic units:
                           1         2         3
     Eigenvalues --    11.39378  64.18944  64.73005
           X            0.00638   0.00000   0.99998
           Y            0.99998   0.00000  -0.00638
           Z            0.00000   1.00000   0.00000
 This molecule is an asymmetric top.
 Rotational symmetry number  1.
 Rotational temperatures (Kelvin)      7.60185     1.34935     1.33808
 Rotational constants (GHZ):         158.39703    28.11586    27.88104
 Zero-point vibrational energy      92404.9 (Joules/Mol)
                                   22.08531 (Kcal/Mol)
 Warning -- explicit consideration of   1 degrees of freedom as
           vibrations may cause significant error
 Vibrational temperatures:    891.27  1365.67  1577.37  1902.81  1913.58
          (Kelvin)           2158.09  3998.35  4163.72  4256.63

 Zero-point correction=                           0.035195 (Hartree/Particle)
 Thermal correction to Energy=                    0.038272
 Thermal correction to Enthalpy=                  0.039217
 Thermal correction to Gibbs Free Energy=         0.011865
 Sum of electronic and zero-point Energies=           -115.040225
 Sum of electronic and thermal Energies=              -115.037148
 Sum of electronic and thermal Enthalpies=            -115.036204
 Sum of electronic and thermal Free Energies=         -115.063556

                     E (Thermal)             CV                S
                      KCal/Mol        Cal/Mol-Kelvin    Cal/Mol-Kelvin
 Total                   24.016              8.019             57.567
 Electronic               0.000              0.000              2.183
 Translational            0.889              2.981             36.229
 Rotational               0.889              2.981             18.499
 Vibrational             22.239              2.058              0.656
 Vibration     1          0.979              0.991              0.417

 Optimization completed.
    -- Stationary point found.
 Normal termination of Gaussian 09 at Thu Mar  7 10:30:45 2019.
