 Gaussian 09, Revision E.01,
 Gaussian 09:  EM64L-G09RevE.01 30-Nov-2015

 ------------------------------------------------------
 #p b3lyp/6-311++G(3df,2p) freq IOp(2/17=3) IOp(2/18=3)
 ------------------------------------------------------

 ---------
 b3lyp opt
 ---------
 Symbolic Z-matrix:
 Charge = -1 Multiplicity = 2

                         Standard orientation:
 ---------------------------------------------------------------------
 Center     Atomic      Atomic             Coordinates (Angstroms)
 Number     Number       Type             X           Y           Z
 ---------------------------------------------------------------------
      1          6           0       -0.000000    0.430333   -0.000000
      2          6           0        1.219601   -0.100732   -0.000000
      3          1           0        2.080165    0.561087   -0.000000
      4          1           0       -1.064029   -1.176525    0.000000
      5          1           0       -0.151522    1.500430   -0.000000
      6          1           0        1.403522   -1.164906    0.000000
      7          8           0       -1.198217   -0.212211    0.000000
 ---------------------------------------------------------------------

 SCF Done:  E(UB3LYP) =  -153.850718621     A.U. after   22 cycles

 The electronic state is 2-A'.
 Alpha  occ. eigenvalues --  -19.01162 -10.08752 -10.01126  -0.91711  -0.61136
 Alpha  occ. eigenvalues --   -0.47997  -0.35785  -0.34228  -0.25426  -0.24485
 Alpha  occ. eigenvalues --   -0.23155  -0.09942   0.06709
 Alpha virt. eigenvalues --    0.09298   0.10816   0.12896   0.14616   0.17373
 Alpha virt. eigenvalues --    0.17746   0.20217   0.21800   0.22674   0.22931
 Alpha virt. eigenvalues --    0.24580   0.25571   0.26584   0.29760   0.31634

  Beta  occ. eigenvalues --  -19.01073 -10.08734 -10.01062  -0.91536  -0.61036
  Beta  occ. eigenvalues --   -0.47807  -0.35595  -0.34111  -0.25357  -0.24371
  Beta  occ. eigenvalues --   -0.23033  -0.09882
  Beta virt. eigenvalues --    0.10191   0.11613   0.12000   0.14355   0.14614
  Beta virt. eigenvalues --    0.17690   0.18120   0.20620   0.22401   0.22978
  Beta virt. eigenvalues --    0.23143   0.24931   0.25723   0.26962   0.29787

 Mulliken charges and spin densities:
               1          2
     1  C    0.728809  -0.459344
     2  C    1.143674  -1.524753
     3  H   -0.335574   0.451132
     4  H   -0.442300   0.724262
     5  H   -0.559400   0.700581
     6  H   -0.983559   1.121659
     7  O   -0.551650  -0.013536
 Sum of Mulliken charges =  -1.00000   1.00000

 Dipole moment (field-independent basis, Debye):
    X=             -1.6843    Y=              3.0623    Z=             -0.0000  Tot=              3.4949
 Quadrupole moment (field-independent basis, Debye-Ang):
   XX=            -46.8219   YY=            -50.1051   ZZ=            -36.0449
   XY=             -3.7524   XZ=              0.0000   YZ=              0.0000

  Exact polarizability:1363.286  65.8311870.233   0.000  -0.000 156.668
 Approx polarizability:1049.304 526.1741591.102  -0.000  -0.000 142.380

                      1                      2                      3
                     A"                     A'                     A"
 Frequencies --    451.6094               478.0826               689.9009
 Red. masses --      1.1256                 2.0974                 1.5214
 Frc consts  --      0.1353                 0.2824                 0.4266
 IR Inten    --    175.8295               261.9942                 1.3616

                      4                      5                      6
                     A"                     A'                     A"
 Frequencies --    832.4366               931.8031               990.2652
 Red. masses --      1.3822                 1.7273                 1.1390
 Frc consts  --      0.5643                 0.8836                 0.6581
 IR Inten    --    161.7804               327.4012               144.5238

                      7                      8                      9
                     A'                     A'                     A'
 Frequencies --   1085.9695              1308.9746              1352.3409
 Red. masses --      2.2205                 1.4333                 1.2545
 Frc consts  --      1.5429                 1.4469                 1.3517
 IR Inten    --   1512.7758               490.7266               110.3018

                     10                     11                     12
                     A'                     A'                     A'
 Frequencies --   1428.5993              1660.6148              3089.1744
 Red. masses --      1.1507                 4.4048                 1.0645
 Frc consts  --      1.3836                 7.1567                 5.9854
 IR Inten    --    584.5098              1699.5148               274.0448

                     13                     14                     15
                     A'                     A'                     A'
 Frequencies --   3181.2619              3205.1516              3535.5405
 Red. masses --      1.0911                 1.1101                 1.0652
 Frc consts  --      6.5058                 6.7188                 7.8449
 IR Inten    --   1214.5244               229.6974              9499.3882

 - Thermochemistry -
 -------------------
 Temperature   298.150 Kelvin.  Pressure   1.00000 Atm.
 Atom     1 has atomic number  6 and mass  12.00000

 Molecular mass:    44.02621 amu.
 Principal axes and moments of inertia in atomic units:
                           1         2         3
     Eigenvalues --    29.14267 173.05384 202.19651
           X            0.99689  -0.07886   0.00000
           Y            0.07886   0.99689   0.00000
           Z           -0.00000  -0.00000   1.00000
 This molecule is an asymmetric top.
 Rotational symmetry number  1.
 Rotational temperatures (Kelvin)      2.97206     0.50050     0.42836
 Rotational constants (GHZ):          61.92780    10.42878     8.92568
 Zero-point vibrational energy     144878.1 (Joules/Mol)
                                   34.62669 (Kcal/Mol)
 Warning -- explicit consideration of   2 degrees of freedom as
           vibrations may cause significant error
 Vibrational temperatures:    649.76   687.85   992.61  1197.69  1340.66
          (Kelvin)           1424.77  1562.47  1883.32  1945.71  2055.43
                             2389.25  4444.63  4577.12  4611.49  5086.85

 Zero-point correction=                           0.055181 (Hartree/Particle)
 Thermal correction to Energy=                    0.058845
 Thermal correction to Enthalpy=                  0.059789
 Thermal correction to Gibbs Free Energy=         0.030063
 Sum of electronic and zero-point Energies=           -153.795537
 Sum of electronic and thermal Energies=              -153.791874
 Sum of electronic and thermal Enthalpies=            -153.790930
 Sum of electronic and thermal Free Energies=         -153.820655

                     E (Thermal)             CV                S
                      KCal/Mol        Cal/Mol-Kelvin    Cal/Mol-Kelvin
 Total                   36.926             11.610             62.563
 Electronic               0.000              0.000              1.377
 Translational            0.889              2.981             37.273
 Rotational               0.889              2.981             21.549
 Vibrational             35.148              5.648              2.363
 Vibration     1          0.810              1.357              0.791
 Vibration     2          0.835              1.299              0.715

 Optimization completed.
    -- Stationary point found.
 Normal termination of Gaussian 09 at Fri Mar  8 06:21:26 2019.
