 Gaussian 09, Revision E.01,
 Gaussian 09:  EM64L-G09RevE.01 30-Nov-2015

 ------------------------------------------------------
 #p b3lyp/6-311++G(3df,2p) freq IOp(2/17=3) IOp(2/18=3)
 ------------------------------------------------------

 ---------
 b3lyp opt
 ---------
 Symbolic Z-matrix:
 Charge = -1 Multiplicity = 2

                         Standard orientation:
 ---------------------------------------------------------------------
 Center     Atomic      Atomic             Coordinates (Angstroms)
 Number     Number       Type             X           Y           Z
 ---------------------------------------------------------------------
      1          6           0        0.928252    0.446578   -0.000161
      2          6           0       -0.582010    0.653884    0.000304
      3          6           0        1.501701   -0.753107    0.000285
      4          1           0       -0.553933   -1.244942   -0.000578
      5          1           0       -0.897072    1.234447    0.882922
      6          1           0       -0.897232    1.235863   -0.881339
      7          1           0        1.501463    1.391998   -0.001515
      8          8           0       -1.280111   -0.587687   -0.000257
 ---------------------------------------------------------------------

 SCF Done:  E(UB3LYP) =  -191.905806002     A.U. after   18 cycles

 The electronic state is 2-A.
 Alpha  occ. eigenvalues --  -18.94403 -10.04716  -9.95501  -9.94356  -0.84398
 Alpha  occ. eigenvalues --   -0.56531  -0.47830  -0.33121  -0.28787  -0.27825
 Alpha  occ. eigenvalues --   -0.25606  -0.16597  -0.10944  -0.05915  -0.04804
 Alpha  occ. eigenvalues --    0.02721
 Alpha virt. eigenvalues --    0.11326   0.13613   0.14028   0.15209   0.19533
 Alpha virt. eigenvalues --    0.20094   0.20467   0.20881   0.23039   0.24305
 Alpha virt. eigenvalues --    0.25443   0.25688   0.26154   0.27552   0.28595

  Beta  occ. eigenvalues --  -18.94319 -10.04539  -9.95665  -9.93189  -0.84170
  Beta  occ. eigenvalues --   -0.55790  -0.46634  -0.31972  -0.27800  -0.27752
  Beta  occ. eigenvalues --   -0.24919  -0.16036  -0.10883  -0.04367  -0.03891
  Beta virt. eigenvalues --    0.10927   0.13401   0.13921   0.14683   0.15680
  Beta virt. eigenvalues --    0.19503   0.20285   0.20675   0.21299   0.22960
  Beta virt. eigenvalues --    0.24384   0.25584   0.26016   0.26940   0.27803

 Mulliken charges and spin densities:
               1          2
     1  C   -0.102336  -0.094681
     2  C    0.413989  -0.158636
     3  C   -0.899046   1.010186
     4  H    0.229866   0.067837
     5  H    0.042394   0.031488
     6  H    0.042355   0.031532
     7  H   -0.017583   0.095390
     8  O   -0.709640   0.016885
 Sum of Mulliken charges =  -1.00000   1.00000

 Dipole moment (field-independent basis, Debye):
    X=             -3.7457    Y=              3.4400    Z=             -0.0012  Tot=              5.0856
 Quadrupole moment (field-independent basis, Debye-Ang):
   XX=            -45.3870   YY=            -34.2819   ZZ=            -31.0507
   XY=              4.5675   XZ=             -0.0038   YZ=              0.0014

  Exact polarizability:  85.807 -10.886  94.143   0.001  -0.018  53.414
 Approx polarizability: 100.085 -15.031 119.419   0.004  -0.017  70.678

                      1                      2                      3
                      A                      A                      A
 Frequencies --    181.4004               287.3628               523.3961
 Red. masses --      2.0331                 6.8349                 1.0736
 Frc consts  --      0.0394                 0.3325                 0.1733
 IR Inten    --      2.3234                54.5684                48.8282

                      4                      5                      6
                      A                      A                      A
 Frequencies --    621.2170               647.3246               856.1496
 Red. masses --      1.3245                 5.4775                 3.6589
 Frc consts  --      0.3012                 1.3523                 1.5802
 IR Inten    --      6.9933                25.1147                21.5882

                      7                      8                      9
                      A                      A                      A
 Frequencies --   1017.1029              1044.3501              1152.0359
 Red. masses --      1.6081                 5.3688                 1.2012
 Frc consts  --      0.9802                 3.4500                 0.9393
 IR Inten    --     14.0968                37.2408                14.9444

                     10                     11                     12
                      A                      A                      A
 Frequencies --   1220.2832              1286.6890              1444.0773
 Red. masses --      1.0806                 1.3152                 1.2359
 Frc consts  --      0.9481                 1.2829                 1.5185
 IR Inten    --      2.6820                11.8845                83.7808

                     13                     14                     15
                      A                      A                      A
 Frequencies --   1507.4424              1558.6565              2845.8243
 Red. masses --      1.1023                 5.2281                 1.0759
 Frc consts  --      1.4758                 7.4833                 5.1337
 IR Inten    --      3.3299                18.1168               284.1713

                     16                     17                     18
                      A                      A                      A
 Frequencies --   2890.8780              2900.3822              3462.9678
 Red. masses --      1.1064                 1.0534                 1.0657
 Frc consts  --      5.4478                 5.2211                 7.5301
 IR Inten    --    113.2515               277.4868               224.6356

 - Thermochemistry -
 -------------------
 Temperature   298.150 Kelvin.  Pressure   1.00000 Atm.
 Atom     1 has atomic number  6 and mass  12.00000

 Molecular mass:    56.02621 amu.
 Principal axes and moments of inertia in atomic units:
                           1         2         3
     Eigenvalues --    99.58471 262.26565 350.64799
           X            0.99993   0.01149  -0.00005
           Y           -0.01149   0.99993  -0.00003
           Z            0.00005   0.00003   1.00000
 This molecule is an asymmetric top.
 Rotational symmetry number  1.
 Rotational temperatures (Kelvin)      0.86975     0.33025     0.24701
 Rotational constants (GHZ):          18.12267     6.88135     5.14687
 Zero-point vibrational energy     152210.1 (Joules/Mol)
                                   36.37908 (Kcal/Mol)
 Warning -- explicit consideration of   3 degrees of freedom as
           vibrations may cause significant error
 Vibrational temperatures:    260.99   413.45   753.05   893.79   931.35
          (Kelvin)           1231.81  1463.38  1502.59  1657.52  1755.71
                             1851.26  2077.70  2168.87  2242.56  4094.50
                             4159.32  4173.00  4982.43

 Zero-point correction=                           0.057974 (Hartree/Particle)
 Thermal correction to Energy=                    0.062516
 Thermal correction to Enthalpy=                  0.063460
 Thermal correction to Gibbs Free Energy=         0.030781
 Sum of electronic and zero-point Energies=           -191.847832
 Sum of electronic and thermal Energies=              -191.843290
 Sum of electronic and thermal Enthalpies=            -191.842346
 Sum of electronic and thermal Free Energies=         -191.875025

                     E (Thermal)             CV                S
                      KCal/Mol        Cal/Mol-Kelvin    Cal/Mol-Kelvin
 Total                   39.230             14.706             68.779
 Electronic               0.000              0.000              1.377
 Translational            0.889              2.981             37.991
 Rotational               0.889              2.981             23.731
 Vibrational             37.452              8.745              5.680
 Vibration     1          0.630              1.865              2.314
 Vibration     2          0.685              1.697              1.489
 Vibration     3          0.878              1.198              0.602

 Normal termination of Gaussian 09 at Thu Mar  7 11:10:44 2019.
