 Gaussian 09, Revision E.01,
 Gaussian 09:  EM64L-G09RevE.01 30-Nov-2015

 ------------------------------------------------------
 #p b3lyp/6-311++G(3df,2p) freq IOp(2/17=3) IOp(2/18=3)
 ------------------------------------------------------

 ---------
 b3lyp opt
 ---------
 Symbolic Z-matrix:
 Charge = -1 Multiplicity = 4

                         Standard orientation:
 ---------------------------------------------------------------------
 Center     Atomic      Atomic             Coordinates (Angstroms)
 Number     Number       Type             X           Y           Z
 ---------------------------------------------------------------------
      1          6           0        1.818533   -0.278659   -0.284188
      2          6           0       -0.666353   -0.370967    0.147149
      3          6           0        0.613579    0.424546    0.162873
      4          1           0       -0.595307   -1.383728    0.582836
      5          1           0        0.429717    1.343249   -0.408879
      6          1           0        2.874232   -0.208550   -0.027014
      7          1           0        0.832000    0.776873    1.214497
      8          8           0       -1.766899    0.102830   -0.189555
 ---------------------------------------------------------------------

 SCF Done:  E(UB3LYP) =  -191.847360338     A.U. after   23 cycles

 The electronic state is 4-A.
 Alpha  occ. eigenvalues --  -18.93709 -10.07026 -10.05742 -10.03868  -0.85245
 Alpha  occ. eigenvalues --   -0.63757  -0.48248  -0.41128  -0.30979  -0.30474
 Alpha  occ. eigenvalues --   -0.27457  -0.24577  -0.20469  -0.11456  -0.08782
 Alpha  occ. eigenvalues --   -0.07078   0.06342
 Alpha virt. eigenvalues --    0.09928   0.11562   0.12367   0.13163   0.17412
 Alpha virt. eigenvalues --    0.18684   0.19842   0.20087   0.20704   0.22986
 Alpha virt. eigenvalues --    0.23231   0.23658   0.24464   0.25298   0.26318

  Beta  occ. eigenvalues --  -18.93252 -10.06513 -10.03928 -10.02936  -0.84337
  Beta  occ. eigenvalues --   -0.61330  -0.43723  -0.38878  -0.29433  -0.28400
  Beta  occ. eigenvalues --   -0.26225  -0.23474  -0.17626  -0.08934
  Beta virt. eigenvalues --    0.05945   0.08631   0.10962   0.12428   0.12722
  Beta virt. eigenvalues --    0.13644   0.14322   0.17429   0.20324   0.20571
  Beta virt. eigenvalues --    0.20830   0.21776   0.23404   0.23733   0.24455

 Mulliken charges and spin densities:
               1          2
     1  C    0.284810   1.288045
     2  C    0.277743   0.239163
     3  C    0.824912  -1.006973
     4  H    0.015392   0.044799
     5  H   -0.009068   0.194508
     6  H   -1.334619   1.539670
     7  H   -0.326409   0.535134
     8  O   -0.732760   0.165654
 Sum of Mulliken charges =  -1.00000   3.00000

 Dipole moment (field-independent basis, Debye):
    X=             -4.2431    Y=             -0.7525    Z=             -0.8687  Tot=              4.3960
 Quadrupole moment (field-independent basis, Debye-Ang):
   XX=            -70.4571   YY=            -36.9280   ZZ=            -39.2971
   XY=             -0.6277   XZ=             -5.8491   YZ=             -3.1534

  Exact polarizability: 690.503 -78.354 297.326 -77.796 133.752 383.520
 Approx polarizability:1114.661  37.442 227.618  79.744  90.429 279.848

                      1                      2                      3
                      A                      A                      A
 Frequencies --     98.9831               274.3831               340.7842
 Red. masses --      2.9196                 1.1867                 2.8644
 Frc consts  --      0.0169                 0.0526                 0.1960
 IR Inten    --    122.7281               259.4119               101.6132

                      4                      5                      6
                      A                      A                      A
 Frequencies --    496.9200               665.7814               724.2067
 Red. masses --      3.3960                 1.4854                 1.4226
 Frc consts  --      0.4941                 0.3879                 0.4396
 IR Inten    --     16.2740               167.9675               384.9114

                      7                      8                      9
                      A                      A                      A
 Frequencies --    891.8662              1007.1239              1081.6330
 Red. masses --      1.6003                 2.7816                 3.7760
 Frc consts  --      0.7500                 1.6623                 2.6028
 IR Inten    --   1801.0701               157.0066                 1.5161

                     10                     11                     12
                      A                      A                      A
 Frequencies --   1130.4726              1237.4517              1331.2525
 Red. masses --      1.3216                 1.4580                 1.3544
 Frc consts  --      0.9951                 1.3154                 1.4142
 IR Inten    --    588.4041               226.7099              1601.2521

                     13                     14                     15
                      A                      A                      A
 Frequencies --   1384.5368              1535.1302              2562.8685
 Red. masses --      1.0756                 3.8454                 1.0670
 Frc consts  --      1.2148                 5.3393                 4.1292
 IR Inten    --    408.5489              3954.8224              3550.9651

                     16                     17                     18
                      A                      A                      A
 Frequencies --   2891.7494              2959.5583              3075.4199
 Red. masses --      1.0798                 1.0780                 1.0913
 Frc consts  --      5.3201                 5.5634                 6.0812
 IR Inten    --     67.8898                38.3823                79.1149

 - Thermochemistry -
 -------------------
 Temperature   298.150 Kelvin.  Pressure   1.00000 Atm.
 Atom     1 has atomic number  6 and mass  12.00000

 Molecular mass:    56.02621 amu.
 Principal axes and moments of inertia in atomic units:
                           1         2         3
     Eigenvalues --    47.75983 403.15429 421.93742
           X            0.99988   0.01508   0.00367
           Y           -0.01477   0.99721  -0.07318
           Z           -0.00476   0.07311   0.99731
 This molecule is an asymmetric top.
 Rotational symmetry number  1.
 Rotational temperatures (Kelvin)      1.81353     0.21484     0.20528
 Rotational constants (GHZ):          37.78785     4.47655     4.27727
 Zero-point vibrational energy     141698.4 (Joules/Mol)
                                   33.86673 (Kcal/Mol)
 Warning -- explicit consideration of   4 degrees of freedom as
           vibrations may cause significant error
 Vibrational temperatures:    142.41   394.78   490.31   714.96   957.91
          (Kelvin)           1041.97  1283.19  1449.02  1556.23  1626.50
                             1780.41  1915.37  1992.04  2208.71  3687.39
                             4160.58  4258.14  4424.84

 Zero-point correction=                           0.053970 (Hartree/Particle)
 Thermal correction to Energy=                    0.058998
 Thermal correction to Enthalpy=                  0.059942
 Thermal correction to Gibbs Free Energy=         0.025567
 Sum of electronic and zero-point Energies=           -191.793390
 Sum of electronic and thermal Energies=              -191.788363
 Sum of electronic and thermal Enthalpies=            -191.787418
 Sum of electronic and thermal Free Energies=         -191.821794

                     E (Thermal)             CV                S
                      KCal/Mol        Cal/Mol-Kelvin    Cal/Mol-Kelvin
 Total                   37.022             16.089             72.349
 Electronic               0.000              0.000              2.755
 Translational            0.889              2.981             37.991
 Rotational               0.889              2.981             23.611
 Vibrational             35.244             10.128              7.991
 Vibration     1          0.604              1.950              3.474
 Vibration     2          0.677              1.721              1.568
 Vibration     3          0.720              1.594              1.208
 Vibration     4          0.852              1.257              0.666

 Normal termination of Gaussian 09 at Thu Mar  7 12:00:39 2019.
