 Gaussian 09, Revision E.01,
 Gaussian 09:  EM64L-G09RevE.01 30-Nov-2015

 ------------------------------------------------------
 #p b3lyp/6-311++G(3df,2p) freq IOp(2/17=3) IOp(2/18=3)
 ------------------------------------------------------

 ---------
 b3lyp opt
 ---------
 Symbolic Z-matrix:
 Charge = -1 Multiplicity = 4

                         Standard orientation:
 ---------------------------------------------------------------------
 Center     Atomic      Atomic             Coordinates (Angstroms)
 Number     Number       Type             X           Y           Z
 ---------------------------------------------------------------------
      1          6           0        2.152114    0.117434   -0.108626
      2          6           0       -0.403186    0.464060    0.068122
      3          6           0        0.789761   -0.386078    0.068376
      4          1           0       -2.310784    0.133602    0.361790
      5          1           0       -0.483796    0.968568    1.069597
      6          1           0       -0.275454    1.287724   -0.645276
      7          1           0        0.612540   -1.412544    0.405937
      8          8           0       -1.596830   -0.268731   -0.169910
 ---------------------------------------------------------------------

 SCF Done:  E(UB3LYP) =  -191.779962850     A.U. after   24 cycles

 The electronic state is 4-A.
 Alpha  occ. eigenvalues --  -18.99211 -10.08875 -10.06684 -10.03305  -0.88986
 Alpha  occ. eigenvalues --   -0.64924  -0.51650  -0.41004  -0.37295  -0.32060
 Alpha  occ. eigenvalues --   -0.29132  -0.22186  -0.16831  -0.13168  -0.12834
 Alpha  occ. eigenvalues --   -0.03959   0.05308
 Alpha virt. eigenvalues --    0.09195   0.11926   0.11960   0.13276   0.17167
 Alpha virt. eigenvalues --    0.18389   0.19136   0.19968   0.21180   0.22137
 Alpha virt. eigenvalues --    0.22485   0.24067   0.24694   0.24745   0.26127

  Beta  occ. eigenvalues --  -18.99060 -10.08747 -10.05785 -10.01271  -0.88591
  Beta  occ. eigenvalues --   -0.62034  -0.48524  -0.39225  -0.35215  -0.30480
  Beta  occ. eigenvalues --   -0.27748  -0.21159  -0.15280  -0.09605
  Beta virt. eigenvalues --   -0.00375   0.09858   0.10610   0.12011   0.13165
  Beta virt. eigenvalues --    0.13528   0.16249   0.17584   0.18752   0.20333
  Beta virt. eigenvalues --    0.20865   0.22121   0.22825   0.23743   0.24287

 Mulliken charges and spin densities:
               1          2
     1  C   -0.719308   1.568082
     2  C    2.177604  -2.040435
     3  C   -0.423754   1.216913
     4  H   -0.520478   0.801688
     5  H   -0.937685   1.166359
     6  H    0.063193   0.096592
     7  H    0.095031   0.058222
     8  O   -0.734603   0.132580
 Sum of Mulliken charges =  -1.00000   3.00000

 Dipole moment (field-independent basis, Debye):
    X=              0.1754    Y=             -2.2082    Z=             -2.2557  Tot=              3.1615
 Quadrupole moment (field-independent basis, Debye-Ang):
   XX=            -69.6348   YY=            -38.2758   ZZ=            -40.6152
   XY=             -0.3897   XZ=              4.8826   YZ=             -4.8340

  Exact polarizability: 667.609  16.805 229.387 -17.736  83.086 257.804
 Approx polarizability: 989.923 -61.325 210.490-126.182  81.884 238.632

                      1                      2                      3
                      A                      A                      A
 Frequencies --    144.5534               296.8765               318.1533
 Red. masses --      4.1217                 1.6061                 2.0251
 Frc consts  --      0.0507                 0.0834                 0.1208
 IR Inten    --     76.4432               157.2368                43.8421

                      4                      5                      6
                      A                      A                      A
 Frequencies --    456.8280               491.7742               760.2711
 Red. masses --      6.6466                 1.2377                 2.0565
 Frc consts  --      0.8173                 0.1764                 0.7004
 IR Inten    --    183.5217               193.4502               889.4522

                      7                      8                      9
                      A                      A                      A
 Frequencies --    934.3376              1046.7579              1089.0869
 Red. masses --      2.4536                 7.9460                 2.4357
 Frc consts  --      1.2620                 5.1297                 1.7021
 IR Inten    --   1623.7316               196.3924              1545.8437

                     10                     11                     12
                      A                      A                      A
 Frequencies --   1158.3258              1234.5836              1295.6034
 Red. masses --      1.1090                 1.3516                 1.1976
 Frc consts  --      0.8767                 1.2138                 1.1844
 IR Inten    --     20.5912               438.3607               456.9621

                     13                     14                     15
                      A                      A                      A
 Frequencies --   1392.9896              1419.2756              2649.1796
 Red. masses --      1.4558                 1.0850                 1.0649
 Frc consts  --      1.6644                 1.2878                 4.4033
 IR Inten    --    267.3729                66.7791               864.4438

                     16                     17                     18
                      A                      A                      A
 Frequencies --   2971.7319              3006.4111              3478.7114
 Red. masses --      1.0782                 1.0821                 1.0656
 Frc consts  --      5.6099                 5.7625                 7.5978
 IR Inten    --      8.4195                17.8186              1885.1957

 - Thermochemistry -
 -------------------
 Temperature   298.150 Kelvin.  Pressure   1.00000 Atm.
 Atom     1 has atomic number  6 and mass  12.00000

 Molecular mass:    56.02621 amu.
 Principal axes and moments of inertia in atomic units:
                           1         2         3
     Eigenvalues --    45.83156 408.37175 436.04680
           X            0.99976  -0.02025  -0.00821
           Y            0.01994   0.99915  -0.03600
           Z            0.00893   0.03583   0.99932
 This molecule is an asymmetric top.
 Rotational symmetry number  1.
 Rotational temperatures (Kelvin)      1.88983     0.21210     0.19863
 Rotational constants (GHZ):          39.37770     4.41936     4.13887
 Zero-point vibrational energy     144421.9 (Joules/Mol)
                                   34.51765 (Kcal/Mol)
 Warning -- explicit consideration of   5 degrees of freedom as
           vibrations may cause significant error
 Vibrational temperatures:    207.98   427.14   457.75   657.27   707.55
          (Kelvin)           1093.86  1344.30  1506.05  1566.95  1666.57
                             1776.29  1864.08  2004.20  2042.02  3811.57
                             4275.65  4325.55  5005.08

 Zero-point correction=                           0.055007 (Hartree/Particle)
 Thermal correction to Energy=                    0.060058
 Thermal correction to Enthalpy=                  0.061002
 Thermal correction to Gibbs Free Energy=         0.026808
 Sum of electronic and zero-point Energies=           -191.724955
 Sum of electronic and thermal Energies=              -191.719905
 Sum of electronic and thermal Enthalpies=            -191.718960
 Sum of electronic and thermal Free Energies=         -191.753155

                     E (Thermal)             CV                S
                      KCal/Mol        Cal/Mol-Kelvin    Cal/Mol-Kelvin
 Total                   37.687             16.370             71.968
 Electronic               0.000              0.000              2.755
 Translational            0.889              2.981             37.991
 Rotational               0.889              2.981             23.616
 Vibrational             35.910             10.409              7.606
 Vibration     1          0.616              1.909              2.743
 Vibration     2          0.691              1.680              1.434
 Vibration     3          0.705              1.639              1.320
 Vibration     4          0.815              1.346              0.775
 Vibration     5          0.848              1.268              0.679

 Normal termination of Gaussian 09 at Thu Mar  7 12:16:19 2019.
