 Gaussian 09, Revision E.01,
 Gaussian 09:  EM64L-G09RevE.01 30-Nov-2015

 ------------------------------------------------------
 #p b3lyp/6-311++G(3df,2p) freq IOp(2/17=3) IOp(2/18=3)
 ------------------------------------------------------

 ---------
 b3lyp opt
 ---------
 Symbolic Z-matrix:
 Charge = -1 Multiplicity = 4

                         Standard orientation:
 ---------------------------------------------------------------------
 Center     Atomic      Atomic             Coordinates (Angstroms)
 Number     Number       Type             X           Y           Z
 ---------------------------------------------------------------------
      1          6           0       -1.959556   -0.003974    0.000577
      2          6           0        0.445805   -0.410772   -0.000639
      3          6           0       -0.665974    0.419953   -0.001050
      4          1           0        1.810236    0.966084    0.002372
      5          1           0       -0.478221    1.490887    0.000030
      6          1           0        0.356361   -1.485913   -0.000341
      7          1           0       -2.498374   -0.936084    0.001855
      8          8           0        1.736043   -0.008276    0.000344
 ---------------------------------------------------------------------

 SCF Done:  E(UB3LYP) =  -191.852144892     A.U. after   25 cycles

 The electronic state is 4-A.
 Alpha  occ. eigenvalues --  -19.03331 -10.10814 -10.07095 -10.05392  -0.94008
 Alpha  occ. eigenvalues --   -0.67230  -0.54949  -0.47354  -0.39572  -0.35934
 Alpha  occ. eigenvalues --   -0.28861  -0.28420  -0.25720  -0.18398  -0.12766
 Alpha  occ. eigenvalues --   -0.04945   0.06045
 Alpha virt. eigenvalues --    0.08036   0.10114   0.11810   0.13792   0.16354
 Alpha virt. eigenvalues --    0.16869   0.18034   0.19738   0.19769   0.20195
 Alpha virt. eigenvalues --    0.21185   0.22296   0.23247   0.23325   0.24588

  Beta  occ. eigenvalues --  -19.02821 -10.09863 -10.05651 -10.04806  -0.92901
  Beta  occ. eigenvalues --   -0.65251  -0.51965  -0.44826  -0.38384  -0.34657
  Beta  occ. eigenvalues --   -0.27359  -0.25787  -0.24701  -0.15181
  Beta virt. eigenvalues --    0.03939   0.06774   0.08880   0.10659   0.11177
  Beta virt. eigenvalues --    0.13421   0.14341   0.17708   0.18363   0.18812
  Beta virt. eigenvalues --    0.20221   0.20950   0.21360   0.21866   0.22777

 Mulliken charges and spin densities:
               1          2
     1  C    2.044502  -0.973260
     2  C    3.811080  -3.171492
     3  C   -2.345006   2.266526
     4  H   -0.621871   0.913799
     5  H   -2.045414   2.229929
     6  H   -0.547102   0.685498
     7  H   -0.637146   0.822861
     8  O   -0.659044   0.226138
 Sum of Mulliken charges =  -1.00000   3.00000

 Dipole moment (field-independent basis, Debye):
    X=             -1.7235    Y=             -4.8624    Z=             -0.0175  Tot=              5.1589
 Quadrupole moment (field-independent basis, Debye-Ang):
   XX=            -63.3222   YY=            -58.7066   ZZ=            -44.1482
   XY=             -6.2660   XZ=             -0.0114   YZ=             -0.0330

  Exact polarizability:2163.018 779.2902337.193  -0.473   0.624 160.450
 Approx polarizability:1699.626 860.3871649.199   0.226   0.534 153.820

                      1                      2                      3
                      A                      A                      A
 Frequencies --    246.9455               301.9032               402.3845
 Red. masses --      2.2273                 2.7715                 1.3604
 Frc consts  --      0.0800                 0.1488                 0.1298
 IR Inten    --     35.2709               360.0166               228.1514

                      4                      5                      6
                      A                      A                      A
 Frequencies --    526.5077               565.0496               779.9722
 Red. masses --      2.9719                 1.4667                 1.4201
 Frc consts  --      0.4854                 0.2759                 0.5090
 IR Inten    --      5.4111                10.9252                 1.7429

                      7                      8                      9
                      A                      A                      A
 Frequencies --    844.7419               983.2390              1065.3934
 Red. masses --      1.5674                 1.3075                 2.8309
 Frc consts  --      0.6590                 0.7447                 1.8932
 IR Inten    --    701.8722              1722.0308              2974.6990

                     10                     11                     12
                      A                      A                      A
 Frequencies --   1222.8504              1255.6892              1296.7077
 Red. masses --      1.4535                 1.6290                 2.5508
 Frc consts  --      1.2806                 1.5133                 2.5271
 IR Inten    --    143.7868               154.5526               453.6956

                     13                     14                     15
                      A                      A                      A
 Frequencies --   1403.9428              1493.3472              3104.1221
 Red. masses --      1.7223                 2.3557                 1.0852
 Frc consts  --      2.0001                 3.0952                 6.1608
 IR Inten    --    596.8371              1956.8507               243.4705

                     16                     17                     18
                      A                      A                      A
 Frequencies --   3197.7279              3237.8366              3430.0944
 Red. masses --      1.0868                 1.0942                 1.0659
 Frc consts  --      6.5476                 6.7587                 7.3887
 IR Inten    --   3101.8748               477.1496             27173.9090

 - Thermochemistry -
 -------------------
 Temperature   298.150 Kelvin.  Pressure   1.00000 Atm.
 Atom     1 has atomic number  6 and mass  12.00000

 Molecular mass:    56.02621 amu.
 Principal axes and moments of inertia in atomic units:
                           1         2         3
     Eigenvalues --    36.97160 399.99703 436.96840
           X            0.99961   0.02777  -0.00000
           Y           -0.02777   0.99961   0.00010
           Z            0.00000  -0.00010   1.00000
 This molecule is an asymmetric top.
 Rotational symmetry number  1.
 Rotational temperatures (Kelvin)      2.34271     0.21654     0.19822
 Rotational constants (GHZ):          48.81425     4.51189     4.13014
 Zero-point vibrational energy     151677.2 (Joules/Mol)
                                   36.25173 (Kcal/Mol)
 Warning -- explicit consideration of   5 degrees of freedom as
           vibrations may cause significant error
 Vibrational temperatures:    355.30   434.37   578.94   757.53   812.98
          (Kelvin)           1122.20  1215.39  1414.66  1532.86  1759.41
                             1806.65  1865.67  2019.96  2148.59  4466.13
                             4600.81  4658.52  4935.13

 Zero-point correction=                           0.057771 (Hartree/Particle)
 Thermal correction to Energy=                    0.062476
 Thermal correction to Enthalpy=                  0.063420
 Thermal correction to Gibbs Free Energy=         0.030137
 Sum of electronic and zero-point Energies=           -191.794374
 Sum of electronic and thermal Energies=              -191.789669
 Sum of electronic and thermal Enthalpies=            -191.788725
 Sum of electronic and thermal Free Energies=         -191.822008

                     E (Thermal)             CV                S
                      KCal/Mol        Cal/Mol-Kelvin    Cal/Mol-Kelvin
 Total                   39.204             15.826             70.049
 Electronic               0.000              0.000              2.755
 Translational            0.889              2.981             37.991
 Rotational               0.889              2.981             23.384
 Vibrational             37.427              9.865              5.919
 Vibration     1          0.661              1.768              1.752
 Vibration     2          0.694              1.670              1.406
 Vibration     3          0.768              1.465              0.954
 Vibration     4          0.881              1.191              0.595
 Vibration     5          0.921              1.107              0.514

 Normal termination of Gaussian 09 at Thu Mar  7 12:26:02 2019.
