 Gaussian 09, Revision E.01,
 Gaussian 09:  EM64L-G09RevE.01 30-Nov-2015

 ------------------------------------------------------
 #p b3lyp/6-311++G(3df,2p) freq IOp(2/17=3) IOp(2/18=3)
 ------------------------------------------------------

 ---------
 b3lyp opt
 ---------
 Symbolic Z-matrix:
 Charge = -1 Multiplicity = 2

                         Standard orientation:
 ---------------------------------------------------------------------
 Center     Atomic      Atomic             Coordinates (Angstroms)
 Number     Number       Type             X           Y           Z
 ---------------------------------------------------------------------
      1          6           0        1.419806   -1.464514   -0.000000
      2          6           0       -0.000000    0.634608   -0.000000
      3          6           0        0.226334   -0.741522    0.000000
      4          1           0       -1.901316    0.462492    0.000000
      5          1           0       -0.720131   -1.316725    0.000000
      6          1           0        0.770854    1.392188   -0.000000
      7          1           0        2.264438   -0.735664   -0.000000
      8          8           0       -1.286335    1.203285    0.000000
 ---------------------------------------------------------------------

 SCF Done:  E(UB3LYP) =  -191.904179694     A.U. after   19 cycles

 The electronic state is 2-A".
 Alpha  occ. eigenvalues --  -18.99038 -10.03272  -9.96866  -9.92378  -0.88583
 Alpha  occ. eigenvalues --   -0.57361  -0.46537  -0.38168  -0.31413  -0.25967
 Alpha  occ. eigenvalues --   -0.23002  -0.20910  -0.14943  -0.09200   0.01370
 Alpha  occ. eigenvalues --    0.03868
 Alpha virt. eigenvalues --    0.10988   0.12564   0.14658   0.16089   0.18882
 Alpha virt. eigenvalues --    0.20089   0.21120   0.21340   0.23327   0.23914
 Alpha virt. eigenvalues --    0.24452   0.25467   0.26918   0.28372   0.29237

  Beta  occ. eigenvalues --  -18.98780 -10.02351  -9.97112  -9.91658  -0.87955
  Beta  occ. eigenvalues --   -0.56463  -0.45200  -0.37122  -0.30955  -0.25544
  Beta  occ. eigenvalues --   -0.20687  -0.20577  -0.14648  -0.06903   0.02536
  Beta virt. eigenvalues --    0.10999   0.12564   0.14187   0.14686   0.16098
  Beta virt. eigenvalues --    0.19064   0.20098   0.21203   0.22304   0.23331
  Beta virt. eigenvalues --    0.24476   0.24792   0.25655   0.26889   0.28534

 Mulliken charges and spin densities:
               1          2
     1  C   -0.692455   0.616845
     2  C    0.041859   0.671001
     3  C   -0.136526  -0.275231
     4  H    0.226625  -0.002081
     5  H   -0.002799  -0.001949
     6  H    0.131373  -0.025326
     7  H    0.025496  -0.026420
     8  O   -0.593573   0.043161
 Sum of Mulliken charges =  -1.00000   1.00000

 Dipole moment (field-independent basis, Debye):
    X=             -4.9945    Y=              5.2732    Z=              0.0000  Tot=              7.2630
 Quadrupole moment (field-independent basis, Debye-Ang):
   XX=            -36.7593   YY=            -48.8647   ZZ=            -31.9412
   XY=             14.9474   XZ=              0.0000   YZ=              0.0000

  Exact polarizability:  80.451 -18.648  96.607   0.011   0.007  53.589
 Approx polarizability: 105.849 -19.821 119.306   0.000  -0.000  67.607

                      1                      2                      3
                     A"                     A'                     A"
 Frequencies --    143.5079               304.5037               329.7304
 Red. masses --      3.8534                 3.2852                 1.2506
 Frc consts  --      0.0468                 0.1795                 0.0801
 IR Inten    --      0.0050                50.5433                73.3352

                      4                      5                      6
                     A"                     A'                     A"
 Frequencies --    486.0644               533.1080               625.2702
 Red. masses --      1.2188                 3.7043                 1.6917
 Frc consts  --      0.1697                 0.6203                 0.3897
 IR Inten    --     44.7801                 0.4611                37.5840

                      7                      8                      9
                     A"                     A'                     A'
 Frequencies --    929.6569               968.4636              1081.3421
 Red. masses --      1.1412                 3.1418                 1.4383
 Frc consts  --      0.5811                 1.7362                 0.9909
 IR Inten    --     41.9994               178.6772               111.7760

                     10                     11                     12
                     A'                     A'                     A'
 Frequencies --   1179.8976              1187.2608              1254.5543
 Red. masses --      2.2314                 1.8625                 1.9733
 Frc consts  --      1.8303                 1.5468                 1.8298
 IR Inten    --     12.8055                 7.6921                19.5663

                     13                     14                     15
                     A'                     A'                     A'
 Frequencies --   1359.6039              1426.2399              2776.6629
 Red. masses --      1.4276                 1.6554                 1.0795
 Frc consts  --      1.5548                 1.9839                 4.9038
 IR Inten    --     83.7655                34.5413               365.4435

                     16                     17                     18
                     A'                     A'                     A'
 Frequencies --   2846.5417              3184.3593              3802.0385
 Red. masses --      1.0760                 1.0880                 1.0648
 Frc consts  --      5.1371                 6.5002                 9.0688
 IR Inten    --    215.6845                32.1689                 3.6936

 - Thermochemistry -
 -------------------
 Temperature   298.150 Kelvin.  Pressure   1.00000 Atm.
 Atom     1 has atomic number  6 and mass  12.00000

 Molecular mass:    56.02621 amu.
 Principal axes and moments of inertia in atomic units:
                           1         2         3
     Eigenvalues --    38.26062 411.65534 449.91596
           X           -0.69487   0.71914   0.00000
           Y            0.71914   0.69487   0.00000
           Z            0.00000   0.00000   1.00000
 This molecule is an asymmetric top.
 Rotational symmetry number  1.
 Rotational temperatures (Kelvin)      2.26378     0.21040     0.19251
 Rotational constants (GHZ):          47.16968     4.38411     4.01129
 Zero-point vibrational energy     146056.9 (Joules/Mol)
                                   34.90844 (Kcal/Mol)
 Warning -- explicit consideration of   5 degrees of freedom as
           vibrations may cause significant error
 Vibrational temperatures:    206.48   438.11   474.41   699.34   767.02
          (Kelvin)            899.62  1337.57  1393.40  1555.81  1697.61
                             1708.20  1805.02  1956.16  2052.04  3994.99
                             4095.53  4581.58  5470.28

 Zero-point correction=                           0.055630 (Hartree/Particle)
 Thermal correction to Energy=                    0.060680
 Thermal correction to Enthalpy=                  0.061624
 Thermal correction to Gibbs Free Energy=         0.028178
 Sum of electronic and zero-point Energies=           -191.848550
 Sum of electronic and thermal Energies=              -191.843500
 Sum of electronic and thermal Enthalpies=            -191.842556
 Sum of electronic and thermal Free Energies=         -191.876002

                     E (Thermal)             CV                S
                      KCal/Mol        Cal/Mol-Kelvin    Cal/Mol-Kelvin
 Total                   38.077             16.582             70.393
 Electronic               0.000              0.000              1.377
 Translational            0.889              2.981             37.991
 Rotational               0.889              2.981             23.476
 Vibrational             36.300             10.620              7.549
 Vibration     1          0.616              1.910              2.757
 Vibration     2          0.695              1.665              1.392
 Vibration     3          0.713              1.616              1.261
 Vibration     4          0.842              1.281              0.694
 Vibration     5          0.888              1.177              0.580

 Optimization completed.
    -- Stationary point found.
 Normal termination of Gaussian 09 at Fri Mar  8 06:59:33 2019.
