 Gaussian 09, Revision E.01,
 Gaussian 09:  EM64L-G09RevE.01 30-Nov-2015

 ------------------------------------------------------
 #p b3lyp/6-311++G(3df,2p) freq IOp(2/17=3) IOp(2/18=3)
 ------------------------------------------------------

 ---------
 b3lyp opt
 ---------
 Symbolic Z-matrix:
 Charge = -1 Multiplicity = 4

                         Standard orientation:
 ---------------------------------------------------------------------
 Center     Atomic      Atomic             Coordinates (Angstroms)
 Number     Number       Type             X           Y           Z
 ---------------------------------------------------------------------
      1          6           0        1.332944   -0.921834   -0.090775
      2          6           0       -0.589636    0.642105   -0.172010
      3          6           0        0.893677    0.518444    0.079374
      4          1           0       -0.622728   -1.194307    0.053587
      5          1           0        1.430415    1.221602   -0.586906
      6          1           0       -1.154985    1.559195   -0.018367
      7          1           0        1.128749    0.885359    1.113741
      8          8           0       -1.325420   -0.488017    0.067301
 ---------------------------------------------------------------------

 SCF Done:  E(UB3LYP) =  -191.811471925     A.U. after   17 cycles

 The electronic state is 4-A.
 Alpha  occ. eigenvalues --  -18.97058 -10.04095  -9.98680  -9.94988  -0.87530
 Alpha  occ. eigenvalues --   -0.57508  -0.46239  -0.33618  -0.31515  -0.27247
 Alpha  occ. eigenvalues --   -0.25851  -0.20022  -0.17743  -0.06102   0.00412
 Alpha  occ. eigenvalues --    0.01893   0.03555
 Alpha virt. eigenvalues --    0.11384   0.13609   0.14202   0.15182   0.19860
 Alpha virt. eigenvalues --    0.20410   0.20821   0.22034   0.23625   0.24223
 Alpha virt. eigenvalues --    0.25366   0.25796   0.26900   0.27986   0.28743

  Beta  occ. eigenvalues --  -18.96402 -10.02689  -9.98858  -9.92659  -0.86046
  Beta  occ. eigenvalues --   -0.55530  -0.43473  -0.30086  -0.29817  -0.24561
  Beta  occ. eigenvalues --   -0.23085  -0.17569  -0.15983  -0.02551
  Beta virt. eigenvalues --    0.11186   0.13273   0.13694   0.14176   0.15116
  Beta virt. eigenvalues --    0.16135   0.16704   0.19879   0.21236   0.21915
  Beta virt. eigenvalues --    0.22510   0.24416   0.25321   0.25912   0.26856

 Mulliken charges and spin densities:
               1          2
     1  C   -0.986283   1.943696
     2  C    0.086995   0.877555
     3  C    0.130634  -0.214870
     4  H    0.232258   0.059323
     5  H    0.036100   0.060140
     6  H    0.082511   0.002454
     7  H   -0.006122   0.153645
     8  O   -0.576094   0.118056
 Sum of Mulliken charges =  -1.00000   3.00000

 Dipole moment (field-independent basis, Debye):
    X=             -3.2049    Y=              3.9722    Z=              0.7549  Tot=              5.1594
 Quadrupole moment (field-independent basis, Debye-Ang):
   XX=            -42.9664   YY=            -36.5705   ZZ=            -32.5252
   XY=              6.2555   XZ=              0.1976   YZ=             -0.5239

  Exact polarizability:  84.424  -9.107  86.267   1.986   3.951  67.778
 Approx polarizability:  98.783  -5.355 102.631   1.373   3.760  81.977

                      1                      2                      3
                      A                      A                      A
 Frequencies --    157.6162               301.3233               498.9939
 Red. masses --      2.2145                 5.3961                 1.5218
 Frc consts  --      0.0324                 0.2887                 0.2233
 IR Inten    --     18.0584                55.5319                10.3555

                      4                      5                      6
                      A                      A                      A
 Frequencies --    645.2470               770.9079               840.7887
 Red. masses --      3.2803                 1.0750                 1.6959
 Frc consts  --      0.8047                 0.3764                 0.7064
 IR Inten    --     27.4555                35.5803                 5.7948

                      7                      8                      9
                      A                      A                      A
 Frequencies --    865.0347               934.2507              1071.5146
 Red. masses --      4.2994                 2.9882                 1.1791
 Frc consts  --      1.8955                 1.5367                 0.7976
 IR Inten    --     15.5301                 6.4014                 1.6731

                     10                     11                     12
                      A                      A                      A
 Frequencies --   1161.4381              1177.1068              1303.4618
 Red. masses --      1.3078                 2.3924                 1.7555
 Frc consts  --      1.0394                 1.9530                 1.7573
 IR Inten    --     53.4147                52.5581                 2.3939

                     13                     14                     15
                      A                      A                      A
 Frequencies --   1415.1260              1466.5298              2609.3041
 Red. masses --      1.0819                 1.2361                 1.0741
 Frc consts  --      1.2765                 1.5663                 4.3087
 IR Inten    --      6.4520               119.2970               405.6445

                     16                     17                     18
                      A                      A                      A
 Frequencies --   2809.7731              3072.7872              3173.4176
 Red. masses --      1.0692                 1.0850                 1.0659
 Frc consts  --      4.9733                 6.0362                 6.3247
 IR Inten    --    160.7359               196.2010               354.6098

 - Thermochemistry -
 -------------------
 Temperature   298.150 Kelvin.  Pressure   1.00000 Atm.
 Atom     1 has atomic number  6 and mass  12.00000

 Molecular mass:    56.02621 amu.
 Principal axes and moments of inertia in atomic units:
                           1         2         3
     Eigenvalues --   108.47258 251.81352 344.62553
           X            0.99907   0.04264   0.00641
           Y           -0.04269   0.99906   0.00807
           Z           -0.00606  -0.00833   0.99995
 This molecule is an asymmetric top.
 Rotational symmetry number  1.
 Rotational temperatures (Kelvin)      0.79849     0.34396     0.25133
 Rotational constants (GHZ):          16.63776     7.16698     5.23682
 Zero-point vibrational energy     145194.5 (Joules/Mol)
                                   34.70231 (Kcal/Mol)
 Warning -- explicit consideration of   3 degrees of freedom as
           vibrations may cause significant error
 Vibrational temperatures:    226.77   433.54   717.94   928.37  1109.16
          (Kelvin)           1209.71  1244.59  1344.18  1541.67  1671.05
                             1693.59  1875.39  2036.05  2110.01  3754.20
                             4042.63  4421.05  4565.83

 Zero-point correction=                           0.055302 (Hartree/Particle)
 Thermal correction to Energy=                    0.059898
 Thermal correction to Enthalpy=                  0.060842
 Thermal correction to Gibbs Free Energy=         0.027372
 Sum of electronic and zero-point Energies=           -191.756170
 Sum of electronic and thermal Energies=              -191.751574
 Sum of electronic and thermal Enthalpies=            -191.750630
 Sum of electronic and thermal Free Energies=         -191.784100

                     E (Thermal)             CV                S
                      KCal/Mol        Cal/Mol-Kelvin    Cal/Mol-Kelvin
 Total                   37.586             15.097             70.443
 Electronic               0.000              0.000              2.755
 Translational            0.889              2.981             37.991
 Rotational               0.889              2.981             23.758
 Vibrational             35.809              9.135              5.939
 Vibration     1          0.621              1.894              2.578
 Vibration     2          0.693              1.671              1.410
 Vibration     3          0.854              1.252              0.661

 Normal termination of Gaussian 09 at Thu Mar  7 12:02:07 2019.
