 Gaussian 09, Revision E.01,
 Gaussian 09:  EM64L-G09RevE.01 30-Nov-2015

 ------------------------------------------------------
 #p b3lyp/6-311++G(3df,2p) freq IOp(2/17=3) IOp(2/18=3)
 ------------------------------------------------------

 ---------
 b3lyp opt
 ---------
 Symbolic Z-matrix:
 Charge = -1 Multiplicity = 2

                         Standard orientation:
 ---------------------------------------------------------------------
 Center     Atomic      Atomic             Coordinates (Angstroms)
 Number     Number       Type             X           Y           Z
 ---------------------------------------------------------------------
      1          6           0        1.860737   -0.389284   -0.308937
      2          6           0       -0.469048    0.565082   -0.215101
      3          6           0        0.856813    0.164652    0.376545
      4          1           0       -1.046882   -1.252933    0.068220
      5          1           0       -0.850051    1.503370    0.206669
      6          1           0       -0.365173    0.682391   -1.298651
      7          1           0        0.914277    0.324356    1.471148
      8          8           0       -1.517898   -0.412485    0.054697
 ---------------------------------------------------------------------

 SCF Done:  E(UB3LYP) =  -191.904304104     A.U. after   18 cycles

 The electronic state is 2-A.
 Alpha  occ. eigenvalues --  -18.96109 -10.04705  -9.95520  -9.94866  -0.85206
 Alpha  occ. eigenvalues --   -0.57379  -0.47447  -0.33724  -0.32221  -0.26663
 Alpha  occ. eigenvalues --   -0.22588  -0.19561  -0.11979  -0.06067  -0.05722
 Alpha  occ. eigenvalues --    0.03625
 Alpha virt. eigenvalues --    0.11669   0.13344   0.13395   0.15486   0.18079
 Alpha virt. eigenvalues --    0.19918   0.20495   0.21069   0.22558   0.24258
 Alpha virt. eigenvalues --    0.24886   0.25648   0.25988   0.26786   0.27433

  Beta  occ. eigenvalues --  -18.96113 -10.04516  -9.95675  -9.93661  -0.85202
  Beta  occ. eigenvalues --   -0.56633  -0.46389  -0.32648  -0.31668  -0.26506
  Beta  occ. eigenvalues --   -0.21874  -0.18922  -0.11876  -0.05348  -0.03979
  Beta virt. eigenvalues --    0.11215   0.13333   0.13360   0.15457   0.15977
  Beta virt. eigenvalues --    0.18261   0.20098   0.20504   0.21661   0.22687
  Beta virt. eigenvalues --    0.24553   0.25048   0.26052   0.26505   0.26809

 Mulliken charges and spin densities:
               1          2
     1  C   -0.898153   1.056329
     2  C    0.401357  -0.216512
     3  C   -0.079783  -0.130365
     4  H    0.221769   0.014777
     5  H    0.014627   0.080574
     6  H    0.019316   0.073998
     7  H   -0.012271   0.107717
     8  O   -0.666861   0.013482
 Sum of Mulliken charges =  -1.00000   1.00000

 Dipole moment (field-independent basis, Debye):
    X=             -5.2322    Y=              1.2612    Z=              1.1914  Tot=              5.5123
 Quadrupole moment (field-independent basis, Debye-Ang):
   XX=            -52.8910   YY=            -30.2247   ZZ=            -32.7336
   XY=              3.5491   XZ=              3.8725   YZ=             -1.1637

  Exact polarizability:  98.917 -17.970  78.489  -6.550   8.010  90.766
 Approx polarizability: 119.190 -19.597  97.500 -11.930   9.735 105.672

                      1                      2                      3
                      A                      A                      A
 Frequencies --    120.7754               337.1808               403.5246
 Red. masses --      3.7368                 1.1448                 2.2043
 Frc consts  --      0.0321                 0.0767                 0.2115
 IR Inten    --     30.3217                55.6691                 6.4885

                      4                      5                      6
                      A                      A                      A
 Frequencies --    420.1440               717.5053               893.3810
 Red. masses --      3.2944                 1.8636                 2.2425
 Frc consts  --      0.3426                 0.5653                 1.0545
 IR Inten    --     25.9781                14.0007                66.2898

                      7                      8                      9
                      A                      A                      A
 Frequencies --    937.3169              1015.8846              1173.0629
 Red. masses --      4.3950                 2.5381                 1.1192
 Frc consts  --      2.2750                 1.5433                 0.9074
 IR Inten    --    116.8292                10.4409                 7.9589

                     10                     11                     12
                      A                      A                      A
 Frequencies --   1215.8320              1301.8521              1382.1051
 Red. masses --      1.2230                 1.1466                 1.2424
 Frc consts  --      1.0651                 1.1449                 1.3982
 IR Inten    --      1.2547                 6.1209                74.5072

                     13                     14                     15
                      A                      A                      A
 Frequencies --   1489.3735              1529.9212              2824.3572
 Red. masses --      1.1017                 6.0596                 1.0760
 Frc consts  --      1.4398                 8.3566                 5.0571
 IR Inten    --      3.2632                13.7599               410.2801

                     16                     17                     18
                      A                      A                      A
 Frequencies --   2960.4516              3002.9531              3787.2249
 Red. masses --      1.0585                 1.1033                 1.0654
 Frc consts  --      5.4660                 5.8618                 9.0035
 IR Inten    --    171.1747                79.6681                21.5202

 - Thermochemistry -
 -------------------
 Temperature   298.150 Kelvin.  Pressure   1.00000 Atm.
 Atom     1 has atomic number  6 and mass  12.00000

 Molecular mass:    56.02621 amu.
 Principal axes and moments of inertia in atomic units:
                           1         2         3
     Eigenvalues --    73.03336 357.09719 377.69518
           X            0.99983   0.00125   0.01813
           Y           -0.00071   0.99956  -0.02976
           Z           -0.01816   0.02974   0.99939
 This molecule is an asymmetric top.
 Rotational symmetry number  1.
 Rotational temperatures (Kelvin)      1.18595     0.24255     0.22932
 Rotational constants (GHZ):          24.71119     5.05392     4.77830
 Zero-point vibrational energy     152600.7 (Joules/Mol)
                                   36.47244 (Kcal/Mol)
 Warning -- explicit consideration of   4 degrees of freedom as
           vibrations may cause significant error
 Vibrational temperatures:    173.77   485.13   580.58   604.49  1032.33
          (Kelvin)           1285.37  1348.59  1461.63  1687.77  1749.31
                             1873.07  1988.54  2142.87  2201.21  4063.61
                             4259.42  4320.57  5448.97

 Zero-point correction=                           0.058123 (Hartree/Particle)
 Thermal correction to Energy=                    0.062928
 Thermal correction to Enthalpy=                  0.063873
 Thermal correction to Gibbs Free Energy=         0.030557
 Sum of electronic and zero-point Energies=           -191.846182
 Sum of electronic and thermal Energies=              -191.841376
 Sum of electronic and thermal Enthalpies=            -191.840432
 Sum of electronic and thermal Free Energies=         -191.873747

                     E (Thermal)             CV                S
                      KCal/Mol        Cal/Mol-Kelvin    Cal/Mol-Kelvin
 Total                   39.488             15.324             70.118
 Electronic               0.000              0.000              1.377
 Translational            0.889              2.981             37.991
 Rotational               0.889              2.981             23.803
 Vibrational             37.711              9.362              6.946
 Vibration     1          0.609              1.932              3.088
 Vibration     2          0.718              1.601              1.225
 Vibration     3          0.769              1.463              0.950
 Vibration     4          0.783              1.426              0.891

 Optimization completed.
    -- Stationary point found.
 Normal termination of Gaussian 09 at Thu Mar  7 11:29:28 2019.
