 Gaussian 09, Revision E.01,
 Gaussian 09:  EM64L-G09RevE.01 30-Nov-2015

 ------------------------------------------------------
 #p b3lyp/6-311++G(3df,2p) freq IOp(2/17=3) IOp(2/18=3)
 ------------------------------------------------------

 ---------
 b3lyp opt
 ---------
 Symbolic Z-matrix:
 Charge = -1 Multiplicity = 2

                         Standard orientation:
 ---------------------------------------------------------------------
 Center     Atomic      Atomic             Coordinates (Angstroms)
 Number     Number       Type             X           Y           Z
 ---------------------------------------------------------------------
      1          8           0        2.338752    0.122885   -0.000000
      2          6           0       -1.876017   -1.009661    0.000000
      3          6           0        1.133254   -0.075709   -0.000000
      4          6           0       -1.352909    0.242817    0.000000
      5          6           0        0.000000    0.712356    0.000000
      6          1           0       -2.948777   -1.158635    0.000000
      7          1           0       -1.250402   -1.893159    0.000000
      8          1           0       -2.085604    1.051383    0.000000
      9          1           0        0.148802    1.798508   -0.000000
 ---------------------------------------------------------------------

 SCF Done:  E(UB3LYP) =  -230.096625648     A.U. after   20 cycles

 The electronic state is 2-A'.
 Alpha  occ. eigenvalues --  -18.93514 -10.03374 -10.00670  -9.97448  -9.96833
 Alpha  occ. eigenvalues --   -0.84880  -0.61089  -0.51974  -0.41281  -0.31443
 Alpha  occ. eigenvalues --   -0.30040  -0.26389  -0.22949  -0.20606  -0.19233
 Alpha  occ. eigenvalues --   -0.17377  -0.12515  -0.00732   0.02018
 Alpha virt. eigenvalues --    0.11037   0.12381   0.13739   0.14863   0.15162
 Alpha virt. eigenvalues --    0.17539   0.20100   0.21641   0.22203   0.22261
 Alpha virt. eigenvalues --    0.23615   0.23940   0.24404   0.24673   0.25391

  Beta  occ. eigenvalues --  -18.92683 -10.02422 -10.00654  -9.97467  -9.96663
  Beta  occ. eigenvalues --   -0.83213  -0.60859  -0.51181  -0.40531  -0.30339
  Beta  occ. eigenvalues --   -0.29693  -0.25080  -0.21815  -0.19713  -0.18488
  Beta  occ. eigenvalues --   -0.14166  -0.12464  -0.00506
  Beta virt. eigenvalues --    0.10711   0.12040   0.13011   0.14884   0.15617
  Beta virt. eigenvalues --    0.15623   0.17651   0.20132   0.21780   0.22224
  Beta virt. eigenvalues --    0.22319   0.23583   0.23957   0.24669   0.24758

 Mulliken charges and spin densities:
               1          2
     1  O   -0.629120   0.210917
     2  C   -0.631399  -0.026590
     3  C   -0.048173   0.965041
     4  C    0.020222   0.170796
     5  C    0.100093  -0.578239
     6  H    0.101801   0.002773
     7  H    0.069893   0.049913
     8  H    0.090650  -0.005693
     9  H   -0.073967   0.211081
 Sum of Mulliken charges =  -1.00000   1.00000

 Dipole moment (field-independent basis, Debye):
    X=             -2.4644    Y=              0.5848    Z=              0.0000  Tot=              2.5329
 Quadrupole moment (field-independent basis, Debye-Ang):
   XX=            -52.4453   YY=            -37.0461   ZZ=            -37.4182
   XY=             -3.2382   XZ=              0.0000   YZ=             -0.0000

  Exact polarizability: 109.519  15.485 100.034  -0.000  -0.000  57.968
 Approx polarizability: 164.774  20.236 130.885  -0.000  -0.000  77.017

                      1                      2                      3
                     A'                     A"                     A"
 Frequencies --    194.1649               220.0723               263.4645
 Red. masses --      4.2421                 1.7070                 5.2527
 Frc consts  --      0.0942                 0.0487                 0.2148
 IR Inten    --      0.1455                 1.2006                 5.2342

                      4                      5                      6
                     A'                     A'                     A"
 Frequencies --    432.2140               621.3665               637.4968
 Red. masses --      4.8666                 3.1326                 1.2895
 Frc consts  --      0.5356                 0.7126                 0.3088
 IR Inten    --      4.9194                54.8153                61.6272

                      7                      8                      9
                     A"                     A"                     A'
 Frequencies --    673.0342               746.6462               964.8475
 Red. masses --      1.5013                 1.6963                 3.9944
 Frc consts  --      0.4007                 0.5572                 2.1909
 IR Inten    --     15.2370                52.1379                10.9382

                     10                     11                     12
                     A"                     A'                     A'
 Frequencies --   1002.3557              1048.6926              1169.7168
 Red. masses --      1.1403                 1.5646                 1.5670
 Frc consts  --      0.6750                 1.0138                 1.2632
 IR Inten    --      7.2389                 3.7069                78.0284

                     13                     14                     15
                     A'                     A'                     A'
 Frequencies --   1310.2612              1394.1800              1446.7236
 Red. masses --      1.3226                 2.1453                 1.4023
 Frc consts  --      1.3378                 2.4568                 1.7293
 IR Inten    --     86.0613                39.4142                37.2029

                     16                     17                     18
                     A'                     A'                     A'
 Frequencies --   1602.5449              1720.5031              2969.2341
 Red. masses --      3.5487                12.0637                 1.0793
 Frc consts  --      5.3696                21.0399                 5.6061
 IR Inten    --    468.8443               736.6834               187.1427

                     19                     20                     21
                     A'                     A'                     A'
 Frequencies --   3056.0458              3113.7156              3188.2762
 Red. masses --      1.0840                 1.0568                 1.1147
 Frc consts  --      5.9650                 6.0367                 6.6763
 IR Inten    --     73.5687                13.0373                47.1845

 - Thermochemistry -
 -------------------
 Temperature   298.150 Kelvin.  Pressure   1.00000 Atm.
 Atom     1 has atomic number  8 and mass  15.99491

 Molecular mass:    68.02621 amu.
 Principal axes and moments of inertia in atomic units:
                           1         2         3
     Eigenvalues --    86.76928 663.07680 749.84607
           X            0.98633  -0.16476   0.00000
           Y            0.16476   0.98633   0.00000
           Z           -0.00000   0.00000   1.00000
 This molecule is an asymmetric top.
 Rotational symmetry number  1.
 Rotational temperatures (Kelvin)      0.99821     0.13062     0.11551
 Rotational constants (GHZ):          20.79931     2.72177     2.40682
 Zero-point vibrational energy     166134.7 (Joules/Mol)
                                   39.70715 (Kcal/Mol)
 Warning -- explicit consideration of   4 degrees of freedom as
           vibrations may cause significant error
 Vibrational temperatures:    279.36   316.63   379.07   621.86   894.01
          (Kelvin)            917.21   968.34  1074.26  1388.20  1442.16
                             1508.83  1682.96  1885.17  2005.91  2081.51
                             2305.70  2475.42  4272.06  4396.96  4479.94
                             4587.21

 Zero-point correction=                           0.063277 (Hartree/Particle)
 Thermal correction to Energy=                    0.068623
 Thermal correction to Enthalpy=                  0.069567
 Thermal correction to Gibbs Free Energy=         0.034574
 Sum of electronic and zero-point Energies=           -230.033348
 Sum of electronic and thermal Energies=              -230.028003
 Sum of electronic and thermal Enthalpies=            -230.027058
 Sum of electronic and thermal Free Energies=         -230.062051

                     E (Thermal)             CV                S
                      KCal/Mol        Cal/Mol-Kelvin    Cal/Mol-Kelvin
 Total                   43.062             18.097             73.648
 Electronic               0.000              0.000              1.377
 Translational            0.889              2.981             38.570
 Rotational               0.889              2.981             25.270
 Vibrational             41.284             12.135              8.431
 Vibration     1          0.635              1.848              2.188
 Vibration     2          0.647              1.811              1.959
 Vibration     3          0.670              1.740              1.639
 Vibration     4          0.793              1.400              0.851

 Optimization completed.
    -- Stationary point found.
 Normal termination of Gaussian 09 at Fri Mar  8 07:13:39 2019.
