 Gaussian 09, Revision E.01,
 Gaussian 09:  EM64L-G09RevE.01 30-Nov-2015

 ------------------------------------------------------
 #p b3lyp/6-311++G(3df,2p) freq IOp(2/17=3) IOp(2/18=3)
 ------------------------------------------------------

 ---------
 b3lyp opt
 ---------
 Symbolic Z-matrix:
 Charge = -1 Multiplicity = 2

                         Standard orientation:
 ---------------------------------------------------------------------
 Center     Atomic      Atomic             Coordinates (Angstroms)
 Number     Number       Type             X           Y           Z
 ---------------------------------------------------------------------
      1          6           0        1.266244    0.394988    0.000650
      2          6           0       -1.150187    0.197707   -0.000513
      3          8           0        1.549135   -0.924797   -0.000056
      4          6           0       -2.187440   -0.418706    0.000491
      5          6           0        0.045695    0.950995   -0.000516
      6          1           0        2.161484    0.999470    0.001813
      7          1           0        0.719795   -1.427994   -0.002431
      8          1           0       -3.101986   -0.958457    0.001091
      9          1           0       -0.018239    2.035450   -0.000691
 ---------------------------------------------------------------------

 SCF Done:  E(UB3LYP) =  -230.033985603     A.U. after   32 cycles

 The electronic state is 2-A.
 Alpha  occ. eigenvalues --  -19.05397 -10.12611 -10.06666 -10.06399 -10.05123
 Alpha  occ. eigenvalues --   -0.96245  -0.68553  -0.62000  -0.53054  -0.44144
 Alpha  occ. eigenvalues --   -0.39560  -0.39086  -0.30988  -0.29876  -0.27292
 Alpha  occ. eigenvalues --   -0.20886  -0.17124  -0.11398   0.05317
 Alpha virt. eigenvalues --    0.07401   0.08997   0.09455   0.09958   0.13000
 Alpha virt. eigenvalues --    0.15080   0.15888   0.16811   0.17143   0.18196
 Alpha virt. eigenvalues --    0.20081   0.20086   0.20392   0.20969   0.21997

  Beta  occ. eigenvalues --  -19.05362 -10.12585 -10.06640 -10.06406 -10.05065
  Beta  occ. eigenvalues --   -0.96172  -0.68496  -0.61935  -0.52962  -0.44046
  Beta  occ. eigenvalues --   -0.39457  -0.38994  -0.30915  -0.29840  -0.27237
  Beta  occ. eigenvalues --   -0.20860  -0.17027  -0.11358
  Beta virt. eigenvalues --    0.08253   0.09006   0.09260   0.10453   0.11371
  Beta virt. eigenvalues --    0.13342   0.15205   0.16374   0.16769   0.17524
  Beta virt. eigenvalues --    0.18729   0.20194   0.20305   0.20752   0.21315

 Mulliken charges and spin densities:
               1          2
     1  C    2.915929  -2.888796
     2  C    7.578620  -7.712808
     3  O   -0.624721   0.019037
     4  C   -0.990320   0.845512
     5  C   -5.168227   5.136918
     6  H   -1.126913   1.309605
     7  H   -0.104660   0.385879
     8  H   -2.285518   2.570907
     9  H   -1.194189   1.333747
 Sum of Mulliken charges =  -1.00000   1.00000

 Dipole moment (field-independent basis, Debye):
    X=              3.2691    Y=             -1.2000    Z=             -0.0101  Tot=              3.4824
 Quadrupole moment (field-independent basis, Debye-Ang):
   XX=            -85.5758   YY=            -64.9489   ZZ=            -51.1489
   XY=            -10.9742   XZ=              0.0030   YZ=             -0.0006

  Exact polarizability:2806.8691026.3501922.859   0.450   0.369 314.695
 Approx polarizability:3370.9881644.0701947.655   0.379   0.345 225.935

                      1                      2                      3
                      A                      A                      A
 Frequencies --    125.2827               276.1263               365.6840
 Red. masses --      4.6252                 2.6472                 4.4452
 Frc consts  --      0.0428                 0.1189                 0.3502
 IR Inten    --      1.5479               250.3854               386.8082

                      4                      5                      6
                      A                      A                      A
 Frequencies --    511.4286               616.6107               649.0362
 Red. masses --      1.2761                 3.0871                 1.2563
 Frc consts  --      0.1967                 0.6916                 0.3118
 IR Inten    --     93.1661                 2.9711               456.1356

                      7                      8                      9
                      A                      A                      A
 Frequencies --    695.4168               728.2072               799.0236
 Red. masses --      1.3471                 3.7439                 1.4331
 Frc consts  --      0.3838                 1.1697                 0.5391
 IR Inten    --   1086.6619                27.2284                98.2945

                     10                     11                     12
                      A                      A                      A
 Frequencies --    948.7398               962.5846              1089.6779
 Red. masses --      5.7652                 1.2508                 2.3496
 Frc consts  --      3.0574                 0.6828                 1.6437
 IR Inten    --     46.4545                 5.7466               283.5018

                     13                     14                     15
                      A                      A                      A
 Frequencies --   1215.6412              1353.4220              1420.0095
 Red. masses --      1.1229                 1.5546                 1.4226
 Frc consts  --      0.9777                 1.6778                 1.6902
 IR Inten    --    921.5179                74.5676                79.0440

                     16                     17                     18
                      A                      A                      A
 Frequencies --   1662.7855              2165.1246              3095.2813
 Red. masses --      5.3697                 6.1828                 1.0883
 Frc consts  --      8.7473                17.0766                 6.1435
 IR Inten    --    204.3081               485.8157              1131.2064

                     19                     20                     21
                      A                      A                      A
 Frequencies --   3194.1000              3438.1107              3656.8625
 Red. masses --      1.0928                 1.1562                 1.0643
 Frc consts  --      6.5688                 8.0524                 8.3855
 IR Inten    --    130.1493              1282.8835              3386.2948

 - Thermochemistry -
 -------------------
 Temperature   298.150 Kelvin.  Pressure   1.00000 Atm.
 Atom     1 has atomic number  6 and mass  12.00000

 Molecular mass:    68.02621 amu.
 Principal axes and moments of inertia in atomic units:
                           1         2         3
     Eigenvalues --   132.07807 521.45129 653.52919
           X            0.99932   0.03696  -0.00001
           Y           -0.03696   0.99932   0.00007
           Z            0.00001  -0.00007   1.00000
 This molecule is an asymmetric top.
 Rotational symmetry number  1.
 Rotational temperatures (Kelvin)      0.65578     0.16610     0.13253
 Rotational constants (GHZ):          13.66420     3.46100     2.76153
 Zero-point vibrational energy     173274.0 (Joules/Mol)
                                   41.41349 (Kcal/Mol)
 Warning -- explicit consideration of   5 degrees of freedom as
           vibrations may cause significant error
 Vibrational temperatures:    180.25   397.28   526.14   735.83   887.16
          (Kelvin)            933.82  1000.55  1047.73  1149.62  1365.02
                             1384.94  1567.80  1749.03  1947.27  2043.07
                             2392.37  3115.13  4453.41  4595.59  4946.67
                             5261.40

 Zero-point correction=                           0.065997 (Hartree/Particle)
 Thermal correction to Energy=                    0.071256
 Thermal correction to Enthalpy=                  0.072200
 Thermal correction to Gibbs Free Energy=         0.037267
 Sum of electronic and zero-point Energies=           -229.967989
 Sum of electronic and thermal Energies=              -229.962729
 Sum of electronic and thermal Enthalpies=            -229.961785
 Sum of electronic and thermal Free Energies=         -229.996719

                     E (Thermal)             CV                S
                      KCal/Mol        Cal/Mol-Kelvin    Cal/Mol-Kelvin
 Total                   44.714             18.180             73.523
 Electronic               0.000              0.000              1.377
 Translational            0.889              2.981             38.570
 Rotational               0.889              2.981             25.313
 Vibrational             42.936             12.218              8.264
 Vibration     1          0.610              1.928              3.017
 Vibration     2          0.678              1.718              1.558
 Vibration     3          0.739              1.543              1.098
 Vibration     4          0.867              1.225              0.630
 Vibration     5          0.976              0.997              0.422

 Normal termination of Gaussian 09 at Thu Mar  7 17:21:36 2019.
