 Gaussian 09, Revision E.01,
 Gaussian 09:  EM64L-G09RevE.01 30-Nov-2015

 ------------------------------------------------------
 #p b3lyp/6-311++G(3df,2p) freq IOp(2/17=3) IOp(2/18=3)
 ------------------------------------------------------

 ---------
 b3lyp opt
 ---------
 Symbolic Z-matrix:
 Charge = -1 Multiplicity = 4

                         Standard orientation:
 ---------------------------------------------------------------------
 Center     Atomic      Atomic             Coordinates (Angstroms)
 Number     Number       Type             X           Y           Z
 ---------------------------------------------------------------------
      1          6           0        0.000000    1.134677    0.000000
      2          6           0       -0.817879   -0.886107    0.000000
      3          8           0       -1.198123    0.418858    0.000000
      4          6           0        0.662472   -1.099613    0.000000
      5          6           0        1.076648    0.358106    0.000000
      6          1           0       -0.115304    2.206273    0.000000
      7          1           0        1.036033   -1.649089    0.878963
      8          1           0        1.036033   -1.649089   -0.878963
      9          1           0        2.100781    0.698663    0.000000
 ---------------------------------------------------------------------

 SCF Done:  E(UB3LYP) =  -229.932982497     A.U. after   23 cycles

 The electronic state is 4-A".
 Alpha  occ. eigenvalues --  -19.06379 -10.12298 -10.10652 -10.07485 -10.05308
 Alpha  occ. eigenvalues --   -0.98471  -0.68736  -0.62069  -0.49367  -0.44029
 Alpha  occ. eigenvalues --   -0.40229  -0.35506  -0.31059  -0.28548  -0.27602
 Alpha  occ. eigenvalues --   -0.27131  -0.16874  -0.14704  -0.04635   0.05833
 Alpha virt. eigenvalues --    0.08651   0.10185   0.10543   0.12765   0.13853
 Alpha virt. eigenvalues --    0.15389   0.16851   0.17540   0.19129   0.19319
 Alpha virt. eigenvalues --    0.20389   0.21731   0.21965   0.22384   0.22952

  Beta  occ. eigenvalues --  -19.05860 -10.10560 -10.09488 -10.07322 -10.05144
  Beta  occ. eigenvalues --   -0.97065  -0.67819  -0.59915  -0.48147  -0.42180
  Beta  occ. eigenvalues --   -0.38389  -0.33056  -0.29339  -0.26840  -0.26539
  Beta  occ. eigenvalues --   -0.26441  -0.12919
  Beta virt. eigenvalues --    0.00691   0.09286   0.09310   0.10580   0.11728
  Beta virt. eigenvalues --    0.12014   0.13686   0.14908   0.15998   0.17325
  Beta virt. eigenvalues --    0.18010   0.19846   0.20565   0.20992   0.22274

 Mulliken charges and spin densities:
               1          2
     1  C    1.331925  -1.242643
     2  C   -0.004177   1.922687
     3  O   -0.595777   0.071099
     4  C    2.129848  -2.403366
     5  C    0.121274  -0.050325
     6  H   -1.425205   1.623242
     7  H   -0.526187   0.699817
     8  H   -0.526187   0.699817
     9  H   -1.505514   1.679671
 Sum of Mulliken charges =  -1.00000   3.00000

 Dipole moment (field-independent basis, Debye):
    X=             -5.4416    Y=             -2.3612    Z=             -0.0000  Tot=              5.9318
 Quadrupole moment (field-independent basis, Debye-Ang):
   XX=            -66.2808   YY=            -70.2606   ZZ=            -53.0697
   XY=             -0.2436   XZ=              0.0000   YZ=              0.0000

  Exact polarizability:1091.682-367.8162084.824   0.000  -0.000 878.339
 Approx polarizability: 831.832-436.9422074.892   0.000  -0.000 560.642

                      1                      2                      3
                     A"                     A"                     A'
 Frequencies --    199.2176               464.7437               734.2109
 Red. masses --      3.3466                 2.6643                 7.3069
 Frc consts  --      0.0783                 0.3390                 2.3207
 IR Inten    --      0.3126               102.1261               109.1828

                      4                      5                      6
                     A"                     A'                     A"
 Frequencies --    741.9942               798.5117               907.9200
 Red. masses --      1.2105                 7.3947                 1.2642
 Frc consts  --      0.3927                 2.7780                 0.6140
 IR Inten    --    532.9123               251.7816                55.9026

                      7                      8                      9
                     A'                     A"                     A'
 Frequencies --    930.8390               957.5430               962.9237
 Red. masses --      1.8911                 1.5959                 5.3416
 Frc consts  --      0.9654                 0.8621                 2.9181
 IR Inten    --     65.4437                66.1163                 3.6970

                     10                     11                     12
                     A'                     A"                     A'
 Frequencies --    999.5962              1099.5370              1135.2652
 Red. masses --      6.8112                 1.1020                 1.2333
 Frc consts  --      4.0098                 0.7850                 0.9365
 IR Inten    --     10.0729                 4.8217                48.8193

                     13                     14                     15
                     A'                     A'                     A'
 Frequencies --   1165.6436              1251.0244              1335.9118
 Red. masses --      6.5702                 1.5125                 1.6395
 Frc consts  --      5.2597                 1.3947                 1.7239
 IR Inten    --    461.0094               101.7800               283.2717

                     16                     17                     18
                     A'                     A'                     A'
 Frequencies --   1452.1937              1651.0681              2888.0776
 Red. masses --      1.0837                 5.4046                 1.0552
 Frc consts  --      1.3465                 8.6805                 5.1856
 IR Inten    --    540.9567                18.3786                96.3055

                     19                     20                     21
                     A"                     A'                     A'
 Frequencies --   2898.1832              3191.2972              3220.9134
 Red. masses --      1.1019                 1.0911                 1.1043
 Frc consts  --      5.4532                 6.5469                 6.7499
 IR Inten    --    194.3384                21.5593                 3.3434

 - Thermochemistry -
 -------------------
 Temperature   298.150 Kelvin.  Pressure   1.00000 Atm.
 Atom     1 has atomic number  6 and mass  12.00000

 Molecular mass:    68.02621 amu.
 Principal axes and moments of inertia in atomic units:
                           1         2         3
     Eigenvalues --   183.58311 224.48237 396.94345
           X            0.76487   0.64419   0.00000
           Y           -0.64419   0.76487   0.00000
           Z           -0.00000   0.00000   1.00000
 This molecule is an asymmetric top.
 Rotational symmetry number  1.
 Rotational temperatures (Kelvin)      0.47180     0.38584     0.21820
 Rotational constants (GHZ):           9.83065     8.03957     4.54660
 Zero-point vibrational energy     173378.5 (Joules/Mol)
                                   41.43845 (Kcal/Mol)
 Warning -- explicit consideration of   2 degrees of freedom as
           vibrations may cause significant error
 Vibrational temperatures:    286.63   668.66  1056.36  1067.56  1148.88
          (Kelvin)           1306.29  1339.27  1377.69  1385.43  1438.19
                             1581.99  1633.39  1677.10  1799.94  1922.08
                             2089.38  2375.52  4155.29  4169.83  4591.56
                             4634.17

 Zero-point correction=                           0.066036 (Hartree/Particle)
 Thermal correction to Energy=                    0.070279
 Thermal correction to Enthalpy=                  0.071223
 Thermal correction to Gibbs Free Energy=         0.037928
 Sum of electronic and zero-point Energies=           -229.866946
 Sum of electronic and thermal Energies=              -229.862704
 Sum of electronic and thermal Enthalpies=            -229.861759
 Sum of electronic and thermal Free Energies=         -229.895054

                     E (Thermal)             CV                S
                      KCal/Mol        Cal/Mol-Kelvin    Cal/Mol-Kelvin
 Total                   44.101             14.670             70.074
 Electronic               0.000              0.000              2.755
 Translational            0.889              2.981             38.570
 Rotational               0.889              2.981             24.307
 Vibrational             42.323              8.709              4.443
 Vibration     1          0.637              1.841              2.140
 Vibration     2          0.822              1.328              0.752

 Optimization completed.
    -- Stationary point found.
 Normal termination of Gaussian 09 at Thu Mar  7 23:51:22 2019.
