 Gaussian 09, Revision E.01,
 Gaussian 09:  EM64L-G09RevE.01 30-Nov-2015

 ------------------------------------------------------
 #p b3lyp/6-311++G(3df,2p) freq IOp(2/17=3) IOp(2/18=3)
 ------------------------------------------------------

 ---------
 b3lyp opt
 ---------
 Symbolic Z-matrix:
 Charge = -1 Multiplicity = 4

                         Standard orientation:
 ---------------------------------------------------------------------
 Center     Atomic      Atomic             Coordinates (Angstroms)
 Number     Number       Type             X           Y           Z
 ---------------------------------------------------------------------
      1          6           0       -1.077046    0.358688    0.000000
      2          6           0        0.582631   -1.055795    0.000000
      3          8           0       -0.775329   -1.004829    0.000000
      4          6           0        1.252854    0.281587    0.000000
      5          6           0        0.000000    1.134163    0.000000
      6          1           0       -2.130204    0.587767    0.000000
      7          1           0        1.891387    0.462722    0.879321
      8          1           0        1.891387    0.462722   -0.879321
      9          1           0       -0.000573    2.213565    0.000000
 ---------------------------------------------------------------------

 SCF Done:  E(UB3LYP) =  -229.932994974     A.U. after   23 cycles

 The electronic state is 4-A".
 Alpha  occ. eigenvalues --  -19.06368 -10.12289 -10.10651 -10.07486 -10.05309
 Alpha  occ. eigenvalues --   -0.98449  -0.68734  -0.62067  -0.49358  -0.44020
 Alpha  occ. eigenvalues --   -0.40230  -0.35502  -0.31047  -0.28550  -0.27613
 Alpha  occ. eigenvalues --   -0.27119  -0.16861  -0.14712  -0.04624   0.05829
 Alpha virt. eigenvalues --    0.08653   0.10187   0.10536   0.12764   0.13853
 Alpha virt. eigenvalues --    0.15385   0.16829   0.17523   0.19129   0.19318
 Alpha virt. eigenvalues --    0.20391   0.21723   0.21963   0.22378   0.22952

  Beta  occ. eigenvalues --  -19.05848 -10.10559 -10.09479 -10.07323 -10.05145
  Beta  occ. eigenvalues --   -0.97041  -0.67819  -0.59915  -0.48136  -0.42169
  Beta  occ. eigenvalues --   -0.38392  -0.33054  -0.29330  -0.26838  -0.26535
  Beta  occ. eigenvalues --   -0.26439  -0.12929
  Beta virt. eigenvalues --    0.00699   0.09295   0.09306   0.10580   0.11723
  Beta virt. eigenvalues --    0.12015   0.13687   0.14907   0.15996   0.17307
  Beta virt. eigenvalues --    0.17997   0.19843   0.20566   0.20990   0.22266

 Mulliken charges and spin densities:
               1          2
     1  C    1.332743  -1.243769
     2  C    0.000150   1.918603
     3  O   -0.594770   0.070212
     4  C    2.126431  -2.400305
     5  C    0.121709  -0.050158
     6  H   -1.426267   1.624601
     7  H   -0.525824   0.699469
     8  H   -0.525824   0.699469
     9  H   -1.508348   1.681876
 Sum of Mulliken charges =  -1.00000   3.00000

 Dipole moment (field-independent basis, Debye):
    X=              0.5230    Y=             -5.9036    Z=             -0.0000  Tot=              5.9267
 Quadrupole moment (field-independent basis, Debye-Ang):
   XX=            -69.6456   YY=            -66.8167   ZZ=            -53.1119
   XY=              1.3943   XZ=             -0.0000   YZ=             -0.0000

  Exact polarizability:2186.286  -1.519 974.462   0.000  -0.000 882.711
 Approx polarizability:2204.979 -22.996 692.820   0.000  -0.000 562.402

                      1                      2                      3
                     A"                     A"                     A'
 Frequencies --    199.1060               464.7889               734.6737
 Red. masses --      3.3431                 2.6606                 7.3265
 Frc consts  --      0.0781                 0.3386                 2.3299
 IR Inten    --      0.4227                99.8442               103.4766

                      4                      5                      6
                     A"                     A'                     A"
 Frequencies --    744.9256               797.7393               906.0094
 Red. masses --      1.2172                 7.3990                 1.2602
 Frc consts  --      0.3979                 2.7743                 0.6095
 IR Inten    --    522.1528               250.3323                52.7788

                      7                      8                      9
                     A'                     A"                     A'
 Frequencies --    930.9587               957.0198               961.5966
 Red. masses --      1.9066                 1.5896                 5.4196
 Frc consts  --      0.9736                 0.8578                 2.9526
 IR Inten    --     66.7016                73.7986                 2.1819

                     10                     11                     12
                     A'                     A"                     A'
 Frequencies --    997.4765              1098.9730              1136.1969
 Red. masses --      6.9698                 1.1034                 1.2231
 Frc consts  --      4.0858                 0.7852                 0.9303
 IR Inten    --     10.1525                 5.6456                57.0298

                     13                     14                     15
                     A'                     A'                     A'
 Frequencies --   1166.0335              1251.1907              1336.0513
 Red. masses --      6.4732                 1.5062                 1.6412
 Frc consts  --      5.1855                 1.3892                 1.7260
 IR Inten    --    458.1829                99.9978               278.3975

                     16                     17                     18
                     A'                     A'                     A'
 Frequencies --   1452.3962              1652.0571              2889.2192
 Red. masses --      1.0839                 5.4117                 1.0552
 Frc consts  --      1.3471                 8.7023                 5.1897
 IR Inten    --    552.4243                21.1492                99.3268

                     19                     20                     21
                     A"                     A'                     A'
 Frequencies --   2900.1298              3190.5347              3220.4682
 Red. masses --      1.1020                 1.0912                 1.1042
 Frc consts  --      5.4611                 6.5443                 6.7477
 IR Inten    --    191.8822                15.5863                 6.4559

 - Thermochemistry -
 -------------------
 Temperature   298.150 Kelvin.  Pressure   1.00000 Atm.
 Atom     1 has atomic number  6 and mass  12.00000

 Molecular mass:    68.02621 amu.
 Principal axes and moments of inertia in atomic units:
                           1         2         3
     Eigenvalues --   183.63296 224.47311 396.97498
           X            0.85321  -0.52157   0.00000
           Y            0.52157   0.85321   0.00000
           Z           -0.00000   0.00000   1.00000
 This molecule is an asymmetric top.
 Rotational symmetry number  1.
 Rotational temperatures (Kelvin)      0.47167     0.38585     0.21818
 Rotational constants (GHZ):           9.82798     8.03990     4.54623
 Zero-point vibrational energy     173384.0 (Joules/Mol)
                                   41.43978 (Kcal/Mol)
 Warning -- explicit consideration of   2 degrees of freedom as
           vibrations may cause significant error
 Vibrational temperatures:    286.47   668.73  1057.03  1071.78  1147.77
          (Kelvin)           1303.54  1339.44  1376.94  1383.52  1435.14
                             1581.18  1634.73  1677.66  1800.18  1922.28
                             2089.67  2376.94  4156.94  4172.63  4590.46
                             4633.53

 Zero-point correction=                           0.066038 (Hartree/Particle)
 Thermal correction to Energy=                    0.070281
 Thermal correction to Enthalpy=                  0.071225
 Thermal correction to Gibbs Free Energy=         0.037930
 Sum of electronic and zero-point Energies=           -229.866956
 Sum of electronic and thermal Energies=              -229.862714
 Sum of electronic and thermal Enthalpies=            -229.861770
 Sum of electronic and thermal Free Energies=         -229.895065

                     E (Thermal)             CV                S
                      KCal/Mol        Cal/Mol-Kelvin    Cal/Mol-Kelvin
 Total                   44.102             14.672             70.075
 Electronic               0.000              0.000              2.755
 Translational            0.889              2.981             38.570
 Rotational               0.889              2.981             24.307
 Vibrational             42.325              8.710              4.444
 Vibration     1          0.637              1.841              2.141
 Vibration     2          0.822              1.328              0.752

 Optimization completed.
    -- Stationary point found.
 Normal termination of Gaussian 09 at Thu Mar  7 17:38:09 2019.
