 Gaussian 09, Revision E.01,
 Gaussian 09:  EM64L-G09RevE.01 30-Nov-2015

 ------------------------------------------------------
 #p b3lyp/6-311++G(3df,2p) freq IOp(2/17=3) IOp(2/18=3)
 ------------------------------------------------------

 ---------
 b3lyp opt
 ---------
 Symbolic Z-matrix:
 Charge = -1 Multiplicity = 2

                         Standard orientation:
 ---------------------------------------------------------------------
 Center     Atomic      Atomic             Coordinates (Angstroms)
 Number     Number       Type             X           Y           Z
 ---------------------------------------------------------------------
      1          8           0        2.371112   -0.495430    0.017375
      2          6           0       -2.472082   -0.157722    0.142938
      3          6           0       -1.113058    0.106517   -0.368621
      4          6           0        0.093137    0.201335   -0.074123
      5          6           0        1.463912    0.387410    0.085858
      6          1           0       -2.498673   -0.275040    1.243898
      7          1           0       -2.891429   -1.071291   -0.289395
      8          1           0       -3.166095    0.648229   -0.112445
      9          1           0        1.755850    1.436308    0.302631
 ---------------------------------------------------------------------

 SCF Done:  E(UB3LYP) =  -230.071951529     A.U. after   23 cycles

 The electronic state is 2-A.
 Alpha  occ. eigenvalues --  -18.89473 -10.03975 -10.03354  -9.98558  -9.97766
 Alpha  occ. eigenvalues --   -0.80475  -0.61266  -0.54351  -0.45166  -0.31256
 Alpha  occ. eigenvalues --   -0.28252  -0.27380  -0.26772  -0.23111  -0.19387
 Alpha  occ. eigenvalues --   -0.09865  -0.08291  -0.06013   0.04146
 Alpha virt. eigenvalues --    0.09643   0.12515   0.12693   0.13211   0.16716
 Alpha virt. eigenvalues --    0.18206   0.19109   0.20045   0.20256   0.21518
 Alpha virt. eigenvalues --    0.21982   0.22072   0.22605   0.24806   0.25225

  Beta  occ. eigenvalues --  -18.88743 -10.03643 -10.03292  -9.98031  -9.97764
  Beta  occ. eigenvalues --   -0.79131  -0.60627  -0.53791  -0.44048  -0.30712
  Beta  occ. eigenvalues --   -0.27722  -0.27194  -0.26352  -0.22336  -0.16271
  Beta  occ. eigenvalues --   -0.08018  -0.06887  -0.05361
  Beta virt. eigenvalues --    0.09204   0.12271   0.12598   0.13037   0.13323
  Beta virt. eigenvalues --    0.17022   0.18232   0.19293   0.20162   0.20202
  Beta virt. eigenvalues --    0.21580   0.22014   0.22378   0.22827   0.24932

 Mulliken charges and spin densities:
               1          2
     1  O   -0.767761   0.242245
     2  C    0.145514  -0.607760
     3  C   -0.727860   0.479285
     4  C    0.681775   0.150807
     5  C   -0.342883   0.364510
     6  H   -0.113523   0.259135
     7  H    0.049384   0.067949
     8  H    0.060289   0.053780
     9  H    0.015066  -0.009951
 Sum of Mulliken charges =  -1.00000   1.00000

 Dipole moment (field-independent basis, Debye):
    X=             -3.5384    Y=              1.0710    Z=              0.4463  Tot=              3.7238
 Quadrupole moment (field-independent basis, Debye-Ang):
   XX=            -55.5893   YY=            -36.3351   ZZ=            -38.3783
   XY=              3.9460   XZ=              0.2090   YZ=              0.3599

  Exact polarizability: 264.824  18.281  79.924 -39.951  -6.292 132.232
 Approx polarizability: 319.218  11.620  98.014 -27.200  -3.616 135.386

                      1                      2                      3
                      A                      A                      A
 Frequencies --    103.4846               140.3422               180.0651
 Red. masses --      1.2025                 4.2783                 3.1087
 Frc consts  --      0.0076                 0.0496                 0.0594
 IR Inten    --      1.0327                 8.0880                20.3166

                      4                      5                      6
                      A                      A                      A
 Frequencies --    308.6160               384.2520               597.7339
 Red. masses --      4.7068                 4.9005                 7.6587
 Frc consts  --      0.2641                 0.4263                 1.6122
 IR Inten    --     10.6536                14.5301                41.7185

                      7                      8                      9
                      A                      A                      A
 Frequencies --    796.5929               828.7249              1015.7121
 Red. masses --      1.6776                 5.2304                 1.3801
 Frc consts  --      0.6272                 2.1164                 0.8389
 IR Inten    --     10.1669                40.5223                42.2846

                     10                     11                     12
                      A                      A                      A
 Frequencies --   1049.2358              1157.0147              1336.3875
 Red. masses --      1.3725                 5.3060                 1.4472
 Frc consts  --      0.8903                 4.1850                 1.5228
 IR Inten    --      2.3724                25.7704               492.6457

                     13                     14                     15
                      A                      A                      A
 Frequencies --   1384.9601              1467.3485              1475.6905
 Red. masses --      1.2130                 1.0494                 1.0613
 Frc consts  --      1.3708                 1.3313                 1.3617
 IR Inten    --      1.8054                 7.4442                 8.3856

                     16                     17                     18
                      A                      A                      A
 Frequencies --   1497.1697              2031.0588              2820.1660
 Red. masses --      3.6675                11.6375                 1.0743
 Frc consts  --      4.8436                28.2849                 5.0341
 IR Inten    --   1265.8203               433.3489               304.1446

                     19                     20                     21
                      A                      A                      A
 Frequencies --   2839.7297              2999.1454              3020.8176
 Red. masses --      1.0652                 1.0625                 1.0995
 Frc consts  --      5.0608                 5.6306                 5.9113
 IR Inten    --    649.1141                27.4021                19.3072

 - Thermochemistry -
 -------------------
 Temperature   298.150 Kelvin.  Pressure   1.00000 Atm.
 Atom     1 has atomic number  8 and mass  15.99491

 Molecular mass:    68.02621 amu.
 Principal axes and moments of inertia in atomic units:
                           1         2         3
     Eigenvalues --    50.18469 839.33020 862.80125
           X            0.99980   0.01905  -0.00566
           Y           -0.01876   0.99869   0.04754
           Z            0.00655  -0.04742   0.99885
 This molecule is an asymmetric top.
 Rotational symmetry number  1.
 Rotational temperatures (Kelvin)      1.72590     0.10319     0.10039
 Rotational constants (GHZ):          35.96199     2.15022     2.09172
 Zero-point vibrational energy     164093.2 (Joules/Mol)
                                   39.21923 (Kcal/Mol)
 Warning -- explicit consideration of   6 degrees of freedom as
           vibrations may cause significant error
 Vibrational temperatures:    148.89   201.92   259.07   444.03   552.85
          (Kelvin)            860.00  1146.12  1192.35  1461.38  1509.61
                             1664.68  1922.76  1992.65  2111.18  2123.19
                             2154.09  2922.24  4057.58  4085.73  4315.10
                             4346.28

 Zero-point correction=                           0.062500 (Hartree/Particle)
 Thermal correction to Energy=                    0.068478
 Thermal correction to Enthalpy=                  0.069422
 Thermal correction to Gibbs Free Energy=         0.032790
 Sum of electronic and zero-point Energies=           -230.009452
 Sum of electronic and thermal Energies=              -230.003474
 Sum of electronic and thermal Enthalpies=            -230.002529
 Sum of electronic and thermal Free Energies=         -230.039161

                     E (Thermal)             CV                S
                      KCal/Mol        Cal/Mol-Kelvin    Cal/Mol-Kelvin
 Total                   42.971             18.563             77.099
 Electronic               0.000              0.000              1.377
 Translational            0.889              2.981             38.570
 Rotational               0.889              2.981             25.100
 Vibrational             41.193             12.602             12.052
 Vibration     1          0.605              1.946              3.388
 Vibration     2          0.615              1.913              2.799
 Vibration     3          0.629              1.867              2.328
 Vibration     4          0.698              1.657              1.370
 Vibration     5          0.753              1.504              1.022
 Vibration     6          0.956              1.037              0.454

 Optimization completed.
    -- Stationary point found.
 Normal termination of Gaussian 09 at Thu Mar  7 13:18:23 2019.
