 Gaussian 09, Revision E.01,
 Gaussian 09:  EM64L-G09RevE.01 30-Nov-2015

 ------------------------------------------------------
 #p b3lyp/6-311++G(3df,2p) freq IOp(2/17=3) IOp(2/18=3)
 ------------------------------------------------------

 ---------
 b3lyp opt
 ---------
 Symbolic Z-matrix:
 Charge = -1 Multiplicity = 4

                         Standard orientation:
 ---------------------------------------------------------------------
 Center     Atomic      Atomic             Coordinates (Angstroms)
 Number     Number       Type             X           Y           Z
 ---------------------------------------------------------------------
      1          8           0        2.310336    0.017346   -0.000000
      2          6           0       -1.839156   -0.947302    0.000000
      3          6           0        1.091560   -0.205227   -0.000000
      4          6           0       -1.363784    0.413035    0.000000
      5          6           0       -0.000000    0.708344    0.000000
      6          1           0       -2.896417   -1.180977    0.000000
      7          1           0       -1.135036   -1.766315    0.000000
      8          1           0       -2.073950    1.230159    0.000000
      9          1           0        0.290993    1.765264   -0.000000
 ---------------------------------------------------------------------

 SCF Done:  E(UB3LYP) =  -230.010424306     A.U. after   16 cycles

 The electronic state is 4-A'.
 Alpha  occ. eigenvalues --  -18.93651 -10.02542 -10.01501 -10.00632  -9.98406
 Alpha  occ. eigenvalues --   -0.84404  -0.62257  -0.52703  -0.42884  -0.32792
 Alpha  occ. eigenvalues --   -0.30785  -0.26346  -0.22698  -0.21941  -0.20696
 Alpha  occ. eigenvalues --   -0.17892  -0.14961  -0.04652   0.00432   0.07829
 Alpha virt. eigenvalues --    0.10838   0.12120   0.13590   0.14933   0.17792
 Alpha virt. eigenvalues --    0.19337   0.21603   0.21847   0.22115   0.22153
 Alpha virt. eigenvalues --    0.22588   0.23566   0.24128   0.24996   0.26089

  Beta  occ. eigenvalues --  -18.92128 -10.01156 -10.00798  -9.99587  -9.97966
  Beta  occ. eigenvalues --   -0.81400  -0.60075  -0.49591  -0.40213  -0.30813
  Beta  occ. eigenvalues --   -0.29625  -0.24199  -0.21236  -0.19669  -0.17042
  Beta  occ. eigenvalues --   -0.13358  -0.09424
  Beta virt. eigenvalues --    0.06653   0.10536   0.11773   0.12660   0.14814
  Beta virt. eigenvalues --    0.15355   0.16620   0.17826   0.20219   0.21893
  Beta virt. eigenvalues --    0.22264   0.22589   0.23641   0.23849   0.24230

 Mulliken charges and spin densities:
               1          2
     1  O   -0.612280   0.425904
     2  C   -0.737701   0.963337
     3  C   -0.127091   1.285031
     4  C   -0.161357   0.388368
     5  C    0.277957  -0.126327
     6  H    0.108998  -0.029705
     7  H    0.128892   0.003722
     8  H    0.124643  -0.041476
     9  H   -0.002060   0.131145
 Sum of Mulliken charges =  -1.00000   3.00000

 Dipole moment (field-independent basis, Debye):
    X=             -2.3198    Y=              1.2719    Z=              0.0000  Tot=              2.6456
 Quadrupole moment (field-independent basis, Debye-Ang):
   XX=            -52.8734   YY=            -37.4549   ZZ=            -38.7311
   XY=             -1.2299   XZ=              0.0000   YZ=             -0.0000

  Exact polarizability: 128.258  16.069  96.373   2.229  -2.410 -46.862
 Approx polarizability: 186.656  14.398 118.999  -0.000  -0.000 102.966

                      1                      2                      3
                     A"                     A"                     A"
 Frequencies --    192.5865               219.6795               265.0503
 Red. masses --      4.0294                 1.2004                 3.7485
 Frc consts  --      0.0881                 0.0341                 0.1552
 IR Inten    --      0.7278                48.8133                 0.6577

                      4                      5                      6
                     A"                     A"                     A"
 Frequencies --    393.0742               407.0560               489.9827
 Red. masses --      1.3291                 5.2554                 1.1733
 Frc consts  --      0.1210                 0.5131                 0.1660
 IR Inten    --     99.6596                 1.5688                21.6437

                      7                      8                      9
                     A"                     A"                     A"
 Frequencies --    622.5664               628.4196               942.6690
 Red. masses --      3.1559                 1.7461                 2.0407
 Frc consts  --      0.7207                 0.4063                 1.0684
 IR Inten    --     30.5067              1038.9729               481.4756

                     10                     11                     12
                     A"                     A"                     A"
 Frequencies --    953.1026               972.3082              1076.0394
 Red. masses --      2.2337                 3.8382                 1.9278
 Frc consts  --      1.1955                 2.1379                 1.3152
 IR Inten    --   1675.2717                71.3721                49.4711

                     13                     14                     15
                     A"                     A'                     A"
 Frequencies --   1222.1443              1361.2199              1442.7347
 Red. masses --      1.3861                 1.4137                 1.5399
 Frc consts  --      1.2198                 1.5433                 1.8885
 IR Inten    --     58.8461                63.6895               201.1726

                     16                     17                     18
                     A"                     A"                     A'
 Frequencies --   1470.5709              1651.0841              2987.8642
 Red. masses --      2.6270                11.3859                 1.0821
 Frc consts  --      3.3472                18.2876                 5.6918
 IR Inten    --    497.4989               105.6608               155.4490

                     19                     20                     21
                     A'                     A'                     A'
 Frequencies --   3124.8343              3151.7446              3227.7050
 Red. masses --      1.0548                 1.0862                 1.1139
 Frc consts  --      6.0683                 6.3574                 6.8375
 IR Inten    --     67.8914                24.6705                18.0101

 - Thermochemistry -
 -------------------
 Temperature   298.150 Kelvin.  Pressure   1.00000 Atm.
 Atom     1 has atomic number  8 and mass  15.99491

 Molecular mass:    68.02621 amu.
 Principal axes and moments of inertia in atomic units:
                           1         2         3
     Eigenvalues --    96.23915 635.22557 731.46472
           X            0.99464  -0.10337   0.00000
           Y            0.10337   0.99464   0.00000
           Z           -0.00000   0.00000   1.00000
 This molecule is an asymmetric top.
 Rotational symmetry number  1.
 Rotational temperatures (Kelvin)      0.89999     0.13635     0.11841
 Rotational constants (GHZ):          18.75267     2.84110     2.46730
 Zero-point vibrational energy     160314.2 (Joules/Mol)
                                   38.31601 (Kcal/Mol)
 Warning -- explicit consideration of   6 degrees of freedom as
           vibrations may cause significant error
 Vibrational temperatures:    277.09   316.07   381.35   565.55   585.66
          (Kelvin)            704.97   895.73   904.15  1356.29  1371.30
                             1398.93  1548.18  1758.39  1958.49  2075.77
                             2115.82  2375.54  4298.86  4495.93  4534.65
                             4643.94

 Zero-point correction=                           0.061060 (Hartree/Particle)
 Thermal correction to Energy=                    0.066802
 Thermal correction to Enthalpy=                  0.067746
 Thermal correction to Gibbs Free Energy=         0.031472
 Sum of electronic and zero-point Energies=           -229.949364
 Sum of electronic and thermal Energies=              -229.943622
 Sum of electronic and thermal Enthalpies=            -229.942678
 Sum of electronic and thermal Free Energies=         -229.978953

                     E (Thermal)             CV                S
                      KCal/Mol        Cal/Mol-Kelvin    Cal/Mol-Kelvin
 Total                   41.919             19.644             76.346
 Electronic               0.000              0.000              2.755
 Translational            0.889              2.981             38.570
 Rotational               0.889              2.981             25.306
 Vibrational             40.141             13.683              9.715
 Vibration     1          0.635              1.850              2.203
 Vibration     2          0.647              1.811              1.962
 Vibration     3          0.671              1.737              1.628
 Vibration     4          0.760              1.485              0.988
 Vibration     5          0.772              1.455              0.937
 Vibration     6          0.846              1.272              0.684

 Optimization completed.
    -- Stationary point found.
 Normal termination of Gaussian 09 at Fri Mar  8 06:25:27 2019.
