 Gaussian 09, Revision E.01,
 Gaussian 09:  EM64L-G09RevE.01 30-Nov-2015

 ------------------------------------------------------
 #p b3lyp/6-311++G(3df,2p) freq IOp(2/17=3) IOp(2/18=3)
 ------------------------------------------------------

 ---------
 b3lyp opt
 ---------
 Symbolic Z-matrix:
 Charge = -1 Multiplicity = 2

                         Standard orientation:
 ---------------------------------------------------------------------
 Center     Atomic      Atomic             Coordinates (Angstroms)
 Number     Number       Type             X           Y           Z
 ---------------------------------------------------------------------
      1          6           0        1.447896    0.252439   -0.001056
      2          6           0       -1.590751   -0.786086   -0.000267
      3          8           0        1.443549   -0.940373    0.000682
      4          6           0       -1.294142    0.506342    0.000682
      5          6           0        0.027055    1.136899    0.000033
      6          1           0        0.176911    1.786919   -0.868918
      7          1           0       -0.821859   -1.568611   -0.001548
      8          1           0       -2.622089   -1.139275   -0.000574
      9          1           0        0.178296    1.786392    0.869226
 ---------------------------------------------------------------------

 SCF Done:  E(UB3LYP) =  -230.031371736     A.U. after   19 cycles

 The electronic state is 2-A.
 Alpha  occ. eigenvalues --  -18.96716 -10.05850 -10.00804  -9.97210  -9.97119
 Alpha  occ. eigenvalues --   -0.89028  -0.59673  -0.51521  -0.36941  -0.33485
 Alpha  occ. eigenvalues --   -0.27732  -0.26439  -0.24879  -0.21732  -0.21041
 Alpha  occ. eigenvalues --   -0.18070  -0.07263  -0.05123   0.02911
 Alpha virt. eigenvalues --    0.11850   0.12902   0.14172   0.14799   0.15961
 Alpha virt. eigenvalues --    0.17468   0.18247   0.18883   0.21468   0.22227
 Alpha virt. eigenvalues --    0.22284   0.22468   0.23877   0.25485   0.26411

  Beta  occ. eigenvalues --  -18.96195 -10.05425 -10.00601  -9.97182  -9.96575
  Beta  occ. eigenvalues --   -0.88080  -0.58839  -0.50987  -0.35666  -0.32736
  Beta  occ. eigenvalues --   -0.26261  -0.26222  -0.24017  -0.20695  -0.20044
  Beta  occ. eigenvalues --   -0.16827  -0.07063  -0.00732
  Beta virt. eigenvalues --    0.10852   0.11973   0.13119   0.14230   0.14874
  Beta virt. eigenvalues --    0.16454   0.17569   0.18585   0.19641   0.21478
  Beta virt. eigenvalues --    0.22296   0.22418   0.22550   0.23900   0.25571

 Mulliken charges and spin densities:
               1          2
     1  C   -0.392701   0.460670
     2  C   -0.459297  -0.056578
     3  O   -0.477450   0.133787
     4  C   -0.227681   0.449284
     5  C    0.229506  -0.026783
     6  H    0.070519   0.005255
     7  H    0.088370   0.019789
     8  H    0.098213   0.009254
     9  H    0.070520   0.005322
 Sum of Mulliken charges =  -1.00000   1.00000

 Dipole moment (field-independent basis, Debye):
    X=              0.2479    Y=             -0.4563    Z=             -0.0006  Tot=              0.5193
 Quadrupole moment (field-independent basis, Debye-Ang):
   XX=            -53.6219   YY=            -40.3124   ZZ=            -35.1840
   XY=              2.4480   XZ=              0.0132   YZ=              0.0044

  Exact polarizability: 171.846  11.309  95.885  -0.073   0.008  62.164
 Approx polarizability: 218.008  -3.137 138.710  -0.083   0.016  84.134

                      1                      2                      3
                      A                      A                      A
 Frequencies --     89.2256               197.4850               203.1712
 Red. masses --      5.0750                 4.9945                 1.9161
 Frc consts  --      0.0238                 0.1148                 0.0466
 IR Inten    --      1.8015                 8.2095                30.9644

                      4                      5                      6
                      A                      A                      A
 Frequencies --    349.3665               398.6370               553.6565
 Red. masses --      5.8343                 6.3530                 1.1377
 Frc consts  --      0.4196                 0.5948                 0.2055
 IR Inten    --    125.3206                23.0729                 4.2413

                      7                      8                      9
                      A                      A                      A
 Frequencies --    672.9230               831.2453               879.3910
 Red. masses --      4.8091                 1.5859                 1.3792
 Frc consts  --      1.2830                 0.6456                 0.6284
 IR Inten    --     15.3771                26.0483                35.6675

                     10                     11                     12
                      A                      A                      A
 Frequencies --    923.0740              1056.9471              1160.8970
 Red. masses --      4.4590                 1.5251                 1.0840
 Frc consts  --      2.2385                 1.0038                 0.8607
 IR Inten    --     54.9561               153.5292                 1.6302

                     13                     14                     15
                      A                      A                      A
 Frequencies --   1169.9358              1408.9477              1414.0453
 Red. masses --      1.1559                 1.0967                 1.1560
 Frc consts  --      0.9322                 1.2827                 1.3618
 IR Inten    --     55.3398                12.7133                56.9498

                     16                     17                     18
                      A                      A                      A
 Frequencies --   1640.0539              1761.9468              2966.8458
 Red. masses --      6.4208                11.6295                 1.0640
 Frc consts  --     10.1756                21.2714                 5.5180
 IR Inten    --     65.9007               436.5149               103.6096

                     19                     20                     21
                      A                      A                      A
 Frequencies --   2990.1066              3011.4220              3045.1639
 Red. masses --      1.0591                 1.1010                 1.0969
 Frc consts  --      5.5790                 5.8828                 5.9931
 IR Inten    --     45.7621                21.9574                71.4956

 - Thermochemistry -
 -------------------
 Temperature   298.150 Kelvin.  Pressure   1.00000 Atm.
 Atom     1 has atomic number  6 and mass  12.00000

 Molecular mass:    68.02621 amu.
 Principal axes and moments of inertia in atomic units:
                           1         2         3
     Eigenvalues --   186.73296 422.71721 598.57684
           X            0.99731   0.07325   0.00004
           Y           -0.07325   0.99731   0.00007
           Z           -0.00003  -0.00007   1.00000
 This molecule is an asymmetric top.
 Rotational symmetry number  1.
 Rotational temperatures (Kelvin)      0.46384     0.20490     0.14470
 Rotational constants (GHZ):           9.66482     4.26938     3.01505
 Zero-point vibrational energy     159847.9 (Joules/Mol)
                                   38.20457 (Kcal/Mol)
 Warning -- explicit consideration of   6 degrees of freedom as
           vibrations may cause significant error
 Vibrational temperatures:    128.38   284.14   292.32   502.66   573.55
          (Kelvin)            796.59   968.18  1195.98  1265.25  1328.10
                             1520.71  1670.27  1683.27  2027.16  2034.49
                             2359.67  2535.05  4268.62  4302.09  4332.76
                             4381.31

 Zero-point correction=                           0.060883 (Hartree/Particle)
 Thermal correction to Energy=                    0.066840
 Thermal correction to Enthalpy=                  0.067784
 Thermal correction to Gibbs Free Energy=         0.031229
 Sum of electronic and zero-point Energies=           -229.970489
 Sum of electronic and thermal Energies=              -229.964532
 Sum of electronic and thermal Enthalpies=            -229.963588
 Sum of electronic and thermal Free Energies=         -230.000142

                     E (Thermal)             CV                S
                      KCal/Mol        Cal/Mol-Kelvin    Cal/Mol-Kelvin
 Total                   41.943             19.314             76.935
 Electronic               0.000              0.000              1.377
 Translational            0.889              2.981             38.570
 Rotational               0.889              2.981             25.361
 Vibrational             40.165             13.353             11.627
 Vibration     1          0.602              1.957              3.677
 Vibration     2          0.637              1.843              2.156
 Vibration     3          0.639              1.835              2.104
 Vibration     4          0.727              1.577              1.169
 Vibration     5          0.765              1.473              0.968
 Vibration     6          0.909              1.132              0.537

 Normal termination of Gaussian 09 at Thu Mar  7 14:09:43 2019.
