 Gaussian 09, Revision E.01,
 Gaussian 09:  EM64L-G09RevE.01 30-Nov-2015

 ------------------------------------------------------
 #p b3lyp/6-311++G(3df,2p) freq IOp(2/17=3) IOp(2/18=3)
 ------------------------------------------------------

 ---------
 b3lyp opt
 ---------
 Symbolic Z-matrix:
 Charge = -1 Multiplicity = 4

                         Standard orientation:
 ---------------------------------------------------------------------
 Center     Atomic      Atomic             Coordinates (Angstroms)
 Number     Number       Type             X           Y           Z
 ---------------------------------------------------------------------
      1          6           0        1.170263    0.083785   -0.492720
      2          6           0       -2.310238   -0.182160   -0.182603
      3          8           0        2.106296   -0.470598    0.063456
      4          6           0       -1.054020   -0.239092    0.322266
      5          6           0        0.011195    0.807350    0.130109
      6          1           0        0.331643    1.283520    1.082404
      7          1           0       -2.960850   -0.874748   -0.707003
      8          1           0       -0.764883   -1.054358    0.987378
      9          1           0       -0.359480    1.591066   -0.532738
 ---------------------------------------------------------------------

 SCF Done:  E(UB3LYP) =  -229.957240604     A.U. after   20 cycles

 The electronic state is 4-A.
 Alpha  occ. eigenvalues --  -18.95334 -10.04904 -10.02443 -10.00319 -10.00230
 Alpha  occ. eigenvalues --   -0.86723  -0.62898  -0.53327  -0.39058  -0.36002
 Alpha  occ. eigenvalues --   -0.30394  -0.27758  -0.25501  -0.24184  -0.20035
 Alpha  occ. eigenvalues --   -0.18807  -0.10779  -0.04708  -0.01042   0.06645
 Alpha virt. eigenvalues --    0.11488   0.12323   0.13401   0.14492   0.15470
 Alpha virt. eigenvalues --    0.16884   0.19194   0.20289   0.20610   0.20888
 Alpha virt. eigenvalues --    0.22855   0.23680   0.24597   0.25248   0.25291

  Beta  occ. eigenvalues --  -18.94135 -10.03536 -10.02109 -10.00107  -9.98564
  Beta  occ. eigenvalues --   -0.84358  -0.61216  -0.50547  -0.36080  -0.33616
  Beta  occ. eigenvalues --   -0.28667  -0.26152  -0.23229  -0.21827  -0.17220
  Beta  occ. eigenvalues --   -0.15024  -0.07366
  Beta virt. eigenvalues --    0.08830   0.10864   0.11972   0.13003   0.13528
  Beta virt. eigenvalues --    0.14764   0.15236   0.16806   0.18405   0.19862
  Beta virt. eigenvalues --    0.20688   0.21441   0.22761   0.23371   0.23849

 Mulliken charges and spin densities:
               1          2
     1  C   -0.114336   1.225502
     2  C   -0.656466   1.280014
     3  O   -0.609804   0.326620
     4  C   -0.055525   0.070344
     5  C    0.344245  -0.414550
     6  H   -0.181970   0.329795
     7  H    0.141373   0.020100
     8  H    0.088869   0.093113
     9  H    0.043613   0.069061
 Sum of Mulliken charges =  -1.00000   3.00000

 Dipole moment (field-independent basis, Debye):
    X=              0.2196    Y=              0.0529    Z=              0.0645  Tot=              0.2349
 Quadrupole moment (field-independent basis, Debye-Ang):
   XX=            -59.8487   YY=            -37.5792   ZZ=            -38.8363
   XY=              3.7685   XZ=              1.9445   YZ=             -1.7867

  Exact polarizability: 212.656  19.358 156.815   5.513  68.038 149.531
 Approx polarizability: 301.317   9.156 145.482 -12.346  37.631 139.693

                      1                      2                      3
                      A                      A                      A
 Frequencies --    108.7785               139.9255               201.1067
 Red. masses --      2.1189                 5.9700                 1.6552
 Frc consts  --      0.0148                 0.0689                 0.0394
 IR Inten    --    284.9669                 1.1896               650.5719

                      4                      5                      6
                      A                      A                      A
 Frequencies --    385.0223               420.5131               504.7995
 Red. masses --      5.0153                 2.5289                 3.1186
 Frc consts  --      0.4380                 0.2635                 0.4682
 IR Inten    --    124.4932                78.6903                25.7874

                      7                      8                      9
                      A                      A                      A
 Frequencies --    583.3644               759.8203               869.3771
 Red. masses --      1.4046                 1.2809                 3.8360
 Frc consts  --      0.2816                 0.4357                 1.7082
 IR Inten    --    194.9568               165.8422                64.6865

                     10                     11                     12
                      A                      A                      A
 Frequencies --    918.8769               997.6406              1151.6016
 Red. masses --      2.5488                 3.2855                 1.1620
 Frc consts  --      1.2679                 1.9266                 0.9079
 IR Inten    --     93.9209               114.7656                15.3074

                     13                     14                     15
                      A                      A                      A
 Frequencies --   1199.4799              1250.5730              1426.2553
 Red. masses --      1.3301                 1.2264                 1.0962
 Frc consts  --      1.1275                 1.1300                 1.3138
 IR Inten    --     72.1212                42.2699                 4.5726

                     16                     17                     18
                      A                      A                      A
 Frequencies --   1431.6821              1624.3307              2765.2215
 Red. masses --      3.8852                 9.5745                 1.0696
 Frc consts  --      4.6920                14.8839                 4.8189
 IR Inten    --    665.4087              1522.7767              1025.7996

                     19                     20                     21
                      A                      A                      A
 Frequencies --   3031.3065              3044.5708              3059.8907
 Red. masses --      1.0790                 1.0868                 1.0976
 Frc consts  --      5.8413                 5.9355                 6.0550
 IR Inten    --     40.3998                68.1692               310.7646

 - Thermochemistry -
 -------------------
 Temperature   298.150 Kelvin.  Pressure   1.00000 Atm.
 Atom     1 has atomic number  6 and mass  12.00000

 Molecular mass:    68.02621 amu.
 Principal axes and moments of inertia in atomic units:
                           1         2         3
     Eigenvalues --    93.94959 650.18477 688.79894
           X            0.99973   0.02017   0.01128
           Y           -0.02034   0.99968   0.01517
           Z           -0.01097  -0.01540   0.99982
 This molecule is an asymmetric top.
 Rotational symmetry number  1.
 Rotational temperatures (Kelvin)      0.92192     0.13321     0.12575
 Rotational constants (GHZ):          19.20968     2.77574     2.62013
 Zero-point vibrational energy     154761.7 (Joules/Mol)
                                   36.98894 (Kcal/Mol)
 Warning -- explicit consideration of   7 degrees of freedom as
           vibrations may cause significant error
 Vibrational temperatures:    156.51   201.32   289.35   553.96   605.02
          (Kelvin)            726.29   839.33  1093.21  1250.84  1322.06
                             1435.38  1656.90  1725.78  1799.29  2052.06
                             2059.87  2337.05  3978.53  4361.37  4380.45
                             4402.49

 Zero-point correction=                           0.058946 (Hartree/Particle)
 Thermal correction to Energy=                    0.065026
 Thermal correction to Enthalpy=                  0.065970
 Thermal correction to Gibbs Free Energy=         0.028619
 Sum of electronic and zero-point Energies=           -229.898295
 Sum of electronic and thermal Energies=              -229.892215
 Sum of electronic and thermal Enthalpies=            -229.891270
 Sum of electronic and thermal Free Energies=         -229.928621

                     E (Thermal)             CV                S
                      KCal/Mol        Cal/Mol-Kelvin    Cal/Mol-Kelvin
 Total                   40.804             19.866             78.612
 Electronic               0.000              0.000              2.755
 Translational            0.889              2.981             38.570
 Rotational               0.889              2.981             25.246
 Vibrational             39.027             13.904             12.042
 Vibration     1          0.606              1.942              3.291
 Vibration     2          0.615              1.913              2.805
 Vibration     3          0.638              1.838              2.123
 Vibration     4          0.754              1.502              1.019
 Vibration     5          0.783              1.426              0.890
 Vibration     6          0.860              1.239              0.646
 Vibration     7          0.940              1.067              0.479

 Normal termination of Gaussian 09 at Thu Mar  7 23:01:12 2019.
