 Gaussian 09, Revision E.01,
 Gaussian 09:  EM64L-G09RevE.01 30-Nov-2015

 ------------------------------------------------------
 #p b3lyp/6-311++G(3df,2p) freq IOp(2/17=3) IOp(2/18=3)
 ------------------------------------------------------

 ---------
 b3lyp opt
 ---------
 Symbolic Z-matrix:
 Charge = -1 Multiplicity = 2

                         Standard orientation:
 ---------------------------------------------------------------------
 Center     Atomic      Atomic             Coordinates (Angstroms)
 Number     Number       Type             X           Y           Z
 ---------------------------------------------------------------------
      1          6           0        1.266304    0.395292    0.000692
      2          6           0       -1.150506    0.196962   -0.000763
      3          8           0        1.550395   -0.924219   -0.000063
      4          6           0       -2.188254   -0.418699    0.000591
      5          6           0        0.045287    0.950478   -0.000428
      6          1           0        2.161004    1.000512    0.001815
      7          1           0        0.721550   -1.428202   -0.002470
      8          1           0       -3.103239   -0.957689    0.001293
      9          1           0       -0.019467    2.034934   -0.000681
 ---------------------------------------------------------------------

 SCF Done:  E(UB3LYP) =  -230.033985513     A.U. after   32 cycles

 The electronic state is 2-A.
 Alpha  occ. eigenvalues --  -19.05397 -10.12611 -10.06667 -10.06397 -10.05120
 Alpha  occ. eigenvalues --   -0.96245  -0.68548  -0.61997  -0.53053  -0.44143
 Alpha  occ. eigenvalues --   -0.39558  -0.39082  -0.30985  -0.29874  -0.27291
 Alpha  occ. eigenvalues --   -0.20883  -0.17119  -0.11396   0.05317
 Alpha virt. eigenvalues --    0.07403   0.08997   0.09451   0.09959   0.12999
 Alpha virt. eigenvalues --    0.15081   0.15891   0.16810   0.17141   0.18194
 Alpha virt. eigenvalues --    0.20083   0.20088   0.20392   0.20969   0.21997

  Beta  occ. eigenvalues --  -19.05361 -10.12585 -10.06641 -10.06404 -10.05063
  Beta  occ. eigenvalues --   -0.96172  -0.68491  -0.61931  -0.52961  -0.44045
  Beta  occ. eigenvalues --   -0.39454  -0.38991  -0.30911  -0.29838  -0.27237
  Beta  occ. eigenvalues --   -0.20857  -0.17021  -0.11355
  Beta virt. eigenvalues --    0.08252   0.09007   0.09260   0.10451   0.11372
  Beta virt. eigenvalues --    0.13342   0.15206   0.16377   0.16769   0.17522
  Beta virt. eigenvalues --    0.18728   0.20196   0.20305   0.20753   0.21315

 Mulliken charges and spin densities:
               1          2
     1  C    2.918326  -2.891323
     2  C    7.584069  -7.718066
     3  O   -0.624471   0.018871
     4  C   -0.994574   0.849451
     5  C   -5.171852   5.140770
     6  H   -1.126373   1.309071
     7  H   -0.105910   0.387104
     8  H   -2.285113   2.570493
     9  H   -1.194103   1.333628
 Sum of Mulliken charges =  -1.00000   1.00000

 Dipole moment (field-independent basis, Debye):
    X=              3.2711    Y=             -1.1999    Z=             -0.0111  Tot=              3.4843
 Quadrupole moment (field-independent basis, Debye-Ang):
   XX=            -85.5667   YY=            -64.9363   ZZ=            -51.1484
   XY=            -10.9481   XZ=              0.0079   YZ=              0.0045

  Exact polarizability:2807.9821025.8681923.019   0.226   0.182 314.570
 Approx polarizability:3367.5451640.0671945.358  -0.021   0.026 225.898

                      1                      2                      3
                      A                      A                      A
 Frequencies --    125.3003               276.1176               365.4186
 Red. masses --      4.6243                 2.6442                 4.4443
 Frc consts  --      0.0428                 0.1188                 0.3497
 IR Inten    --      1.5526               249.9316               387.1704

                      4                      5                      6
                      A                      A                      A
 Frequencies --    511.1182               616.4846               649.0030
 Red. masses --      1.2763                 3.0923                 1.2562
 Frc consts  --      0.1964                 0.6924                 0.3118
 IR Inten    --     93.4235                 3.0165               455.5034

                      7                      8                      9
                      A                      A                      A
 Frequencies --    695.2066               728.0779               799.1667
 Red. masses --      1.3474                 3.7410                 1.4330
 Frc consts  --      0.3837                 1.1684                 0.5392
 IR Inten    --   1086.6185                26.8007                97.3993

                     10                     11                     12
                      A                      A                      A
 Frequencies --    948.4706               962.4564              1089.7121
 Red. masses --      5.7657                 1.2508                 2.3507
 Frc consts  --      3.0560                 0.6827                 1.6447
 IR Inten    --     46.4916                 5.8809               285.7391

                     13                     14                     15
                      A                      A                      A
 Frequencies --   1215.6147              1353.4263              1419.9901
 Red. masses --      1.1227                 1.5548                 1.4225
 Frc consts  --      0.9775                 1.6780                 1.6900
 IR Inten    --    923.3280                74.2714                79.3254

                     16                     17                     18
                      A                      A                      A
 Frequencies --   1662.5252              2164.8113              3094.7585
 Red. masses --      5.3686                 6.1843                 1.0883
 Frc consts  --      8.7427                17.0758                 6.1414
 IR Inten    --    205.5298               487.3813              1132.0431

                     19                     20                     21
                      A                      A                      A
 Frequencies --   3194.4202              3438.2212              3656.8856
 Red. masses --      1.0928                 1.1562                 1.0643
 Frc consts  --      6.5701                 8.0526                 8.3856
 IR Inten    --    129.8693              1284.9001              3401.0677

 - Thermochemistry -
 -------------------
 Temperature   298.150 Kelvin.  Pressure   1.00000 Atm.
 Atom     1 has atomic number  6 and mass  12.00000

 Molecular mass:    68.02621 amu.
 Principal axes and moments of inertia in atomic units:
                           1         2         3
     Eigenvalues --   131.97095 521.89110 653.86183
           X            0.99932   0.03687  -0.00001
           Y           -0.03687   0.99932   0.00007
           Z            0.00001  -0.00007   1.00000
 This molecule is an asymmetric top.
 Rotational symmetry number  1.
 Rotational temperatures (Kelvin)      0.65631     0.16596     0.13247
 Rotational constants (GHZ):          13.67529     3.45808     2.76013
 Zero-point vibrational energy     173262.2 (Joules/Mol)
                                   41.41067 (Kcal/Mol)
 Warning -- explicit consideration of   5 degrees of freedom as
           vibrations may cause significant error
 Vibrational temperatures:    180.28   397.27   525.76   735.38   886.98
          (Kelvin)            933.77  1000.25  1047.54  1149.82  1364.64
                             1384.76  1567.85  1749.00  1947.28  2043.05
                             2392.00  3114.68  4452.66  4596.05  4946.83
                             5261.44

 Zero-point correction=                           0.065992 (Hartree/Particle)
 Thermal correction to Energy=                    0.071252
 Thermal correction to Enthalpy=                  0.072197
 Thermal correction to Gibbs Free Energy=         0.037262
 Sum of electronic and zero-point Energies=           -229.967993
 Sum of electronic and thermal Energies=              -229.962733
 Sum of electronic and thermal Enthalpies=            -229.961789
 Sum of electronic and thermal Free Energies=         -229.996724

                     E (Thermal)             CV                S
                      KCal/Mol        Cal/Mol-Kelvin    Cal/Mol-Kelvin
 Total                   44.712             18.182             73.526
 Electronic               0.000              0.000              1.377
 Translational            0.889              2.981             38.570
 Rotational               0.889              2.981             25.313
 Vibrational             42.934             12.220              8.266
 Vibration     1          0.610              1.928              3.017
 Vibration     2          0.678              1.718              1.558
 Vibration     3          0.739              1.543              1.099
 Vibration     4          0.866              1.225              0.631
 Vibration     5          0.976              0.997              0.422

 Normal termination of Gaussian 09 at Thu Mar  7 14:45:13 2019.
