 Gaussian 09, Revision E.01,
 Gaussian 09:  EM64L-G09RevE.01 30-Nov-2015

 ------------------------------------------------------
 #p b3lyp/6-311++G(3df,2p) freq IOp(2/17=3) IOp(2/18=3)
 ------------------------------------------------------

 ---------
 b3lyp opt
 ---------
 Symbolic Z-matrix:
 Charge = -1 Multiplicity = 4

                         Standard orientation:
 ---------------------------------------------------------------------
 Center     Atomic      Atomic             Coordinates (Angstroms)
 Number     Number       Type             X           Y           Z
 ---------------------------------------------------------------------
      1          6           0       -1.471494   -0.922364    0.000743
      2          6           0       -0.373420    0.097469   -0.003029
      3          8           0       -0.754720    1.374093    0.000992
      4          6           0        0.985077   -0.107453   -0.001079
      5          6           0        2.199479   -0.239378    0.000728
      6          1           0       -2.095461   -0.838124    0.897599
      7          1           0       -1.027552   -1.918028   -0.022759
      8          1           0       -2.126987   -0.810593   -0.869933
      9          1           0        3.249908   -0.395642    0.002981
 ---------------------------------------------------------------------

 SCF Done:  E(UB3LYP) =  -229.935647271     A.U. after   31 cycles

 The electronic state is 4-A.
 Alpha  occ. eigenvalues --  -19.10731 -10.13976 -10.07608 -10.07113 -10.06991
 Alpha  occ. eigenvalues --   -0.97232  -0.68189  -0.63514  -0.54650  -0.42747
 Alpha  occ. eigenvalues --   -0.40223  -0.36957  -0.35393  -0.29716  -0.28444
 Alpha  occ. eigenvalues --   -0.26634  -0.20784  -0.18488  -0.06264   0.05370
 Alpha virt. eigenvalues --    0.07362   0.10372   0.10686   0.11462   0.13127
 Alpha virt. eigenvalues --    0.15046   0.16672   0.17156   0.18171   0.18894
 Alpha virt. eigenvalues --    0.19275   0.19841   0.20391   0.21503   0.22807

  Beta  occ. eigenvalues --  -19.07913 -10.13039 -10.07735 -10.06867 -10.06368
  Beta  occ. eigenvalues --   -0.91006  -0.66313  -0.62277  -0.52115  -0.41156
  Beta  occ. eigenvalues --   -0.37612  -0.33517  -0.32431  -0.28868  -0.25600
  Beta  occ. eigenvalues --   -0.17855  -0.17818
  Beta virt. eigenvalues --   -0.07268   0.04594   0.08562   0.09396   0.11890
  Beta virt. eigenvalues --    0.11951   0.12287   0.13619   0.15647   0.17153
  Beta virt. eigenvalues --    0.17868   0.18605   0.19413   0.20535   0.20904

 Mulliken charges and spin densities:
               1          2
     1  C    2.204735  -2.468477
     2  C   -2.990920   3.599605
     3  O   -0.461133   1.058652
     4  C    5.167662  -5.270595
     5  C   -0.738331   1.098301
     6  H   -0.701959   0.882030
     7  H   -0.720889   0.878433
     8  H   -0.717182   0.895076
     9  H   -2.041984   2.326976
 Sum of Mulliken charges =  -1.00000   3.00000

 Dipole moment (field-independent basis, Debye):
    X=             -1.9400    Y=              4.0503    Z=              0.0036  Tot=              4.4910
 Quadrupole moment (field-independent basis, Debye-Ang):
   XX=            -90.5793   YY=            -58.7832   ZZ=            -54.5037
   XY=             -2.4396   XZ=             -0.0699   YZ=              0.0090

  Exact polarizability:3312.874 266.592 666.786   2.930   3.721 766.960
 Approx polarizability:4763.837 485.386 507.989   6.197   2.013 536.567

                      1                      2                      3
                      A                      A                      A
 Frequencies --     74.5482               171.3583               243.4984
 Red. masses --      1.1112                 4.4962                 4.1084
 Frc consts  --      0.0036                 0.0778                 0.1435
 IR Inten    --      1.6720                24.3789                 1.5723

                      4                      5                      6
                      A                      A                      A
 Frequencies --    315.8790               335.1570               460.5868
 Red. masses --      4.2234                 1.3877                 3.5030
 Frc consts  --      0.2483                 0.0918                 0.4378
 IR Inten    --     27.8933               565.1199               235.8686

                      7                      8                      9
                      A                      A                      A
 Frequencies --    540.8799               725.6298               750.4948
 Red. masses --      5.7222                 1.2390                 5.0422
 Frc consts  --      0.9863                 0.3844                 1.6733
 IR Inten    --     24.4264               404.5476                13.0909

                     10                     11                     12
                      A                      A                      A
 Frequencies --    964.8213              1013.6920              1198.2189
 Red. masses --      1.5543                 1.3261                 9.2031
 Frc consts  --      0.8525                 0.8029                 7.7849
 IR Inten    --     10.5123                 7.9972               311.9867

                     13                     14                     15
                      A                      A                      A
 Frequencies --   1309.0377              1382.2906              1434.3674
 Red. masses --      4.3490                 1.2150                 1.0455
 Frc consts  --      4.3908                 1.3678                 1.2673
 IR Inten    --     43.1317               349.0946               485.9975

                     16                     17                     18
                      A                      A                      A
 Frequencies --   1468.4145              2009.8069              2955.7521
 Red. masses --      1.0957                 6.8486                 1.0377
 Frc consts  --      1.3920                16.2990                 5.3414
 IR Inten    --    284.3354               251.4152                45.7456

                     19                     20                     21
                      A                      A                      A
 Frequencies --   3011.1438              3073.2950              3425.6454
 Red. masses --      1.1007                 1.0979                 1.1396
 Frc consts  --      5.8803                 6.1095                 7.8796
 IR Inten    --      0.9260                37.2783              2007.7770

 - Thermochemistry -
 -------------------
 Temperature   298.150 Kelvin.  Pressure   1.00000 Atm.
 Atom     1 has atomic number  6 and mass  12.00000

 Molecular mass:    68.02621 amu.
 Principal axes and moments of inertia in atomic units:
                           1         2         3
     Eigenvalues --   170.38248 460.30181 619.43274
           X            0.99863   0.05233   0.00001
           Y           -0.05233   0.99863  -0.00011
           Z           -0.00002   0.00011   1.00000
 This molecule is an asymmetric top.
 Rotational symmetry number  1.
 Rotational temperatures (Kelvin)      0.50835     0.18817     0.13983
 Rotational constants (GHZ):          10.59229     3.92078     2.91354
 Zero-point vibrational energy     160685.5 (Joules/Mol)
                                   38.40476 (Kcal/Mol)
 Warning -- explicit consideration of   7 degrees of freedom as
           vibrations may cause significant error
 Vibrational temperatures:    107.26   246.55   350.34   454.48   482.22
          (Kelvin)            662.68   778.20  1044.02  1079.79  1388.16
                             1458.47  1723.97  1883.41  1988.81  2063.73
                             2112.72  2891.66  4252.66  4332.36  4421.78
                             4928.73

 Zero-point correction=                           0.061202 (Hartree/Particle)
 Thermal correction to Energy=                    0.067473
 Thermal correction to Enthalpy=                  0.068417
 Thermal correction to Gibbs Free Energy=         0.030560
 Sum of electronic and zero-point Energies=           -229.874445
 Sum of electronic and thermal Energies=              -229.868174
 Sum of electronic and thermal Enthalpies=            -229.867230
 Sum of electronic and thermal Free Energies=         -229.905087

                     E (Thermal)             CV                S
                      KCal/Mol        Cal/Mol-Kelvin    Cal/Mol-Kelvin
 Total                   42.340             20.273             79.677
 Electronic               0.000              0.000              2.755
 Translational            0.889              2.981             38.570
 Rotational               0.889              2.981             25.388
 Vibrational             40.562             14.311             12.964
 Vibration     1          0.599              1.966              4.030
 Vibration     2          0.626              1.878              2.421
 Vibration     3          0.659              1.774              1.777
 Vibration     4          0.703              1.643              1.331
 Vibration     5          0.716              1.605              1.235
 Vibration     6          0.818              1.337              0.764
 Vibration     7          0.896              1.160              0.563

 Normal termination of Gaussian 09 at Fri Mar  8 01:47:27 2019.
