 Gaussian 09, Revision E.01,
 Gaussian 09:  EM64L-G09RevE.01 30-Nov-2015

 ------------------------------------------------------
 #p b3lyp/6-311++G(3df,2p) freq IOp(2/17=3) IOp(2/18=3)
 ------------------------------------------------------

 ---------
 b3lyp opt
 ---------
 Symbolic Z-matrix:
 Charge = -1 Multiplicity = 4

                         Standard orientation:
 ---------------------------------------------------------------------
 Center     Atomic      Atomic             Coordinates (Angstroms)
 Number     Number       Type             X           Y           Z
 ---------------------------------------------------------------------
      1          8           0        2.055751   -0.126561   -0.013744
      2          6           0       -0.354897    0.109267   -0.007437
      3          6           0        0.895912   -0.524867   -0.000243
      4          6           0       -0.532235    1.489812    0.104040
      5          6           0       -1.597977   -0.771925   -0.002899
      6          1           0       -1.146787    2.204583   -0.437206
      7          1           0       -1.315045   -1.816084   -0.151299
      8          1           0       -2.294463   -0.490264   -0.802276
      9          1           0       -2.154536   -0.699468    0.939965
 ---------------------------------------------------------------------

 SCF Done:  E(UB3LYP) =  -229.991546803     A.U. after   19 cycles

 The electronic state is 4-A.
 Alpha  occ. eigenvalues --  -18.93055 -10.02635 -10.00849  -9.99489  -9.99398
 Alpha  occ. eigenvalues --   -0.84314  -0.62047  -0.50868  -0.44567  -0.30939
 Alpha  occ. eigenvalues --   -0.27525  -0.25932  -0.25472  -0.22181  -0.20266
 Alpha  occ. eigenvalues --   -0.17951  -0.09690  -0.04276   0.01409   0.03457
 Alpha virt. eigenvalues --    0.10702   0.12611   0.13872   0.14478   0.17603
 Alpha virt. eigenvalues --    0.18797   0.19761   0.19926   0.20781   0.22683
 Alpha virt. eigenvalues --    0.23535   0.24024   0.24513   0.25674   0.26363

  Beta  occ. eigenvalues --  -18.91791 -10.01395 -10.00707  -9.99109  -9.97344
  Beta  occ. eigenvalues --   -0.81825  -0.60301  -0.48847  -0.40085  -0.28531
  Beta  occ. eigenvalues --   -0.26299  -0.25321  -0.22886  -0.21006  -0.17294
  Beta  occ. eigenvalues --   -0.13300  -0.05169
  Beta virt. eigenvalues --    0.09828   0.11048   0.12174   0.13147   0.13594
  Beta virt. eigenvalues --    0.14474   0.15483   0.18169   0.19373   0.20210
  Beta virt. eigenvalues --    0.20302   0.21574   0.23016   0.24039   0.24681

 Mulliken charges and spin densities:
               1          2
     1  O   -0.620288   0.330005
     2  C    0.699357  -0.516923
     3  C   -0.345504   1.304204
     4  C   -0.566544   1.720973
     5  C   -0.564259   0.033984
     6  H    0.141794   0.019344
     7  H    0.068112   0.065827
     8  H    0.105466  -0.000186
     9  H    0.081867   0.042773
 Sum of Mulliken charges =  -1.00000   3.00000

 Dipole moment (field-independent basis, Debye):
    X=             -3.2373    Y=             -1.1158    Z=             -0.7840  Tot=              3.5129
 Quadrupole moment (field-independent basis, Debye-Ang):
   XX=            -47.4351   YY=            -42.1606   ZZ=            -36.4245
   XY=              1.7415   XZ=              1.1486   YZ=             -1.7067

  Exact polarizability: 100.908  -8.770 108.116  -7.134   2.908  69.412
 Approx polarizability: 135.233 -13.483 129.359  -6.863   4.083  85.987

                      1                      2                      3
                      A                      A                      A
 Frequencies --    129.4706               174.6319               255.6666
 Red. masses --      1.0769                 1.1594                 5.8934
 Frc consts  --      0.0106                 0.0208                 0.2270
 IR Inten    --      0.3561                75.6360                14.0891

                      4                      5                      6
                      A                      A                      A
 Frequencies --    286.9995               384.8283               503.9308
 Red. masses --      3.8396                 2.8910                 5.4633
 Frc consts  --      0.1863                 0.2523                 0.8174
 IR Inten    --      2.7735                 7.2820                 5.0332

                      7                      8                      9
                      A                      A                      A
 Frequencies --    594.8240               823.2560               852.3453
 Red. masses --      5.0770                 1.4905                 4.9200
 Frc consts  --      1.0584                 0.5952                 2.1059
 IR Inten    --     36.2432                40.8435                 5.4117

                     10                     11                     12
                      A                      A                      A
 Frequencies --    996.6258              1037.2375              1188.9874
 Red. masses --      1.4797                 1.3506                 8.3510
 Frc consts  --      0.8659                 0.8561                 6.9557
 IR Inten    --      0.3422                 2.0230                12.2987

                     13                     14                     15
                      A                      A                      A
 Frequencies --   1332.2172              1375.6110              1471.0768
 Red. masses --      4.6114                 1.2977                 1.0498
 Frc consts  --      4.8220                 1.4469                 1.3386
 IR Inten    --     16.4638                 0.2276                 2.5987

                     16                     17                     18
                      A                      A                      A
 Frequencies --   1490.8673              1686.4652              2953.4150
 Red. masses --      1.0649                12.3623                 1.0388
 Frc consts  --      1.3945                20.7158                 5.3384
 IR Inten    --     12.6200               575.9390               173.4103

                     19                     20                     21
                      A                      A                      A
 Frequencies --   2973.1936              3052.2770              3090.4795
 Red. masses --      1.0992                 1.0939                 1.0916
 Frc consts  --      5.7248                 6.0045                 6.1429
 IR Inten    --    116.5936                29.9601               139.0712

 - Thermochemistry -
 -------------------
 Temperature   298.150 Kelvin.  Pressure   1.00000 Atm.
 Atom     1 has atomic number  8 and mass  15.99491

 Molecular mass:    68.02621 amu.
 Principal axes and moments of inertia in atomic units:
                           1         2         3
     Eigenvalues --   172.26305 453.85992 612.81229
           X            0.99946   0.03251   0.00408
           Y           -0.03242   0.99926  -0.02086
           Z           -0.00476   0.02072   0.99977
 This molecule is an asymmetric top.
 Rotational symmetry number  1.
 Rotational temperatures (Kelvin)      0.50280     0.19084     0.14134
 Rotational constants (GHZ):          10.47666     3.97643     2.94501
 Zero-point vibrational energy     159428.8 (Joules/Mol)
                                   38.10439 (Kcal/Mol)
 Warning -- explicit consideration of   7 degrees of freedom as
           vibrations may cause significant error
 Vibrational temperatures:    186.28   251.26   367.85   412.93   553.68
          (Kelvin)            725.04   855.82  1184.48  1226.33  1433.92
                             1492.35  1710.69  1916.76  1979.19  2116.55
                             2145.02  2426.44  4249.30  4277.76  4391.54
                             4446.51

 Zero-point correction=                           0.060723 (Hartree/Particle)
 Thermal correction to Energy=                    0.066715
 Thermal correction to Enthalpy=                  0.067659
 Thermal correction to Gibbs Free Energy=         0.030599
 Sum of electronic and zero-point Energies=           -229.930824
 Sum of electronic and thermal Energies=              -229.924832
 Sum of electronic and thermal Enthalpies=            -229.923888
 Sum of electronic and thermal Free Energies=         -229.960948

                     E (Thermal)             CV                S
                      KCal/Mol        Cal/Mol-Kelvin    Cal/Mol-Kelvin
 Total                   41.864             19.557             77.999
 Electronic               0.000              0.000              2.755
 Translational            0.889              2.981             38.570
 Rotational               0.889              2.981             25.375
 Vibrational             40.087             13.595             11.300
 Vibration     1          0.612              1.924              2.954
 Vibration     2          0.627              1.874              2.385
 Vibration     3          0.666              1.753              1.691
 Vibration     4          0.684              1.698              1.492
 Vibration     5          0.754              1.503              1.020
 Vibration     6          0.859              1.241              0.648
 Vibration     7          0.953              1.043              0.459

 Normal termination of Gaussian 09 at Fri Mar  8 00:48:15 2019.
