 Gaussian 09, Revision E.01,
 Gaussian 09:  EM64L-G09RevE.01 30-Nov-2015

 ------------------------------------------------------
 #p b3lyp/6-311++G(3df,2p) freq IOp(2/17=3) IOp(2/18=3)
 ------------------------------------------------------

 ---------
 b3lyp opt
 ---------
 Symbolic Z-matrix:
 Charge = -1 Multiplicity = 2

                         Standard orientation:
 ---------------------------------------------------------------------
 Center     Atomic      Atomic             Coordinates (Angstroms)
 Number     Number       Type             X           Y           Z
 ---------------------------------------------------------------------
      1          8           0       -0.551531   -0.012963   -0.000000
      2          6           0        0.469439   -0.962702    0.000000
      3          6           0        0.186383   -2.251285    0.000000
      4          6           0       -0.226535    1.248954   -0.000000
      5          6           0       -0.000000    2.426221   -0.000000
      6          1           0        1.464406   -0.540796    0.000000
      7          1           0        0.995908   -2.970686    0.000000
      8          1           0       -0.828641   -2.620003   -0.000000
      9          1           0        0.204852    3.468057   -0.000000
 ---------------------------------------------------------------------

 SCF Done:  E(UB3LYP) =  -229.992487137     A.U. after   28 cycles

 The electronic state is 2-A'.
 Alpha  occ. eigenvalues --  -19.09842 -10.13457 -10.11840 -10.06101 -10.05230
 Alpha  occ. eigenvalues --   -1.01245  -0.68976  -0.63243  -0.53284  -0.46611
 Alpha  occ. eigenvalues --   -0.40628  -0.37498  -0.35285  -0.32175  -0.28561
 Alpha  occ. eigenvalues --   -0.19011  -0.16979  -0.13268   0.05416
 Alpha virt. eigenvalues --    0.07256   0.09098   0.09821   0.10560   0.12925
 Alpha virt. eigenvalues --    0.13985   0.14703   0.15469   0.16265   0.17381
 Alpha virt. eigenvalues --    0.19123   0.19394   0.20169   0.21311   0.22100

  Beta  occ. eigenvalues --  -19.09822 -10.13432 -10.11837 -10.06054 -10.05177
  Beta  occ. eigenvalues --   -1.01212  -0.68922  -0.63185  -0.53212  -0.46524
  Beta  occ. eigenvalues --   -0.40533  -0.37413  -0.35258  -0.32097  -0.28491
  Beta  occ. eigenvalues --   -0.18972  -0.16929  -0.13226
  Beta virt. eigenvalues --    0.08375   0.09119   0.09812   0.10236   0.11896
  Beta virt. eigenvalues --    0.13291   0.14202   0.14687   0.15473   0.16807
  Beta virt. eigenvalues --    0.17647   0.19381   0.19383   0.20586   0.21665

 Mulliken charges and spin densities:
               1          2
     1  O   -0.685057   0.100193
     2  C   -1.106660   1.269938
     3  C    2.149983  -2.474160
     4  C    4.450970  -4.588831
     5  C   -1.783033   1.854602
     6  H   -0.586753   0.763848
     7  H   -0.790654   0.955189
     8  H   -0.192300   0.339369
     9  H   -2.456496   2.779852
 Sum of Mulliken charges =  -1.00000   1.00000

 Dipole moment (field-independent basis, Debye):
    X=             -3.9916    Y=             -3.0277    Z=             -0.0000  Tot=              5.0100
 Quadrupole moment (field-independent basis, Debye-Ang):
   XX=            -58.0818   YY=           -107.8497   ZZ=            -49.8774
   XY=              5.2966   XZ=             -0.0000   YZ=             -0.0000

  Exact polarizability:1267.405  54.2433587.624   0.328   0.694 227.844
 Approx polarizability: 731.126-667.8906483.627   0.000  -0.000 206.680

                      1                      2                      3
                     A"                     A"                     A"
 Frequencies --     89.0691               165.1747               419.1062
 Red. masses --      2.8507                 3.9565                 2.8856
 Frc consts  --      0.0133                 0.0636                 0.2986
 IR Inten    --     10.7478                25.8203                85.5742

                      4                      5                      6
                     A"                     A"                     A"
 Frequencies --    454.1516               560.7900               638.0827
 Red. masses --     10.1250                 6.5144                 1.1685
 Frc consts  --      1.2304                 1.2071                 0.2803
 IR Inten    --      1.2219                54.3163              1310.6632

                      7                      8                      9
                     A"                     A"                     A'
 Frequencies --    689.1899               699.3705               842.4919
 Red. masses --      1.4603                 1.1914                 2.3476
 Frc consts  --      0.4087                 0.3433                 0.9818
 IR Inten    --     75.3794              1429.5819               143.8473

                     10                     11                     12
                     A"                     A"                     A'
 Frequencies --    885.3567               976.8142              1107.8706
 Red. masses --      1.3680                 1.1192                 2.6779
 Frc consts  --      0.6318                 0.6292                 1.9365
 IR Inten    --     54.3288                 6.0438                14.8619

                     13                     14                     15
                     A'                     A'                     A'
 Frequencies --   1145.4309              1329.8171              1411.0143
 Red. masses --      7.6336                 1.1551                 1.1594
 Frc consts  --      5.9009                 1.2035                 1.3600
 IR Inten    --   3869.8330               542.8602               327.0539

                     16                     17                     18
                     A'                     A'                     A'
 Frequencies --   1689.5701              2244.8197              3115.1890
 Red. masses --      4.7011                 6.1064                 1.0639
 Frc consts  --      7.9069                18.1299                 6.0832
 IR Inten    --   1941.0276              1269.9457               385.7191

                     19                     20                     21
                     A'                     A'                     A'
 Frequencies --   3185.9015              3222.5908              3437.4447
 Red. masses --      1.0968                 1.1130                 1.1650
 Frc consts  --      6.5592                 6.8099                 8.1103
 IR Inten    --    509.6892               123.7236              1352.5081

 - Thermochemistry -
 -------------------
 Temperature   298.150 Kelvin.  Pressure   1.00000 Atm.
 Atom     1 has atomic number  8 and mass  15.99491

 Molecular mass:    68.02621 amu.
 Principal axes and moments of inertia in atomic units:
                           1         2         3
     Eigenvalues --    40.00374 680.69335 720.69709
           X           -0.08134   0.99669   0.00000
           Y            0.99669   0.08134   0.00000
           Z            0.00000   0.00000   1.00000
 This molecule is an asymmetric top.
 Rotational symmetry number  1.
 Rotational temperatures (Kelvin)      2.16514     0.12724     0.12018
 Rotational constants (GHZ):          45.11431     2.65133     2.50416
 Zero-point vibrational energy     169326.9 (Joules/Mol)
                                   40.47010 (Kcal/Mol)
 Warning -- explicit consideration of   5 degrees of freedom as
           vibrations may cause significant error
 Vibrational temperatures:    128.15   237.65   603.00   653.42   806.85
          (Kelvin)            918.06   991.59  1006.24  1212.16  1273.83
                             1405.42  1593.98  1648.02  1913.31  2030.13
                             2430.91  3229.79  4482.06  4583.80  4636.58
                             4945.71

 Zero-point correction=                           0.064493 (Hartree/Particle)
 Thermal correction to Energy=                    0.070032
 Thermal correction to Enthalpy=                  0.070976
 Thermal correction to Gibbs Free Energy=         0.035624
 Sum of electronic and zero-point Energies=           -229.927994
 Sum of electronic and thermal Energies=              -229.922455
 Sum of electronic and thermal Enthalpies=            -229.921511
 Sum of electronic and thermal Free Energies=         -229.956863

                     E (Thermal)             CV                S
                      KCal/Mol        Cal/Mol-Kelvin    Cal/Mol-Kelvin
 Total                   43.946             18.636             74.405
 Electronic               0.000              0.000              1.377
 Translational            0.889              2.981             38.570
 Rotational               0.889              2.981             24.488
 Vibrational             42.168             12.674              9.970
 Vibration     1          0.602              1.957              3.680
 Vibration     2          0.624              1.885              2.490
 Vibration     3          0.782              1.429              0.895
 Vibration     4          0.813              1.352              0.783
 Vibration     5          0.916              1.116              0.522

 Optimization completed.
    -- Stationary point found.
 Normal termination of Gaussian 09 at Thu Mar  7 13:50:25 2019.
