 Gaussian 09, Revision E.01,
 Gaussian 09:  EM64L-G09RevE.01 30-Nov-2015

 ------------------------------------------------------
 #p b3lyp/6-311++G(3df,2p) freq IOp(2/17=3) IOp(2/18=3)
 ------------------------------------------------------

 ---------
 b3lyp opt
 ---------
 Symbolic Z-matrix:
 Charge = -1 Multiplicity = 2

                         Standard orientation:
 ---------------------------------------------------------------------
 Center     Atomic      Atomic             Coordinates (Angstroms)
 Number     Number       Type             X           Y           Z
 ---------------------------------------------------------------------
      1          8           0       -0.545134    0.085510   -0.000000
      2          6           0        0.289769   -1.030651    0.000000
      3          6           0       -0.217680   -2.248598    0.000000
      4          6           0        0.000000    1.269340   -0.000000
      5          6           0        0.432529    2.387450   -0.000000
      6          1           0        1.344220   -0.793582    0.000000
      7          1           0        0.451766   -3.099930    0.000000
      8          1           0       -1.281867   -2.432178   -0.000000
      9          1           0        0.819249    3.376358   -0.000000
 ---------------------------------------------------------------------

 SCF Done:  E(UB3LYP) =  -229.992458817     A.U. after   28 cycles

 The electronic state is 2-A'.
 Alpha  occ. eigenvalues --  -19.09850 -10.13455 -10.11844 -10.06098 -10.05236
 Alpha  occ. eigenvalues --   -1.01256  -0.68974  -0.63246  -0.53290  -0.46613
 Alpha  occ. eigenvalues --   -0.40629  -0.37503  -0.35293  -0.32169  -0.28553
 Alpha  occ. eigenvalues --   -0.19010  -0.16985  -0.13270   0.05417
 Alpha virt. eigenvalues --    0.07256   0.09095   0.09823   0.10564   0.12922
 Alpha virt. eigenvalues --    0.13989   0.14710   0.15470   0.16267   0.17387
 Alpha virt. eigenvalues --    0.19130   0.19394   0.20170   0.21311   0.22102

  Beta  occ. eigenvalues --  -19.09830 -10.13431 -10.11841 -10.06050 -10.05183
  Beta  occ. eigenvalues --   -1.01223  -0.68919  -0.63188  -0.53219  -0.46526
  Beta  occ. eigenvalues --   -0.40535  -0.37417  -0.35266  -0.32090  -0.28483
  Beta  occ. eigenvalues --   -0.18971  -0.16935  -0.13227
  Beta virt. eigenvalues --    0.08376   0.09120   0.09814   0.10236   0.11898
  Beta virt. eigenvalues --    0.13285   0.14206   0.14693   0.15474   0.16808
  Beta virt. eigenvalues --    0.17654   0.19380   0.19387   0.20584   0.21664

 Mulliken charges and spin densities:
               1          2
     1  O   -0.685199   0.100257
     2  C   -1.109282   1.272272
     3  C    2.152081  -2.475892
     4  C    4.450972  -4.590490
     5  C   -1.782892   1.856482
     6  H   -0.585163   0.761895
     7  H   -0.789248   0.953655
     8  H   -0.193316   0.340428
     9  H   -2.457953   2.781392
 Sum of Mulliken charges =  -1.00000   1.00000

 Dipole moment (field-independent basis, Debye):
    X=             -4.4606    Y=             -2.2805    Z=             -0.0000  Tot=              5.0098
 Quadrupole moment (field-independent basis, Debye-Ang):
   XX=            -57.8002   YY=           -108.1739   ZZ=            -49.8697
   XY=             -3.7809   XZ=             -0.0000   YZ=             -0.0000

  Exact polarizability:1391.451 471.2133429.204   0.186   0.288 227.852
 Approx polarizability: 680.405 383.0126540.427   0.000  -0.000 206.465

                      1                      2                      3
                     A"                     A"                     A"
 Frequencies --     81.3760               131.7958               414.5661
 Red. masses --      2.8258                 3.8533                 2.8479
 Frc consts  --      0.0110                 0.0394                 0.2884
 IR Inten    --     11.0307                50.0897                98.1834

                      4                      5                      6
                     A"                     A"                     A"
 Frequencies --    439.7486               556.1650               637.9365
 Red. masses --      9.5919                 6.2260                 1.1799
 Frc consts  --      1.0929                 1.1347                 0.2829
 IR Inten    --      1.3615                45.7124              1302.1535

                      7                      8                      9
                     ?A                     ?A                     A'
 Frequencies --    685.0298               688.3103               842.4799
 Red. masses --      1.2157                 1.4574                 2.3433
 Frc consts  --      0.3361                 0.4068                 0.9799
 IR Inten    --   1380.0617                71.9163               121.9761

                     10                     11                     12
                     A"                     A"                     A'
 Frequencies --    884.7262               976.2149              1107.2454
 Red. masses --      1.3706                 1.1198                 2.6863
 Frc consts  --      0.6321                 0.6288                 1.9404
 IR Inten    --     54.1587                 5.8967                25.5420

                     13                     14                     15
                     A'                     A'                     A'
 Frequencies --   1144.8903              1328.2533              1410.0670
 Red. masses --      7.6898                 1.1545                 1.1598
 Frc consts  --      5.9387                 1.2001                 1.3587
 IR Inten    --   3925.8749               575.2285               308.9242

                     16                     17                     18
                     A'                     A'                     A'
 Frequencies --   1688.7495              2242.2557              3114.6005
 Red. masses --      4.7149                 6.1149                 1.0639
 Frc consts  --      7.9223                18.1139                 6.0810
 IR Inten    --   1931.3027              1545.9446               399.7984

                     19                     20                     21
                     A'                     A'                     A'
 Frequencies --   3184.4876              3222.1150              3440.2852
 Red. masses --      1.0968                 1.1127                 1.1646
 Frc consts  --      6.5530                 6.8066                 8.1212
 IR Inten    --    536.7378               172.3546               856.1528

 - Thermochemistry -
 -------------------
 Temperature   298.150 Kelvin.  Pressure   1.00000 Atm.
 Atom     1 has atomic number  8 and mass  15.99491

 Molecular mass:    68.02621 amu.
 Principal axes and moments of inertia in atomic units:
                           1         2         3
     Eigenvalues --    39.98642 680.74120 720.72762
           X            0.09764   0.99522   0.00000
           Y            0.99522  -0.09764   0.00000
           Z            0.00000   0.00000   1.00000
 This molecule is an asymmetric top.
 Rotational symmetry number  1.
 Rotational temperatures (Kelvin)      2.16608     0.12723     0.12018
 Rotational constants (GHZ):          45.13385     2.65114     2.50405
 Zero-point vibrational energy     168800.9 (Joules/Mol)
                                   40.34437 (Kcal/Mol)
 Warning -- explicit consideration of   5 degrees of freedom as
           vibrations may cause significant error
 Vibrational temperatures:    117.08   189.62   596.47   632.70   800.20
          (Kelvin)            917.85   985.60   990.32  1212.14  1272.92
                             1404.55  1593.08  1647.24  1911.06  2028.77
                             2429.73  3226.10  4481.21  4581.76  4635.90
                             4949.80

 Zero-point correction=                           0.064293 (Hartree/Particle)
 Thermal correction to Energy=                    0.069931
 Thermal correction to Enthalpy=                  0.070876
 Thermal correction to Gibbs Free Energy=         0.035193
 Sum of electronic and zero-point Energies=           -229.928166
 Sum of electronic and thermal Energies=              -229.922527
 Sum of electronic and thermal Enthalpies=            -229.921583
 Sum of electronic and thermal Free Energies=         -229.957266

                     E (Thermal)             CV                S
                      KCal/Mol        Cal/Mol-Kelvin    Cal/Mol-Kelvin
 Total                   43.883             18.762             75.101
 Electronic               0.000              0.000              1.377
 Translational            0.889              2.981             38.570
 Rotational               0.889              2.981             24.487
 Vibrational             42.105             12.800             10.666
 Vibration     1          0.600              1.962              3.857
 Vibration     2          0.612              1.922              2.920
 Vibration     3          0.778              1.439              0.911
 Vibration     4          0.800              1.383              0.827
 Vibration     5          0.912              1.126              0.532

 Optimization completed.
    -- Stationary point found.
 Normal termination of Gaussian 09 at Thu Mar  7 16:21:22 2019.
