 Gaussian 09, Revision E.01,
 Gaussian 09:  EM64L-G09RevE.01 30-Nov-2015

 ------------------------------------------------------
 #p b3lyp/6-311++G(3df,2p) freq IOp(2/17=3) IOp(2/18=3)
 ------------------------------------------------------

 ---------
 b3lyp opt
 ---------
 Symbolic Z-matrix:
 Charge = -1 Multiplicity = 4

                         Standard orientation:
 ---------------------------------------------------------------------
 Center     Atomic      Atomic             Coordinates (Angstroms)
 Number     Number       Type             X           Y           Z
 ---------------------------------------------------------------------
      1          8           0        2.290026   -0.593060    0.000076
      2          6           0       -2.501163   -0.157156    0.001039
      3          6           0       -1.070564    0.083092   -0.002011
      4          6           0        0.139868    0.254323    0.000591
      5          6           0        1.494133    0.478691    0.000473
      6          1           0       -2.834366   -0.635231    0.930364
      7          1           0       -2.806593   -0.798152   -0.835428
      8          1           0       -3.050302    0.782069   -0.095247
      9          1           0        1.997410    1.442094   -0.000853
 ---------------------------------------------------------------------

 SCF Done:  E(UB3LYP) =  -229.939439445     A.U. after   31 cycles

 The electronic state is 4-A.
 Alpha  occ. eigenvalues --  -19.10623 -10.12874 -10.07452 -10.06547 -10.06236
 Alpha  occ. eigenvalues --   -0.96650  -0.68171  -0.62272  -0.54932  -0.43867
 Alpha  occ. eigenvalues --   -0.37886  -0.34954  -0.32869  -0.31140  -0.31113
 Alpha  occ. eigenvalues --   -0.27460  -0.19136  -0.16529  -0.06033   0.05414
 Alpha virt. eigenvalues --    0.07685   0.10402   0.10792   0.12716   0.13656
 Alpha virt. eigenvalues --    0.14706   0.15181   0.17306   0.18849   0.19084
 Alpha virt. eigenvalues --    0.19879   0.20448   0.20921   0.21560   0.22156

  Beta  occ. eigenvalues --  -19.07765 -10.11912 -10.06741 -10.06490 -10.06323
  Beta  occ. eigenvalues --   -0.90228  -0.66799  -0.60920  -0.52324  -0.40194
  Beta  occ. eigenvalues --   -0.35079  -0.33952  -0.30688  -0.30624  -0.27314
  Beta  occ. eigenvalues --   -0.16302  -0.15855
  Beta virt. eigenvalues --   -0.07241   0.05157   0.08548   0.09439   0.11794
  Beta virt. eigenvalues --    0.12435   0.13832   0.14401   0.15423   0.15608
  Beta virt. eigenvalues --    0.18117   0.19347   0.19592   0.20438   0.21527

 Mulliken charges and spin densities:
               1          2
     1  O   -0.366528   1.037630
     2  C    6.293740  -6.823094
     3  C   -3.595567   4.222854
     4  C   -1.465058   1.568427
     5  C    1.569625  -1.172471
     6  H   -0.860131   1.035797
     7  H   -0.859361   1.032188
     8  H   -0.843117   0.999243
     9  H   -0.873604   1.099426
 Sum of Mulliken charges =  -1.00000   3.00000

 Dipole moment (field-independent basis, Debye):
    X=              6.6513    Y=             -0.9959    Z=              0.0037  Tot=              6.7254
 Quadrupole moment (field-independent basis, Debye-Ang):
   XX=            -89.9222   YY=            -58.3557   ZZ=            -52.3974
   XY=             -5.1190   XZ=              0.0275   YZ=             -0.0280

  Exact polarizability:2672.329 912.6031267.823   6.575   0.238 727.254
 Approx polarizability:2770.5241055.4761101.511   1.753   0.576 519.197

                      1                      2                      3
                      A                      A                      A
 Frequencies --     20.3248                95.1682               173.7478
 Red. masses --      1.1854                 7.7636                 3.1265
 Frc consts  --      0.0003                 0.0414                 0.0556
 IR Inten    --      0.4821                86.4641                37.2850

                      4                      5                      6
                      A                      A                      A
 Frequencies --    216.4203               290.6465               381.6495
 Red. masses --      3.4006                 1.4607                 7.1512
 Frc consts  --      0.0938                 0.0727                 0.6137
 IR Inten    --    322.3565                61.1478                29.4942

                      7                      8                      9
                      A                      A                      A
 Frequencies --    434.5307               756.9449              1024.2894
 Red. masses --      7.9041                 4.6123                 1.3511
 Frc consts  --      0.8793                 1.5570                 0.8352
 IR Inten    --     59.3440                15.5353                34.5596

                     10                     11                     12
                      A                      A                      A
 Frequencies --   1027.7742              1111.7715              1191.3439
 Red. masses --      1.4003                 2.9873                 1.7101
 Frc consts  --      0.8715                 2.1755                 1.4301
 IR Inten    --    104.0519               494.4343               794.9699

                     13                     14                     15
                      A                      A                      A
 Frequencies --   1340.0416              1391.3810              1440.4314
 Red. masses --      3.7431                 1.3122                 1.0417
 Frc consts  --      3.9602                 1.4967                 1.2735
 IR Inten    --    432.5716               208.3719               513.2974

                     16                     17                     18
                      A                      A                      A
 Frequencies --   1442.3899              2110.3551              2938.7014
 Red. masses --      1.0438                11.6380                 1.0439
 Frc consts  --      1.2795                30.5380                 5.3114
 IR Inten    --    388.6526               703.1371               189.7448

                     19                     20                     21
                      A                      A                      A
 Frequencies --   2991.7280              3029.9613              3089.2088
 Red. masses --      1.1003                 1.0906                 1.0816
 Frc consts  --      5.8022                 5.8990                 6.0814
 IR Inten    --     76.9308              1098.4341              1272.6363

 - Thermochemistry -
 -------------------
 Temperature   298.150 Kelvin.  Pressure   1.00000 Atm.
 Atom     1 has atomic number  8 and mass  15.99491

 Molecular mass:    68.02621 amu.
 Principal axes and moments of inertia in atomic units:
                           1         2         3
     Eigenvalues --    52.77059 822.02504 863.47562
           X            0.99979   0.02051  -0.00001
           Y           -0.02051   0.99979   0.00000
           Z            0.00001  -0.00000   1.00000
 This molecule is an asymmetric top.
 Rotational symmetry number  1.
 Rotational temperatures (Kelvin)      1.64133     0.10537     0.10031
 Rotational constants (GHZ):          34.19975     2.19548     2.09009
 Zero-point vibrational energy     158498.1 (Joules/Mol)
                                   37.88195 (Kcal/Mol)
 Warning -- explicit consideration of   7 degrees of freedom as
           vibrations may cause significant error
 Vibrational temperatures:     29.24   136.93   249.98   311.38   418.18
          (Kelvin)            549.11   625.19  1089.07  1473.72  1478.74
                             1599.59  1714.08  1928.02  2001.88  2072.46
                             2075.27  3036.33  4228.13  4304.42  4359.43
                             4444.68

 Zero-point correction=                           0.060369 (Hartree/Particle)
 Thermal correction to Energy=                    0.067249
 Thermal correction to Enthalpy=                  0.068193
 Thermal correction to Gibbs Free Energy=         0.027842
 Sum of electronic and zero-point Energies=           -229.879071
 Sum of electronic and thermal Energies=              -229.872191
 Sum of electronic and thermal Enthalpies=            -229.871246
 Sum of electronic and thermal Free Energies=         -229.911598

                     E (Thermal)             CV                S
                      KCal/Mol        Cal/Mol-Kelvin    Cal/Mol-Kelvin
 Total                   42.199             20.521             84.927
 Electronic               0.000              0.000              2.755
 Translational            0.889              2.981             38.570
 Rotational               0.889              2.981             25.130
 Vibrational             40.422             14.559             18.472
 Vibration     1          0.593              1.986              6.602
 Vibration     2          0.603              1.953              3.551
 Vibration     3          0.627              1.875              2.395
 Vibration     4          0.645              1.816              1.989
 Vibration     5          0.687              1.691              1.470
 Vibration     6          0.751              1.509              1.033
 Vibration     7          0.795              1.395              0.844

 Normal termination of Gaussian 09 at Thu Mar  7 22:06:05 2019.
