 Gaussian 09, Revision E.01,
 Gaussian 09:  EM64L-G09RevE.01 30-Nov-2015

 ------------------------------------------------------
 #p b3lyp/6-311++G(3df,2p) freq IOp(2/17=3) IOp(2/18=3)
 ------------------------------------------------------

 ---------
 b3lyp opt
 ---------
 Symbolic Z-matrix:
 Charge = -1 Multiplicity = 4

                         Standard orientation:
 ---------------------------------------------------------------------
 Center     Atomic      Atomic             Coordinates (Angstroms)
 Number     Number       Type             X           Y           Z
 ---------------------------------------------------------------------
      1          6           0       -1.471990   -0.921968    0.000174
      2          6           0       -0.373414    0.097349   -0.000781
      3          8           0       -0.754037    1.374180    0.000232
      4          6           0        0.985010   -0.107836   -0.000501
      5          6           0        2.199418   -0.239670    0.000787
      6          1           0       -2.115881   -0.820184   -0.880428
      7          1           0       -2.107658   -0.826984    0.887595
      8          1           0       -1.028217   -1.917955   -0.005772
      9          1           0        3.249906   -0.395566   -0.001329
 ---------------------------------------------------------------------

 SCF Done:  E(UB3LYP) =  -229.935648027     A.U. after   31 cycles

 The electronic state is 4-A.
 Alpha  occ. eigenvalues --  -19.10728 -10.13976 -10.07608 -10.07114 -10.06991
 Alpha  occ. eigenvalues --   -0.97231  -0.68188  -0.63515  -0.54651  -0.42746
 Alpha  occ. eigenvalues --   -0.40222  -0.36956  -0.35392  -0.29716  -0.28443
 Alpha  occ. eigenvalues --   -0.26633  -0.20784  -0.18489  -0.06264   0.05370
 Alpha virt. eigenvalues --    0.07361   0.10372   0.10685   0.11463   0.13127
 Alpha virt. eigenvalues --    0.15045   0.16671   0.17156   0.18171   0.18893
 Alpha virt. eigenvalues --    0.19275   0.19842   0.20390   0.21502   0.22809

  Beta  occ. eigenvalues --  -19.07911 -10.13039 -10.07735 -10.06867 -10.06368
  Beta  occ. eigenvalues --   -0.91005  -0.66313  -0.62278  -0.52115  -0.41156
  Beta  occ. eigenvalues --   -0.37611  -0.33517  -0.32430  -0.28868  -0.25600
  Beta  occ. eigenvalues --   -0.17855  -0.17819
  Beta virt. eigenvalues --   -0.07267   0.04594   0.08562   0.09395   0.11891
  Beta virt. eigenvalues --    0.11950   0.12287   0.13619   0.15647   0.17153
  Beta virt. eigenvalues --    0.17868   0.18605   0.19412   0.20535   0.20908

 Mulliken charges and spin densities:
               1          2
     1  C    2.205999  -2.469693
     2  C   -2.990485   3.599131
     3  O   -0.461133   1.058567
     4  C    5.166537  -5.269633
     5  C   -0.739161   1.099388
     6  H   -0.712523   0.891268
     7  H   -0.706232   0.885489
     8  H   -0.721150   0.878628
     9  H   -2.041852   2.326855
 Sum of Mulliken charges =  -1.00000   3.00000

 Dipole moment (field-independent basis, Debye):
    X=             -1.9392    Y=              4.0483    Z=              0.0116  Tot=              4.4888
 Quadrupole moment (field-independent basis, Debye-Ang):
   XX=            -90.5828   YY=            -58.7795   ZZ=            -54.5035
   XY=             -2.4447   XZ=              0.0105   YZ=             -0.0098

  Exact polarizability:3313.332 266.560 667.016  -2.040   0.547 766.739
 Approx polarizability:4765.187 485.639 508.155  -2.047   0.011 536.474

                      1                      2                      3
                      A                      A                      A
 Frequencies --     75.0814               171.3657               243.5436
 Red. masses --      1.1115                 4.4989                 4.1047
 Frc consts  --      0.0037                 0.0778                 0.1434
 IR Inten    --      1.6361                24.3407                 1.5956

                      4                      5                      6
                      A                      A                      A
 Frequencies --    315.8892               335.2172               460.9299
 Red. masses --      4.2228                 1.3866                 3.5086
 Frc consts  --      0.2483                 0.0918                 0.4392
 IR Inten    --     27.9402               565.9159               236.0538

                      7                      8                      9
                      A                      A                      A
 Frequencies --    540.9070               725.6526               750.4874
 Red. masses --      5.7228                 1.2390                 5.0411
 Frc consts  --      0.9865                 0.3844                 1.6729
 IR Inten    --     24.4735               403.8747                13.1519

                     10                     11                     12
                      A                      A                      A
 Frequencies --    964.8555              1013.7744              1198.3964
 Red. masses --      1.5544                 1.3262                 9.2052
 Frc consts  --      0.8526                 0.8031                 7.7891
 IR Inten    --     10.4350                 7.8297               311.8185

                     13                     14                     15
                      A                      A                      A
 Frequencies --   1309.0391              1382.2713              1434.3832
 Red. masses --      4.3491                 1.2150                 1.0455
 Frc consts  --      4.3909                 1.3678                 1.2673
 IR Inten    --     42.9310               348.7383               485.7948

                     16                     17                     18
                      A                      A                      A
 Frequencies --   1468.4542              2009.8456              2955.7763
 Red. masses --      1.0957                 6.8486                 1.0377
 Frc consts  --      1.3921                16.2997                 5.3413
 IR Inten    --    284.2592               252.2559                45.9080

                     19                     20                     21
                      A                      A                      A
 Frequencies --   3011.1015              3073.4122              3425.5941
 Red. masses --      1.1008                 1.0978                 1.1396
 Frc consts  --      5.8804                 6.1099                 7.8794
 IR Inten    --      0.7991                37.2501              2008.5527

 - Thermochemistry -
 -------------------
 Temperature   298.150 Kelvin.  Pressure   1.00000 Atm.
 Atom     1 has atomic number  6 and mass  12.00000

 Molecular mass:    68.02621 amu.
 Principal axes and moments of inertia in atomic units:
                           1         2         3
     Eigenvalues --   170.36231 460.30681 619.41839
           X            0.99863   0.05232  -0.00005
           Y           -0.05232   0.99863  -0.00001
           Z            0.00005   0.00001   1.00000
 This molecule is an asymmetric top.
 Rotational symmetry number  1.
 Rotational temperatures (Kelvin)      0.50841     0.18817     0.13983
 Rotational constants (GHZ):          10.59355     3.92074     2.91361
 Zero-point vibrational energy     160694.2 (Joules/Mol)
                                   38.40684 (Kcal/Mol)
 Warning -- explicit consideration of   7 degrees of freedom as
           vibrations may cause significant error
 Vibrational temperatures:    108.03   246.56   350.40   454.49   482.30
          (Kelvin)            663.17   778.24  1044.05  1079.78  1388.21
                             1458.59  1724.22  1883.41  1988.78  2063.75
                             2112.78  2891.72  4252.70  4332.30  4421.95
                             4928.66

 Zero-point correction=                           0.061205 (Hartree/Particle)
 Thermal correction to Energy=                    0.067475
 Thermal correction to Enthalpy=                  0.068419
 Thermal correction to Gibbs Free Energy=         0.030569
 Sum of electronic and zero-point Energies=           -229.874443
 Sum of electronic and thermal Energies=              -229.868173
 Sum of electronic and thermal Enthalpies=            -229.867229
 Sum of electronic and thermal Free Energies=         -229.905079

                     E (Thermal)             CV                S
                      KCal/Mol        Cal/Mol-Kelvin    Cal/Mol-Kelvin
 Total                   42.341             20.271             79.661
 Electronic               0.000              0.000              2.755
 Translational            0.889              2.981             38.570
 Rotational               0.889              2.981             25.388
 Vibrational             40.564             14.310             12.948
 Vibration     1          0.599              1.966              4.016
 Vibration     2          0.626              1.878              2.420
 Vibration     3          0.659              1.773              1.777
 Vibration     4          0.703              1.643              1.331
 Vibration     5          0.716              1.605              1.235
 Vibration     6          0.819              1.337              0.763
 Vibration     7          0.896              1.160              0.563

 Normal termination of Gaussian 09 at Thu Mar  7 22:06:43 2019.
