 Gaussian 09, Revision E.01,
 Gaussian 09:  EM64L-G09RevE.01 30-Nov-2015

 ------------------------------------------------------
 #p b3lyp/6-311++G(3df,2p) freq IOp(2/17=3) IOp(2/18=3)
 ------------------------------------------------------

 ---------
 b3lyp opt
 ---------
 Symbolic Z-matrix:
 Charge = -1 Multiplicity = 4

                         Standard orientation:
 ---------------------------------------------------------------------
 Center     Atomic      Atomic             Coordinates (Angstroms)
 Number     Number       Type             X           Y           Z
 ---------------------------------------------------------------------
      1          6           0        0.554750   -0.985641    0.000000
      2          6           0       -0.000000    1.235154   -0.000000
      3          8           0        1.096965    0.271732   -0.000000
      4          6           0       -1.190280    0.348965   -0.000000
      5          6           0       -0.827082   -0.975988    0.000000
      6          1           0        1.256101   -1.803966    0.000000
      7          1           0        0.100169    1.874090    0.887433
      8          1           0        0.100169    1.874090   -0.887433
      9          1           0       -1.456454   -1.853041    0.000000
 ---------------------------------------------------------------------

 SCF Done:  E(UB3LYP) =  -229.951102088     A.U. after   23 cycles

 The electronic state is 4-A".
 Alpha  occ. eigenvalues --  -19.04500 -10.11546 -10.10734 -10.08462 -10.05754
 Alpha  occ. eigenvalues --   -0.95950  -0.68925  -0.63201  -0.47786  -0.45399
 Alpha  occ. eigenvalues --   -0.39633  -0.36739  -0.32133  -0.29276  -0.24969
 Alpha  occ. eigenvalues --   -0.24738  -0.18362  -0.16223  -0.04290   0.05730
 Alpha virt. eigenvalues --    0.08244   0.09434   0.10313   0.13947   0.14407
 Alpha virt. eigenvalues --    0.14419   0.17038   0.17054   0.19046   0.19377
 Alpha virt. eigenvalues --    0.20583   0.21286   0.21578   0.22020   0.22777

  Beta  occ. eigenvalues --  -19.03997 -10.11469 -10.09849 -10.06130 -10.05950
  Beta  occ. eigenvalues --   -0.94779  -0.66771  -0.61792  -0.46052  -0.43877
  Beta  occ. eigenvalues --   -0.37459  -0.35212  -0.31081  -0.28208  -0.23736
  Beta  occ. eigenvalues --   -0.22368  -0.15462
  Beta virt. eigenvalues --    0.00796   0.06962   0.08973   0.10199   0.11064
  Beta virt. eigenvalues --    0.11730   0.14796   0.15521   0.16661   0.17468
  Beta virt. eigenvalues --    0.17745   0.19808   0.20162   0.21079   0.21712

 Mulliken charges and spin densities:
               1          2
     1  C    0.784423  -0.140189
     2  C    2.831936  -2.825577
     3  O   -0.790060   0.256310
     4  C   -0.365042   1.863102
     5  C    0.662916  -1.019166
     6  H   -1.376081   1.565454
     7  H   -0.763199   0.948059
     8  H   -0.763199   0.948059
     9  H   -1.221694   1.403949
 Sum of Mulliken charges =  -1.00000   3.00000

 Dipole moment (field-independent basis, Debye):
    X=             -0.0988    Y=              1.7115    Z=              0.0000  Tot=              1.7143
 Quadrupole moment (field-independent basis, Debye-Ang):
   XX=            -57.0812   YY=            -78.4415   ZZ=            -54.5299
   XY=             -0.2557   XZ=              0.0000   YZ=              0.0000

  Exact polarizability:1567.093  82.1192539.721  -0.000  -0.000 949.917
 Approx polarizability: 939.760  39.8482976.066  -0.000  -0.000 596.511

                      1                      2                      3
                     A"                     A"                     A"
 Frequencies --    244.3035               503.7666               641.6402
 Red. masses --      2.5073                 3.1342                 1.2921
 Frc consts  --      0.0882                 0.4686                 0.3134
 IR Inten    --     59.8912                 0.5434               310.4415

                      4                      5                      6
                     A'                     A'                     A"
 Frequencies --    743.0620               820.0799               852.8505
 Red. masses --      7.0745                 7.5766                 1.3038
 Frc consts  --      2.3014                 3.0022                 0.5588
 IR Inten    --     41.9857               274.6151               151.4917

                      7                      8                      9
                     A'                     A'                     A"
 Frequencies --    867.8503               934.5689               995.3790
 Red. masses --      4.1899                 2.5858                 1.5477
 Frc consts  --      1.8593                 1.3307                 0.9035
 IR Inten    --    555.8033               103.1847                 2.9660

                     10                     11                     12
                     A'                     A'                     A"
 Frequencies --   1061.7738              1130.9362              1159.8769
 Red. masses --      3.7208                 1.9345                 1.0732
 Frc consts  --      2.4715                 1.4578                 0.8507
 IR Inten    --     39.8745               528.2419                 0.0012

                     13                     14                     15
                     A'                     A'                     A'
 Frequencies --   1245.7015              1316.5169              1340.8251
 Red. masses --      1.5543                 2.6631                 2.0202
 Frc consts  --      1.4211                 2.7195                 2.1399
 IR Inten    --     81.6146               137.2834                38.5125

                     16                     17                     18
                     A'                     A'                     A'
 Frequencies --   1454.0901              1474.3816              2928.9858
 Red. masses --      2.8045                 1.0888                 1.0548
 Frc consts  --      3.4937                 1.3945                 5.3314
 IR Inten    --    166.9365               758.0218                26.8332

                     19                     20                     21
                     A"                     A'                     A'
 Frequencies --   2961.1292              3188.8857              3218.4941
 Red. masses --      1.1072                 1.0929                 1.0972
 Frc consts  --      5.7202                 6.5477                 6.6966
 IR Inten    --      0.0667               215.0893                 7.8634

 - Thermochemistry -
 -------------------
 Temperature   298.150 Kelvin.  Pressure   1.00000 Atm.
 Atom     1 has atomic number  6 and mass  12.00000

 Molecular mass:    68.02621 amu.
 Principal axes and moments of inertia in atomic units:
                           1         2         3
     Eigenvalues --   184.61209 218.67155 391.94624
           X            0.43311   0.90134   0.00000
           Y            0.90134  -0.43311   0.00000
           Z            0.00000   0.00000   1.00000
 This molecule is an asymmetric top.
 Rotational symmetry number  1.
 Rotational temperatures (Kelvin)      0.46917     0.39609     0.22098
 Rotational constants (GHZ):           9.77586     8.25321     4.60456
 Zero-point vibrational energy     173967.5 (Joules/Mol)
                                   41.57923 (Kcal/Mol)
 Warning -- explicit consideration of   2 degrees of freedom as
           vibrations may cause significant error
 Vibrational temperatures:    351.50   724.81   923.18  1069.10  1179.91
          (Kelvin)           1227.06  1248.64  1344.63  1432.13  1527.65
                             1627.16  1668.80  1792.28  1894.17  1929.15
                             2092.11  2121.30  4214.15  4260.40  4588.09
                             4630.69

 Zero-point correction=                           0.066261 (Hartree/Particle)
 Thermal correction to Energy=                    0.070443
 Thermal correction to Enthalpy=                  0.071387
 Thermal correction to Gibbs Free Energy=         0.038279
 Sum of electronic and zero-point Energies=           -229.884841
 Sum of electronic and thermal Energies=              -229.880659
 Sum of electronic and thermal Enthalpies=            -229.879715
 Sum of electronic and thermal Free Energies=         -229.912823

                     E (Thermal)             CV                S
                      KCal/Mol        Cal/Mol-Kelvin    Cal/Mol-Kelvin
 Total                   44.204             14.656             69.683
 Electronic               0.000              0.000              2.755
 Translational            0.889              2.981             38.570
 Rotational               0.889              2.981             24.274
 Vibrational             42.426              8.694              4.085
 Vibration     1          0.660              1.772              1.771
 Vibration     2          0.859              1.242              0.649

 Normal termination of Gaussian 09 at Fri Mar  8 00:49:17 2019.
