 Gaussian 09, Revision E.01,
 Gaussian 09:  EM64L-G09RevE.01 30-Nov-2015

 ------------------------------------------------------
 #p b3lyp/6-311++G(3df,2p) freq IOp(2/17=3) IOp(2/18=3)
 ------------------------------------------------------

 ---------
 b3lyp opt
 ---------
 Symbolic Z-matrix:
 Charge = -1 Multiplicity = 2

                         Standard orientation:
 ---------------------------------------------------------------------
 Center     Atomic      Atomic             Coordinates (Angstroms)
 Number     Number       Type             X           Y           Z
 ---------------------------------------------------------------------
      1          6           0       -0.048276   -0.663725   -0.000000
      2          1           0        0.872546    1.055093    0.000000
      3          1           0        0.445888   -1.075236    0.887542
      4          1           0       -1.089224   -0.988525   -0.000000
      5          1           0        0.445888   -1.075236   -0.887542
      6          8           0       -0.048276    0.758277   -0.000000
 ---------------------------------------------------------------------

 SCF Done:  E(UB3LYP) =  -115.749826133     A.U. after   18 cycles

 The electronic state is 2-A'.
 Alpha  occ. eigenvalues --  -18.97675 -10.05893  -0.87234  -0.53557  -0.36232
 Alpha  occ. eigenvalues --   -0.29189  -0.28253  -0.19636  -0.13363   0.06354
 Alpha virt. eigenvalues --    0.10321   0.11829   0.12315   0.17333   0.19636
 Alpha virt. eigenvalues --    0.21075   0.22780   0.27941   0.30032   0.30527
 Alpha virt. eigenvalues --    0.31246   0.33547   0.33832   0.36706   0.37681

  Beta  occ. eigenvalues --  -18.97617 -10.05810  -0.87122  -0.53337  -0.36032
  Beta  occ. eigenvalues --   -0.29115  -0.28148  -0.19553  -0.13291
  Beta virt. eigenvalues --    0.10067   0.12040   0.13695   0.13766   0.17974
  Beta virt. eigenvalues --    0.20352   0.20993   0.22888   0.28721   0.30377
  Beta virt. eigenvalues --    0.30923   0.31070   0.33405   0.34077   0.36919

 Mulliken charges and spin densities:
               1          2
     1  C    3.430148  -3.446462
     2  H   -0.563442   0.805703
     3  H   -1.137323   1.258362
     4  H   -0.786134   0.892806
     5  H   -1.137323   1.258362
     6  O   -0.805924   0.231228
 Sum of Mulliken charges =  -1.00000   1.00000

 Dipole moment (field-independent basis, Debye):
    X=             -2.5805    Y=              1.9071    Z=             -0.0000  Tot=              3.2087
 Quadrupole moment (field-independent basis, Debye-Ang):
   XX=            -37.6499   YY=            -40.5128   ZZ=            -36.6814
   XY=             -0.4282   XZ=              0.0000   YZ=             -0.0000

  Exact polarizability: 801.022 291.618 878.127   0.000   0.000 764.194
 Approx polarizability: 548.218 269.283 738.518  -0.000  -0.000 551.372

                      1                      2                      3
                     A"                     A'                     A'
 Frequencies --    239.0179              1029.2547              1078.5906
 Red. masses --      1.0682                 4.2505                 1.2348
 Frc consts  --      0.0360                 2.6530                 0.8464
 IR Inten    --    600.3209               307.8002               174.8032

                      4                      5                      6
                     A"                     A'                     A'
 Frequencies --   1177.1241              1370.6181              1468.0602
 Red. masses --      1.2792                 1.2779                 1.1395
 Frc consts  --      1.0443                 1.4144                 1.4470
 IR Inten    --     18.3894                87.5906               311.2543

                      7                      8                      9
                     A"                     A'                     A'
 Frequencies --   1490.4732              1506.2618              2949.5968
 Red. masses --      1.0427                 1.0403                 1.0353
 Frc consts  --      1.3647                 1.3906                 5.3068
 IR Inten    --    128.3497               731.2624                58.9357

                     10                     11                     12
                     A"                     A'                     A'
 Frequencies --   3005.2347              3068.2490              3666.8852
 Red. masses --      1.1039                 1.0978                 1.0656
 Frc consts  --      5.8738                 6.0891                 8.4421
 IR Inten    --     92.4443                15.3297              5358.5565

 - Thermochemistry -
 -------------------
 Temperature   298.150 Kelvin.  Pressure   1.00000 Atm.
 Atom     1 has atomic number  6 and mass  12.00000

 Molecular mass:    32.02621 amu.
 Principal axes and moments of inertia in atomic units:
                           1         2         3
     Eigenvalues --    14.12210  72.93270  75.71459
           X            0.05405   0.99854   0.00000
           Y            0.99854  -0.05405   0.00000
           Z           -0.00000  -0.00000   1.00000
 This molecule is an asymmetric top.
 Rotational symmetry number  1.
 Rotational temperatures (Kelvin)      6.13321     1.18759     1.14395
 Rotational constants (GHZ):         127.79555    24.74530    23.83611
 Zero-point vibrational energy     131884.5 (Joules/Mol)
                                   31.52115 (Kcal/Mol)
 Warning -- explicit consideration of   1 degrees of freedom as
           vibrations may cause significant error
 Vibrational temperatures:    343.89  1480.87  1551.85  1693.62  1972.01
          (Kelvin)           2112.21  2144.46  2167.17  4243.81  4323.86
                             4414.52  5275.82

 Zero-point correction=                           0.050232 (Hartree/Particle)
 Thermal correction to Energy=                    0.053669
 Thermal correction to Enthalpy=                  0.054613
 Thermal correction to Gibbs Free Energy=         0.026694
 Sum of electronic and zero-point Energies=           -115.699594
 Sum of electronic and thermal Energies=              -115.696157
 Sum of electronic and thermal Enthalpies=            -115.695213
 Sum of electronic and thermal Free Energies=         -115.723132

                     E (Thermal)             CV                S
                      KCal/Mol        Cal/Mol-Kelvin    Cal/Mol-Kelvin
 Total                   33.678              8.960             58.761
 Electronic               0.000              0.000              1.377
 Translational            0.889              2.981             36.324
 Rotational               0.889              2.981             18.995
 Vibrational             31.900              2.998              2.064
 Vibration     1          0.657              1.781              1.810

 Optimization completed.
    -- Stationary point found.
 Normal termination of Gaussian 09 at Fri Mar  8 03:39:35 2019.
