 Gaussian 09, Revision E.01,
 Gaussian 09:  EM64L-G09RevE.01 30-Nov-2015

 ------------------------------------------------------
 #p b3lyp/6-311++G(3df,2p) freq IOp(2/17=3) IOp(2/18=3)
 ------------------------------------------------------

 ---------
 b3lyp opt
 ---------
 Symbolic Z-matrix:
 Charge = -1 Multiplicity = 1

                         Standard orientation:
 ---------------------------------------------------------------------
 Center     Atomic      Atomic             Coordinates (Angstroms)
 Number     Number       Type             X           Y           Z
 ---------------------------------------------------------------------
      1          6           0       -0.023248    0.003066    0.000000
      2          6           0       -0.000000    1.258413    0.000000
      3          1           0       -0.647265    2.106508    0.000000
      4          8           0        0.098344   -1.209423   -0.000000
 ---------------------------------------------------------------------

 SCF Done:  E(RB3LYP) =  -152.069003844     A.U. after   14 cycles

 The electronic state is 1-A'.
 Alpha  occ. eigenvalues --  -18.89889 -10.00697  -9.91225  -0.81502  -0.49920
 Alpha  occ. eigenvalues --   -0.28519  -0.23653  -0.17541  -0.17303  -0.00422
 Alpha  occ. eigenvalues --    0.00455
 Alpha virt. eigenvalues --    0.13254   0.17398   0.20141   0.21356   0.22739
 Alpha virt. eigenvalues --    0.23599   0.24212   0.26699   0.28510   0.29672
 Alpha virt. eigenvalues --    0.32859   0.37476   0.40336   0.41910   0.42235

 Mulliken charges:
               1
     1  C    0.443101
     2  C   -0.773618
     3  H    0.138370
     4  O   -0.807853
 Sum of Mulliken charges =  -1.00000

 Dipole moment (field-independent basis, Debye):
    X=             -1.1076    Y=             -0.7041    Z=             -0.0000  Tot=              1.3125
 Quadrupole moment (field-independent basis, Debye-Ang):
   XX=            -21.7252   YY=            -29.7096   ZZ=            -22.4755
   XY=             -1.7684   XZ=              0.0000   YZ=             -0.0000

  Exact polarizability:  35.841   2.817  64.190  -0.000  -0.000  36.957
 Approx polarizability:  44.160   5.285 109.896   0.000   0.000  44.889

                      1                      2                      3
                     A'                     A"                     A'
 Frequencies --    416.1323               588.1395               600.7423
 Red. masses --      1.1572                 5.4729                11.0408
 Frc consts  --      0.1181                 1.1154                 2.3476
 IR Inten    --    269.4563                 1.2258                 5.3084

                      4                      5                      6
                     A'                     A'                     A'
 Frequencies --   1240.0874              2078.4963              3357.0531
 Red. masses --      9.3837                 8.5745                 1.1143
 Frc consts  --      8.5021                21.8252                 7.3992
 IR Inten    --     49.7218              1223.0495                15.9550

 - Thermochemistry -
 -------------------
 Temperature   298.150 Kelvin.  Pressure   1.00000 Atm.
 Atom     1 has atomic number  6 and mass  12.00000

 Molecular mass:    41.00274 amu.
 Principal axes and moments of inertia in atomic units:
                           1         2         3
     Eigenvalues --     1.23754 167.81215 169.04970
           X           -0.06973   0.99757   0.00000
           Y            0.99757   0.06973  -0.00000
           Z            0.00000   0.00000   1.00000
 This molecule is an asymmetric top.
 Rotational symmetry number  1.
 Rotational temperatures (Kelvin)     69.98853     0.51614     0.51236
 Rotational constants (GHZ):        1458.32615    10.75453    10.67580
 Zero-point vibrational energy      49529.3 (Joules/Mol)
                                   11.83778 (Kcal/Mol)
 Warning -- explicit consideration of   3 degrees of freedom as
           vibrations may cause significant error
 Vibrational temperatures:    598.72   846.20   864.33  1784.21  2990.49
          (Kelvin)           4830.04

 Zero-point correction=                           0.018865 (Hartree/Particle)
 Thermal correction to Energy=                    0.022332
 Thermal correction to Enthalpy=                  0.023276
 Thermal correction to Gibbs Free Energy=        -0.003865
 Sum of electronic and zero-point Energies=           -152.050139
 Sum of electronic and thermal Energies=              -152.046672
 Sum of electronic and thermal Enthalpies=            -152.045728
 Sum of electronic and thermal Free Energies=         -152.072868

                     E (Thermal)             CV                S
                      KCal/Mol        Cal/Mol-Kelvin    Cal/Mol-Kelvin
 Total                   14.014              9.673             57.123
 Electronic               0.000              0.000              0.000
 Translational            0.889              2.981             37.061
 Rotational               0.889              2.981             18.202
 Vibrational             12.236              3.711              1.860
 Vibration     1          0.779              1.435              0.905
 Vibration     2          0.945              1.057              0.471
 Vibration     3          0.959              1.030              0.448

 Optimization completed.
    -- Stationary point found.
 Normal termination of Gaussian 09 at Fri Mar  8 03:47:20 2019.
