 Gaussian 09, Revision E.01,
 Gaussian 09:  EM64L-G09RevE.01 30-Nov-2015

 ------------------------------------------------------
 #p b3lyp/6-311++G(3df,2p) freq IOp(2/17=3) IOp(2/18=3)
 ------------------------------------------------------

 ---------
 b3lyp opt
 ---------
 Symbolic Z-matrix:
 Charge = -1 Multiplicity = 3

                         Standard orientation:
 ---------------------------------------------------------------------
 Center     Atomic      Atomic             Coordinates (Angstroms)
 Number     Number       Type             X           Y           Z
 ---------------------------------------------------------------------
      1          6           0        0.035276    0.333016   -0.000710
      2          6           0       -1.253599   -0.268819   -0.000250
      3          1           0       -2.024092    0.514918    0.002650
      4          8           0        1.166754   -0.112512    0.000389
 ---------------------------------------------------------------------

 SCF Done:  E(UB3LYP) =  -151.972150781     A.U. after   18 cycles

 The electronic state is 3-A.
 Alpha  occ. eigenvalues --  -18.94260 -10.03401  -9.97488  -0.85699  -0.51760
 Alpha  occ. eigenvalues --   -0.31033  -0.24266  -0.21702  -0.19108  -0.06472
 Alpha  occ. eigenvalues --   -0.03909   0.05500
 Alpha virt. eigenvalues --    0.13719   0.17494   0.19348   0.20463   0.20598
 Alpha virt. eigenvalues --    0.22750   0.23478   0.26270   0.26719   0.29003
 Alpha virt. eigenvalues --    0.32949   0.36574   0.37985   0.40717   0.43628

  Beta  occ. eigenvalues --  -18.93084 -10.02682  -9.96240  -0.83396  -0.47533
  Beta  occ. eigenvalues --   -0.29005  -0.21907  -0.17811  -0.15786  -0.02742
  Beta virt. eigenvalues --    0.08171   0.12621   0.15545   0.18174   0.19889
  Beta virt. eigenvalues --    0.21378   0.22027   0.23223   0.24095   0.27810
  Beta virt. eigenvalues --    0.29357   0.30097   0.33542   0.36583   0.38752

 Mulliken charges and spin densities:
               1          2
     1  C   -0.537665   1.377499
     2  C    0.002174   0.301377
     3  H   -0.071449   0.142109
     4  O   -0.393060   0.179016
 Sum of Mulliken charges =  -1.00000   2.00000

 Dipole moment (field-independent basis, Debye):
    X=              1.0821    Y=              1.1672    Z=              0.0021  Tot=              1.5916
 Quadrupole moment (field-independent basis, Debye-Ang):
   XX=            -30.3918   YY=            -27.8357   ZZ=            -22.3934
   XY=             -3.2940   XZ=             -0.0045   YZ=             -0.0014

  Exact polarizability:  93.049  13.055  93.536  -0.061  -0.003  54.602
 Approx polarizability: 119.996  12.173  91.274  -0.025   0.006  58.438

                      1                      2                      3
                      A                      A                      A
 Frequencies --    314.9913               557.3878               979.9056
 Red. masses --      1.3073                 5.9707                 8.2481
 Frc consts  --      0.0764                 1.0929                 4.6663
 IR Inten    --     14.7986                27.7124                43.4398

                      4                      5                      6
                      A                      A                      A
 Frequencies --   1037.9881              1630.0407              2961.2818
 Red. masses --      1.2821                10.8521                 1.0824
 Frc consts  --      0.8139                16.9888                 5.5922
 IR Inten    --     74.4155               450.6835                 8.1982

 - Thermochemistry -
 -------------------
 Temperature   298.150 Kelvin.  Pressure   1.00000 Atm.
 Atom     1 has atomic number  6 and mass  12.00000

 Molecular mass:    41.00274 amu.
 Principal axes and moments of inertia in atomic units:
                           1         2         3
     Eigenvalues --     9.40838 159.64492 169.05319
           X            0.99968  -0.02520  -0.00014
           Y            0.02520   0.99968   0.00057
           Z            0.00012  -0.00058   1.00000
 This molecule is an asymmetric top.
 Rotational symmetry number  1.
 Rotational temperatures (Kelvin)      9.20603     0.54254     0.51235
 Rotational constants (GHZ):         191.82281    11.30472    10.67558
 Zero-point vibrational energy      44749.9 (Joules/Mol)
                                   10.69548 (Kcal/Mol)
 Warning -- explicit consideration of   2 degrees of freedom as
           vibrations may cause significant error
 Vibrational temperatures:    453.20   801.96  1409.86  1493.43  2345.26
          (Kelvin)           4260.62

 Zero-point correction=                           0.017044 (Hartree/Particle)
 Thermal correction to Energy=                    0.020538
 Thermal correction to Enthalpy=                  0.021482
 Thermal correction to Gibbs Free Energy=        -0.007722
 Sum of electronic and zero-point Energies=           -151.955106
 Sum of electronic and thermal Energies=              -151.951613
 Sum of electronic and thermal Enthalpies=            -151.950669
 Sum of electronic and thermal Free Energies=         -151.979873

                     E (Thermal)             CV                S
                      KCal/Mol        Cal/Mol-Kelvin    Cal/Mol-Kelvin
 Total                   12.888              9.515             61.465
 Electronic               0.000              0.000              2.183
 Translational            0.889              2.981             37.061
 Rotational               0.889              2.981             20.168
 Vibrational             11.110              3.553              2.053
 Vibration     1          0.702              1.645              1.336
 Vibration     2          0.913              1.124              0.529

 Normal termination of Gaussian 09 at Fri Mar  8 04:03:48 2019.
