 Gaussian 09, Revision E.01,
 Gaussian 09:  EM64L-G09RevE.01 30-Nov-2015

 ------------------------------------------------------
 #p b3lyp/6-311++G(3df,2p) freq IOp(2/17=3) IOp(2/18=3)
 ------------------------------------------------------

 ---------
 b3lyp opt
 ---------
 Symbolic Z-matrix:
 Charge = -1 Multiplicity = 1

                         Standard orientation:
 ---------------------------------------------------------------------
 Center     Atomic      Atomic             Coordinates (Angstroms)
 Number     Number       Type             X           Y           Z
 ---------------------------------------------------------------------
      1          6           0        0.023456    0.002984   -0.000000
      2          6           0       -0.000000    1.258432    0.000000
      3          1           0        0.650375    2.104163    0.000000
      4          8           0       -0.098889   -1.209083   -0.000000
 ---------------------------------------------------------------------

 SCF Done:  E(RB3LYP) =  -152.069003898     A.U. after   14 cycles

 The electronic state is 1-A'.
 Alpha  occ. eigenvalues --  -18.89900 -10.00697  -9.91217  -0.81531  -0.49921
 Alpha  occ. eigenvalues --   -0.28505  -0.23657  -0.17558  -0.17317  -0.00428
 Alpha  occ. eigenvalues --    0.00459
 Alpha virt. eigenvalues --    0.13260   0.17397   0.20139   0.21359   0.22734
 Alpha virt. eigenvalues --    0.23598   0.24214   0.26705   0.28496   0.29669
 Alpha virt. eigenvalues --    0.32864   0.37462   0.40339   0.41892   0.42229

 Mulliken charges:
               1
     1  C    0.444487
     2  C   -0.774841
     3  H    0.137913
     4  O   -0.807559
 Sum of Mulliken charges =  -1.00000

 Dipole moment (field-independent basis, Debye):
    X=              1.1118    Y=             -0.7150    Z=             -0.0000  Tot=              1.3218
 Quadrupole moment (field-independent basis, Debye-Ang):
   XX=            -21.7187   YY=            -29.7260   ZZ=            -22.4767
   XY=              1.7730   XZ=              0.0000   YZ=             -0.0000

  Exact polarizability:  35.837  -2.824  64.188   0.000   0.000  36.972
 Approx polarizability:  44.165  -5.292 109.900  -0.000   0.000  44.906

                      1                      2                      3
                     A'                     A"                     A'
 Frequencies --    418.2226               587.6691               600.8179
 Red. masses --      1.1556                 5.4627                11.1735
 Frc consts  --      0.1191                 1.1115                 2.3764
 IR Inten    --    269.2178                 1.2590                 5.7832

                      4                      5                      6
                     A'                     A'                     A'
 Frequencies --   1240.8377              2079.1514              3356.6805
 Red. masses --      9.3859                 8.5875                 1.1142
 Frc consts  --      8.5144                21.8720                 7.3963
 IR Inten    --     49.0947              1223.6890                15.7107

 - Thermochemistry -
 -------------------
 Temperature   298.150 Kelvin.  Pressure   1.00000 Atm.
 Atom     1 has atomic number  6 and mass  12.00000

 Molecular mass:    41.00274 amu.
 Principal axes and moments of inertia in atomic units:
                           1         2         3
     Eigenvalues --     1.25035 167.74046 168.99081
           X            0.07009   0.99754   0.00000
           Y            0.99754  -0.07009  -0.00000
           Z            0.00000  -0.00000   1.00000
 This molecule is an asymmetric top.
 Rotational symmetry number  1.
 Rotational temperatures (Kelvin)     69.27174     0.51636     0.51254
 Rotational constants (GHZ):        1443.39049    10.75913    10.67952
 Zero-point vibrational energy      49545.6 (Joules/Mol)
                                   11.84168 (Kcal/Mol)
 Warning -- explicit consideration of   3 degrees of freedom as
           vibrations may cause significant error
 Vibrational temperatures:    601.73   845.52   864.44  1785.29  2991.43
          (Kelvin)           4829.51

 Zero-point correction=                           0.018871 (Hartree/Particle)
 Thermal correction to Energy=                    0.022337
 Thermal correction to Enthalpy=                  0.023281
 Thermal correction to Gibbs Free Energy=        -0.003862
 Sum of electronic and zero-point Energies=           -152.050133
 Sum of electronic and thermal Energies=              -152.046667
 Sum of electronic and thermal Enthalpies=            -152.045723
 Sum of electronic and thermal Free Energies=         -152.072865

                     E (Thermal)             CV                S
                      KCal/Mol        Cal/Mol-Kelvin    Cal/Mol-Kelvin
 Total                   14.016              9.669             57.126
 Electronic               0.000              0.000              0.000
 Translational            0.889              2.981             37.061
 Rotational               0.889              2.981             18.212
 Vibrational             12.239              3.707              1.854
 Vibration     1          0.781              1.431              0.898
 Vibration     2          0.945              1.058              0.471
 Vibration     3          0.959              1.030              0.448

 Optimization completed.
    -- Stationary point found.
 Normal termination of Gaussian 09 at Fri Mar  8 03:43:41 2019.
