 Gaussian 09, Revision E.01,
 Gaussian 09:  EM64L-G09RevE.01 30-Nov-2015

 ------------------------------------------------------
 #p b3lyp/6-311++G(3df,2p) freq IOp(2/17=3) IOp(2/18=3)
 ------------------------------------------------------

 ---------
 b3lyp opt
 ---------
 Symbolic Z-matrix:
 Charge = -1 Multiplicity = 3

                         Standard orientation:
 ---------------------------------------------------------------------
 Center     Atomic      Atomic             Coordinates (Angstroms)
 Number     Number       Type             X           Y           Z
 ---------------------------------------------------------------------
      1          6           0       -0.920998   -0.385932    0.042203
      2          6           0        0.546392   -0.502261   -0.145982
      3          1           0        1.373930   -0.844527    0.509039
      4          8           0        0.109214    0.771711    0.014205
 ---------------------------------------------------------------------

 SCF Done:  E(UB3LYP) =  -151.887425441     A.U. after   18 cycles

 The electronic state is 3-A.
 Alpha  occ. eigenvalues --  -18.95466 -10.00799  -9.97021  -0.86591  -0.43169
 Alpha  occ. eigenvalues --   -0.36046  -0.24854  -0.20880  -0.11331  -0.04919
 Alpha  occ. eigenvalues --   -0.00336   0.07161
 Alpha virt. eigenvalues --    0.12814   0.18190   0.19347   0.20613   0.22446
 Alpha virt. eigenvalues --    0.24221   0.24723   0.26898   0.29047   0.32346
 Alpha virt. eigenvalues --    0.34464   0.35907   0.36974   0.38219   0.43813

  Beta  occ. eigenvalues --  -18.94465  -9.99738  -9.95744  -0.84547  -0.40095
  Beta  occ. eigenvalues --   -0.33535  -0.22267  -0.15396  -0.09540  -0.02475
  Beta virt. eigenvalues --    0.12930   0.13019   0.18237   0.19246   0.19640
  Beta virt. eigenvalues --    0.21974   0.22692   0.24152   0.27032   0.28377
  Beta virt. eigenvalues --    0.29523   0.33361   0.35500   0.36872   0.37653

 Mulliken charges and spin densities:
               1          2
     1  C   -0.597680   1.021935
     2  C   -0.011948   0.682085
     3  H    0.032643   0.059666
     4  O   -0.423016   0.236314
 Sum of Mulliken charges =  -1.00000   2.00000

 Dipole moment (field-independent basis, Debye):
    X=              3.0446    Y=              0.6937    Z=              0.3076  Tot=              3.1378
 Quadrupole moment (field-independent basis, Debye-Ang):
   XX=            -29.0797   YY=            -23.8140   ZZ=            -23.8835
   XY=             -1.5489   XZ=              1.1455   YZ=             -0.4656

  Exact polarizability:  81.838  -6.748  37.859  10.640  -2.628  59.891
 Approx polarizability:  80.501  -3.698  56.806   5.921  -0.373  57.683

                      1                      2                      3
                      A                      A                      A
 Frequencies --    525.1875               874.7943               950.3930
 Red. masses --      8.8697                 1.6984                 2.2027
 Frc consts  --      1.4414                 0.7658                 1.1722
 IR Inten    --     55.3149                 8.3314                33.1951

                      4                      5                      6
                      A                      A                      A
 Frequencies --   1083.8215              1270.5944              2712.4173
 Red. masses --      1.5091                 8.7925                 1.0787
 Frc consts  --      1.0444                 8.3633                 4.6760
 IR Inten    --     21.7332                53.8003              1453.8130

 - Thermochemistry -
 -------------------
 Temperature   298.150 Kelvin.  Pressure   1.00000 Atm.
 Atom     1 has atomic number  6 and mass  12.00000

 Molecular mass:    41.00274 amu.
 Principal axes and moments of inertia in atomic units:
                           1         2         3
     Eigenvalues --    52.54842  61.26879 110.34900
           X            0.81265  -0.58069   0.04891
           Y            0.58240   0.81219  -0.03391
           Z           -0.02003   0.05604   0.99823
 This molecule is an asymmetric top.
 Rotational symmetry number  1.
 Rotational temperatures (Kelvin)      1.64827     1.41367     0.78491
 Rotational constants (GHZ):          34.34435    29.45613    16.35485
 Zero-point vibrational energy      44364.8 (Joules/Mol)
                                   10.60343 (Kcal/Mol)
 Warning -- explicit consideration of   1 degrees of freedom as
           vibrations may cause significant error
 Vibrational temperatures:    755.63  1258.63  1367.40  1559.38  1828.10
          (Kelvin)           3902.56

 Zero-point correction=                           0.016898 (Hartree/Particle)
 Thermal correction to Energy=                    0.020079
 Thermal correction to Enthalpy=                  0.021024
 Thermal correction to Gibbs Free Energy=        -0.007821
 Sum of electronic and zero-point Energies=           -151.870528
 Sum of electronic and thermal Energies=              -151.867346
 Sum of electronic and thermal Enthalpies=            -151.866402
 Sum of electronic and thermal Free Energies=         -151.895247

                     E (Thermal)             CV                S
                      KCal/Mol        Cal/Mol-Kelvin    Cal/Mol-Kelvin
 Total                   12.600              8.584             60.710
 Electronic               0.000              0.000              2.183
 Translational            0.889              2.981             37.061
 Rotational               0.889              2.981             20.502
 Vibrational             10.823              2.622              0.964
 Vibration     1          0.880              1.194              0.598

 Optimization completed.
    -- Stationary point found.
 Normal termination of Gaussian 09 at Fri Mar  8 03:57:51 2019.
