 Gaussian 09, Revision E.01,
 Gaussian 09:  EM64L-G09RevE.01 30-Nov-2015

 ------------------------------------------------------
 #p b3lyp/6-311++G(3df,2p) freq IOp(2/17=3) IOp(2/18=3)
 ------------------------------------------------------

 ---------
 b3lyp opt
 ---------
 Symbolic Z-matrix:
 Charge = -1 Multiplicity = 3

                         Standard orientation:
 ---------------------------------------------------------------------
 Center     Atomic      Atomic             Coordinates (Angstroms)
 Number     Number       Type             X           Y           Z
 ---------------------------------------------------------------------
      1          6           0        0.918101   -0.392676    0.041951
      2          6           0       -0.551008   -0.497576   -0.145606
      3          1           0       -1.380267   -0.835333    0.507674
      4          8           0       -0.102786    0.772105    0.014282
 ---------------------------------------------------------------------

 SCF Done:  E(UB3LYP) =  -151.887424053     A.U. after   18 cycles

 The electronic state is 3-A.
 Alpha  occ. eigenvalues --  -18.95470 -10.00790  -9.97014  -0.86618  -0.43152
 Alpha  occ. eigenvalues --   -0.36071  -0.24877  -0.20900  -0.11327  -0.04903
 Alpha  occ. eigenvalues --   -0.00316   0.07167
 Alpha virt. eigenvalues --    0.12815   0.18192   0.19347   0.20616   0.22446
 Alpha virt. eigenvalues --    0.24223   0.24725   0.26896   0.29051   0.32367
 Alpha virt. eigenvalues --    0.34487   0.35915   0.36976   0.38209   0.43806

  Beta  occ. eigenvalues --  -18.94469  -9.99728  -9.95737  -0.84575  -0.40081
  Beta  occ. eigenvalues --   -0.33559  -0.22300  -0.15409  -0.09535  -0.02462
  Beta virt. eigenvalues --    0.12929   0.13035   0.18239   0.19253   0.19641
  Beta virt. eigenvalues --    0.21980   0.22693   0.24154   0.27031   0.28384
  Beta virt. eigenvalues --    0.29527   0.33376   0.35524   0.36869   0.37668

 Mulliken charges and spin densities:
               1          2
     1  C   -0.599018   1.022804
     2  C   -0.013031   0.683007
     3  H    0.034277   0.058536
     4  O   -0.422228   0.235653
 Sum of Mulliken charges =  -1.00000   2.00000

 Dipole moment (field-independent basis, Debye):
    X=             -3.0476    Y=              0.7181    Z=              0.3122  Tot=              3.1466
 Quadrupole moment (field-independent basis, Debye-Ang):
   XX=            -29.0488   YY=            -23.8338   ZZ=            -23.8857
   XY=              1.5976   XZ=             -1.1584   YZ=             -0.4604

  Exact polarizability:  81.426   6.309  37.727 -10.262  -2.500  59.783
 Approx polarizability:  80.283   3.490  56.688  -5.697  -0.318  57.624

                      1                      2                      3
                      A                      A                      A
 Frequencies --    526.4169               872.1950               947.7135
 Red. masses --      8.8220                 1.6650                 2.2423
 Frc consts  --      1.4404                 0.7463                 1.1866
 IR Inten    --     55.5137                 8.6181                31.3656

                      4                      5                      6
                      A                      A                      A
 Frequencies --   1081.9836              1271.3443              2723.7880
 Red. masses --      1.5166                 8.8575                 1.0790
 Frc consts  --      1.0461                 8.4350                 4.7164
 IR Inten    --     21.2959                52.7042              1426.6880

 - Thermochemistry -
 -------------------
 Temperature   298.150 Kelvin.  Pressure   1.00000 Atm.
 Atom     1 has atomic number  6 and mass  12.00000

 Molecular mass:    41.00274 amu.
 Principal axes and moments of inertia in atomic units:
                           1         2         3
     Eigenvalues --    52.55622  61.21823 110.32495
           X            0.81222   0.58129  -0.04896
           Y           -0.58300   0.81179  -0.03348
           Z            0.02029   0.05573   0.99824
 This molecule is an asymmetric top.
 Rotational symmetry number  1.
 Rotational temperatures (Kelvin)      1.64802     1.41484     0.78508
 Rotational constants (GHZ):          34.33925    29.48046    16.35841
 Zero-point vibrational energy      44402.0 (Joules/Mol)
                                   10.61234 (Kcal/Mol)
 Warning -- explicit consideration of   1 degrees of freedom as
           vibrations may cause significant error
 Vibrational temperatures:    757.40  1254.89  1363.55  1556.73  1829.18
          (Kelvin)           3918.92

 Zero-point correction=                           0.016912 (Hartree/Particle)
 Thermal correction to Energy=                    0.020094
 Thermal correction to Enthalpy=                  0.021038
 Thermal correction to Gibbs Free Energy=        -0.007807
 Sum of electronic and zero-point Energies=           -151.870512
 Sum of electronic and thermal Energies=              -151.867330
 Sum of electronic and thermal Enthalpies=            -151.866386
 Sum of electronic and thermal Free Energies=         -151.895231

                     E (Thermal)             CV                S
                      KCal/Mol        Cal/Mol-Kelvin    Cal/Mol-Kelvin
 Total                   12.609              8.589             60.709
 Electronic               0.000              0.000              2.183
 Translational            0.889              2.981             37.061
 Rotational               0.889              2.981             20.501
 Vibrational             10.832              2.628              0.965
 Vibration     1          0.881              1.192              0.595

 Normal termination of Gaussian 09 at Fri Mar  8 04:09:30 2019.
