 Gaussian 09, Revision E.01,
 Gaussian 09:  EM64L-G09RevE.01 30-Nov-2015

 ------------------------------------------------------
 #p b3lyp/6-311++G(3df,2p) freq IOp(2/17=3) IOp(2/18=3)
 ------------------------------------------------------

 ---------
 b3lyp opt
 ---------
 Symbolic Z-matrix:
 Charge = -1 Multiplicity = 1

                         Standard orientation:
 ---------------------------------------------------------------------
 Center     Atomic      Atomic             Coordinates (Angstroms)
 Number     Number       Type             X           Y           Z
 ---------------------------------------------------------------------
      1          6           0        0.188070   -1.309287   -0.000000
      2          6           0       -0.000000    1.233576    0.000000
      3          1           0       -1.080754    1.478419    0.000000
      4          8           0       -0.005958   -0.128019   -0.000000
 ---------------------------------------------------------------------

 SCF Done:  E(RB3LYP) =  -151.879417046     A.U. after   15 cycles

 The electronic state is 1-A'.
 Alpha  occ. eigenvalues --  -19.07061 -10.03060  -9.97409  -0.96708  -0.59240
 Alpha  occ. eigenvalues --   -0.31593  -0.29390  -0.26089  -0.15625  -0.01805
 Alpha  occ. eigenvalues --    0.04255
 Alpha virt. eigenvalues --    0.13276   0.14464   0.15092   0.18107   0.20718
 Alpha virt. eigenvalues --    0.22047   0.23268   0.23701   0.24446   0.25673
 Alpha virt. eigenvalues --    0.26527   0.34112   0.38785   0.40534   0.41130

 Mulliken charges:
               1
     1  C   -0.343939
     2  C   -0.679659
     3  H    0.112631
     4  O   -0.089033
 Sum of Mulliken charges =  -1.00000

 Dipole moment (field-independent basis, Debye):
    X=             -1.5966    Y=             -1.3176    Z=              0.0000  Tot=              2.0700
 Quadrupole moment (field-independent basis, Debye-Ang):
   XX=            -21.9798   YY=            -37.5876   ZZ=            -24.9461
   XY=             -1.2157   XZ=             -0.0000   YZ=             -0.0000

  Exact polarizability:  41.079  -5.509 119.540  -0.000   0.000  50.944
 Approx polarizability:  53.137 -18.737 269.691   0.000   0.000  57.758

                      1                      2                      3
                     A'                     A"                     A'
 Frequencies --    403.0792               494.9812               805.1443
 Red. masses --      6.8160                 6.4276                11.3298
 Frc consts  --      0.6525                 0.9278                 4.3273
 IR Inten    --     10.3104                 5.5854               194.2178

                      4                      5                      6
                     A'                     A'                     A'
 Frequencies --   1255.7459              1644.4000              2849.2165
 Red. masses --      1.2335                 8.4172                 1.0814
 Frc consts  --      1.1460                13.4101                 5.1725
 IR Inten    --     58.1877               618.8733               237.5177

 - Thermochemistry -
 -------------------
 Temperature   298.150 Kelvin.  Pressure   1.00000 Atm.
 Atom     1 has atomic number  6 and mass  12.00000

 Molecular mass:    41.00274 amu.
 Principal axes and moments of inertia in atomic units:
                           1         2         3
     Eigenvalues --     3.80975 149.09608 152.90583
           X           -0.11167   0.99375   0.00000
           Y            0.99375   0.11167   0.00000
           Z            0.00000   0.00000   1.00000
 This molecule is an asymmetric top.
 Rotational symmetry number  1.
 Rotational temperatures (Kelvin)     22.73480     0.58093     0.56645
 Rotational constants (GHZ):         473.71701    12.10455    11.80296
 Zero-point vibrational energy      44576.3 (Joules/Mol)
                                   10.65398 (Kcal/Mol)
 Warning -- explicit consideration of   2 degrees of freedom as
           vibrations may cause significant error
 Vibrational temperatures:    579.94   712.17  1158.42  1806.74  2365.92
          (Kelvin)           4099.38

 Zero-point correction=                           0.016978 (Hartree/Particle)
 Thermal correction to Energy=                    0.020438
 Thermal correction to Enthalpy=                  0.021382
 Thermal correction to Gibbs Free Energy=        -0.006188
 Sum of electronic and zero-point Energies=           -151.862439
 Sum of electronic and thermal Energies=              -151.858979
 Sum of electronic and thermal Enthalpies=            -151.858035
 Sum of electronic and thermal Free Energies=         -151.885606

                     E (Thermal)             CV                S
                      KCal/Mol        Cal/Mol-Kelvin    Cal/Mol-Kelvin
 Total                   12.825              9.545             58.027
 Electronic               0.000              0.000              0.000
 Translational            0.889              2.981             37.061
 Rotational               0.889              2.981             19.102
 Vibrational             11.048              3.583              1.865
 Vibration     1          0.768              1.463              0.951
 Vibration     2          0.851              1.261              0.671

 Optimization completed.
    -- Stationary point found.
 Normal termination of Gaussian 09 at Fri Mar  8 03:44:01 2019.
