 Gaussian 09, Revision E.01,
 Gaussian 09:  EM64L-G09RevE.01 30-Nov-2015

 ------------------------------------------------------
 #p b3lyp/6-311++G(3df,2p) freq IOp(2/17=3) IOp(2/18=3)
 ------------------------------------------------------

 ---------
 b3lyp opt
 ---------
 Symbolic Z-matrix:
 Charge = -1 Multiplicity = 3

                         Standard orientation:
 ---------------------------------------------------------------------
 Center     Atomic      Atomic             Coordinates (Angstroms)
 Number     Number       Type             X           Y           Z
 ---------------------------------------------------------------------
      1          6           0        0.198855   -0.062071    0.010634
      2          6           0        1.476093    0.058577   -0.005202
      3          1           0       -1.554284    0.858056    0.002471
      4          8           0       -1.061926   -0.104636   -0.004382
 ---------------------------------------------------------------------

 SCF Done:  E(UB3LYP) =  -151.898899055     A.U. after   20 cycles

 The electronic state is 3-A.
 Alpha  occ. eigenvalues --  -19.06609 -10.09611 -10.03047  -0.96883  -0.60268
 Alpha  occ. eigenvalues --   -0.47145  -0.33083  -0.31313  -0.14042  -0.12168
 Alpha  occ. eigenvalues --   -0.11337   0.05043
 Alpha virt. eigenvalues --    0.15165   0.16853   0.17466   0.17881   0.19100
 Alpha virt. eigenvalues --    0.20019   0.21440   0.23508   0.24159   0.27587
 Alpha virt. eigenvalues --    0.29052   0.32880   0.36235   0.36626   0.39501

  Beta  occ. eigenvalues --  -19.05667 -10.09192 -10.02244  -0.95088  -0.56805
  Beta  occ. eigenvalues --   -0.45474  -0.32082  -0.27190  -0.12408  -0.10119
  Beta virt. eigenvalues --   -0.00013   0.11437   0.15998   0.17218   0.18676
  Beta virt. eigenvalues --    0.18753   0.20570   0.21135   0.22890   0.24081
  Beta virt. eigenvalues --    0.27716   0.27910   0.30348   0.34301   0.36893

 Mulliken charges and spin densities:
               1          2
     1  C    0.371233   0.422162
     2  C    0.147834  -0.113121
     3  H   -1.202411   1.671295
     4  O   -0.316656   0.019665
 Sum of Mulliken charges =  -1.00000   2.00000

 Dipole moment (field-independent basis, Debye):
    X=              2.1416    Y=             -3.9605    Z=              0.0385  Tot=              4.5026
 Quadrupole moment (field-independent basis, Debye-Ang):
   XX=            -49.4060   YY=            -34.1030   ZZ=            -25.9543
   XY=              8.0646   XZ=              0.0960   YZ=             -0.0233

  Exact polarizability: 179.148 -36.131 125.458   0.283  -1.038  74.559
 Approx polarizability: 181.886 -25.096 119.438   0.083  -0.767  76.869

                      1                      2                      3
                      A                      A                      A
 Frequencies --    273.8210               288.5137              1036.7755
 Red. masses --      5.8611                10.3182                 1.1808
 Frc consts  --      0.2589                 0.5060                 0.7478
 IR Inten    --    233.4445                31.0022               317.6644

                      4                      5                      6
                      A                      A                      A
 Frequencies --   1073.8917              1461.0381              1984.6870
 Red. masses --     10.5329                 1.1785                 6.9104
 Frc consts  --      7.1568                 1.4822                16.0376
 IR Inten    --    320.0627              4097.6033                49.1395

 - Thermochemistry -
 -------------------
 Temperature   298.150 Kelvin.  Pressure   1.00000 Atm.
 Atom     1 has atomic number  6 and mass  12.00000

 Molecular mass:    41.00274 amu.
 Principal axes and moments of inertia in atomic units:
                           1         2         3
     Eigenvalues --     3.38919 168.11176 171.48675
           X            0.99957  -0.02938  -0.00015
           Y            0.02938   0.99957   0.00240
           Z            0.00008  -0.00240   1.00000
 This molecule is an asymmetric top.
 Rotational symmetry number  1.
 Rotational temperatures (Kelvin)     25.55587     0.51522     0.50508
 Rotational constants (GHZ):         532.49858    10.73537    10.52409
 Zero-point vibrational energy      36598.1 (Joules/Mol)
                                    8.74716 (Kcal/Mol)
 Warning -- explicit consideration of   2 degrees of freedom as
           vibrations may cause significant error
 Vibrational temperatures:    393.97   415.11  1491.69  1545.09  2102.11
          (Kelvin)           2855.52

 Zero-point correction=                           0.013939 (Hartree/Particle)
 Thermal correction to Energy=                    0.017727
 Thermal correction to Enthalpy=                  0.018671
 Thermal correction to Gibbs Free Energy=        -0.010637
 Sum of electronic and zero-point Energies=           -151.884960
 Sum of electronic and thermal Energies=              -151.881172
 Sum of electronic and thermal Enthalpies=            -151.880228
 Sum of electronic and thermal Free Energies=         -151.909536

                     E (Thermal)             CV                S
                      KCal/Mol        Cal/Mol-Kelvin    Cal/Mol-Kelvin
 Total                   11.124             10.118             61.683
 Electronic               0.000              0.000              2.183
 Translational            0.889              2.981             37.061
 Rotational               0.889              2.981             19.219
 Vibrational              9.346              4.157              3.220
 Vibration     1          0.676              1.722              1.572
 Vibration     2          0.685              1.695              1.483

 Normal termination of Gaussian 09 at Fri Mar  8 04:03:58 2019.
