 Gaussian 09, Revision E.01,
 Gaussian 09:  EM64L-G09RevE.01 30-Nov-2015

 ------------------------------------------------------
 #p b3lyp/6-311++G(3df,2p) freq IOp(2/17=3) IOp(2/18=3)
 ------------------------------------------------------

 ---------
 b3lyp opt
 ---------
 Symbolic Z-matrix:
 Charge = -1 Multiplicity = 3

                         Standard orientation:
 ---------------------------------------------------------------------
 Center     Atomic      Atomic             Coordinates (Angstroms)
 Number     Number       Type             X           Y           Z
 ---------------------------------------------------------------------
      1          6           0       -0.042183    0.399584    0.087911
      2          6           0        1.277732    0.008273   -0.085674
      3          1           0        1.540303   -1.015653    0.249685
      4          8           0       -1.119200   -0.178936   -0.032888
 ---------------------------------------------------------------------

 SCF Done:  E(UB3LYP) =  -151.966335083     A.U. after   17 cycles

 The electronic state is 3-A.
 Alpha  occ. eigenvalues --  -18.93412 -10.02409  -9.96345  -0.84402  -0.51065
 Alpha  occ. eigenvalues --   -0.30391  -0.24078  -0.21248  -0.19278  -0.04087
 Alpha  occ. eigenvalues --   -0.02211   0.03911
 Alpha virt. eigenvalues --    0.13794   0.17603   0.20253   0.20510   0.21354
 Alpha virt. eigenvalues --    0.22336   0.24045   0.26033   0.27766   0.29198
 Alpha virt. eigenvalues --    0.34829   0.36321   0.39900   0.40145   0.42292

  Beta  occ. eigenvalues --  -18.92201 -10.01499  -9.94943  -0.81930  -0.46957
  Beta  occ. eigenvalues --   -0.27757  -0.22257  -0.17628  -0.14929  -0.00642
  Beta virt. eigenvalues --    0.09799   0.13105   0.16091   0.19054   0.20681
  Beta virt. eigenvalues --    0.21348   0.22003   0.23478   0.24176   0.26944
  Beta virt. eigenvalues --    0.29350   0.30079   0.36062   0.36667   0.40246

 Mulliken charges and spin densities:
               1          2
     1  C    0.046249   0.850968
     2  C   -0.410885   0.613761
     3  H   -0.098200   0.242905
     4  O   -0.537164   0.292366
 Sum of Mulliken charges =  -1.00000   2.00000

 Dipole moment (field-independent basis, Debye):
    X=             -1.4467    Y=             -0.7696    Z=              0.9301  Tot=              1.8842
 Quadrupole moment (field-independent basis, Debye-Ang):
   XX=            -31.8189   YY=            -24.3553   ZZ=            -23.1394
   XY=             -1.2204   XZ=              1.9950   YZ=              0.1484

  Exact polarizability:  78.416 -11.054  79.256  -5.165  -3.566  44.889
 Approx polarizability: 106.437 -10.943  84.718  -6.873  -2.073  52.891

                      1                      2                      3
                      A                      A                      A
 Frequencies --    474.5271               624.4197               693.4942
 Red. masses --      3.2752                 1.6770                 1.5919
 Frc consts  --      0.4345                 0.3853                 0.4511
 IR Inten    --     14.6229                29.1937               233.7830

                      4                      5                      6
                      A                      A                      A
 Frequencies --   1120.4826              1585.3988              2837.7155
 Red. masses --      6.9114                10.7202                 1.0815
 Frc consts  --      5.1124                15.8755                 5.1311
 IR Inten    --     43.1394               540.2890               368.3458

 - Thermochemistry -
 -------------------
 Temperature   298.150 Kelvin.  Pressure   1.00000 Atm.
 Atom     1 has atomic number  6 and mass  12.00000

 Molecular mass:    41.00274 amu.
 Principal axes and moments of inertia in atomic units:
                           1         2         3
     Eigenvalues --    12.97867 150.99725 162.31735
           X            0.99912  -0.04011   0.01261
           Y            0.04105   0.99543  -0.08616
           Z           -0.00909   0.08660   0.99620
 This molecule is an asymmetric top.
 Rotational symmetry number  1.
 Rotational temperatures (Kelvin)      6.67355     0.57361     0.53361
 Rotational constants (GHZ):         139.05444    11.95215    11.11860
 Zero-point vibrational energy      43879.2 (Joules/Mol)
                                   10.48739 (Kcal/Mol)
 Warning -- explicit consideration of   1 degrees of freedom as
           vibrations may cause significant error
 Vibrational temperatures:    682.74   898.40   997.78  1612.12  2281.03
          (Kelvin)           4082.83

 Zero-point correction=                           0.016713 (Hartree/Particle)
 Thermal correction to Energy=                    0.020078
 Thermal correction to Enthalpy=                  0.021022
 Thermal correction to Gibbs Free Energy=        -0.008032
 Sum of electronic and zero-point Energies=           -151.949622
 Sum of electronic and thermal Energies=              -151.946257
 Sum of electronic and thermal Enthalpies=            -151.945313
 Sum of electronic and thermal Free Energies=         -151.974367

                     E (Thermal)             CV                S
                      KCal/Mol        Cal/Mol-Kelvin    Cal/Mol-Kelvin
 Total                   12.599              9.409             61.150
 Electronic               0.000              0.000              2.183
 Translational            0.889              2.981             37.061
 Rotational               0.889              2.981             20.392
 Vibrational             10.821              3.447              1.514
 Vibration     1          0.831              1.307              0.725

 Normal termination of Gaussian 09 at Fri Mar  8 03:52:24 2019.
