 Gaussian 09, Revision E.01,
 Gaussian 09:  EM64L-G09RevE.01 30-Nov-2015

 ------------------------------------------------------
 #p b3lyp/6-311++G(3df,2p) freq IOp(2/17=3) IOp(2/18=3)
 ------------------------------------------------------

 ---------
 b3lyp opt
 ---------
 Symbolic Z-matrix:
 Charge = -1 Multiplicity = 3

                         Standard orientation:
 ---------------------------------------------------------------------
 Center     Atomic      Atomic             Coordinates (Angstroms)
 Number     Number       Type             X           Y           Z
 ---------------------------------------------------------------------
      1          6           0       -0.547918   -0.500832   -0.145848
      2          6           0        0.919641   -0.388477    0.042249
      3          1           0       -1.377107   -0.839194    0.508721
      4          8           0       -0.106654    0.771881    0.014109
 ---------------------------------------------------------------------

 SCF Done:  E(UB3LYP) =  -151.887425410     A.U. after   18 cycles

 The electronic state is 3-A.
 Alpha  occ. eigenvalues --  -18.95468 -10.00797  -9.97018  -0.86601  -0.43169
 Alpha  occ. eigenvalues --   -0.36058  -0.24855  -0.20883  -0.11338  -0.04917
 Alpha  occ. eigenvalues --   -0.00334   0.07166
 Alpha virt. eigenvalues --    0.12813   0.18191   0.19347   0.20614   0.22446
 Alpha virt. eigenvalues --    0.24222   0.24723   0.26898   0.29050   0.32354
 Alpha virt. eigenvalues --    0.34474   0.35903   0.36972   0.38218   0.43810

  Beta  occ. eigenvalues --  -18.94466  -9.99736  -9.95741  -0.84557  -0.40095
  Beta  occ. eigenvalues --   -0.33547  -0.22266  -0.15399  -0.09549  -0.02472
  Beta virt. eigenvalues --    0.12929   0.13021   0.18238   0.19248   0.19641
  Beta virt. eigenvalues --    0.21976   0.22692   0.24153   0.27032   0.28378
  Beta virt. eigenvalues --    0.29525   0.33367   0.35514   0.36873   0.37646

 Mulliken charges and spin densities:
               1          2
     1  C   -0.012364   0.682177
     2  C   -0.597825   1.021876
     3  H    0.032858   0.059639
     4  O   -0.422669   0.236308
 Sum of Mulliken charges =  -1.00000   2.00000

 Dipole moment (field-independent basis, Debye):
    X=             -3.0440    Y=              0.7046    Z=              0.3072  Tot=              3.1396
 Quadrupole moment (field-independent basis, Debye-Ang):
   XX=            -29.0695   YY=            -23.8238   ZZ=            -23.8844
   XY=              1.5653   XZ=             -1.1469   YZ=             -0.4622

  Exact polarizability:  82.024   6.617  37.806 -10.719  -2.583  59.943
 Approx polarizability:  80.582   3.636  56.763  -5.949  -0.343  57.701

                      1                      2                      3
                      A                      A                      A
 Frequencies --    525.8556               874.3235               950.1121
 Red. masses --      8.8366                 1.6882                 2.2202
 Frc consts  --      1.4397                 0.7604                 1.1808
 IR Inten    --     55.1860                 8.4397                33.5185

                      4                      5                      6
                      A                      A                      A
 Frequencies --   1083.3522              1270.6421              2714.5795
 Red. masses --      1.5106                 8.7656                 1.0787
 Frc consts  --      1.0446                 8.3383                 4.6835
 IR Inten    --     22.0227                53.8693              1458.2539

 - Thermochemistry -
 -------------------
 Temperature   298.150 Kelvin.  Pressure   1.00000 Atm.
 Atom     1 has atomic number  6 and mass  12.00000

 Molecular mass:    41.00274 amu.
 Principal axes and moments of inertia in atomic units:
                           1         2         3
     Eigenvalues --    52.55311  61.22893 110.31886
           X            0.81168   0.58204  -0.04899
           Y           -0.58375   0.81123  -0.03369
           Z            0.02013   0.05594   0.99823
 This molecule is an asymmetric top.
 Rotational symmetry number  1.
 Rotational temperatures (Kelvin)      1.64812     1.41459     0.78512
 Rotational constants (GHZ):          34.34128    29.47530    16.35932
 Zero-point vibrational energy      44374.7 (Joules/Mol)
                                   10.60580 (Kcal/Mol)
 Warning -- explicit consideration of   1 degrees of freedom as
           vibrations may cause significant error
 Vibrational temperatures:    756.59  1257.95  1367.00  1558.70  1828.17
          (Kelvin)           3905.67

 Zero-point correction=                           0.016901 (Hartree/Particle)
 Thermal correction to Energy=                    0.020083
 Thermal correction to Enthalpy=                  0.021027
 Thermal correction to Gibbs Free Energy=        -0.007817
 Sum of electronic and zero-point Energies=           -151.870524
 Sum of electronic and thermal Energies=              -151.867342
 Sum of electronic and thermal Enthalpies=            -151.866398
 Sum of electronic and thermal Free Energies=         -151.895242

                     E (Thermal)             CV                S
                      KCal/Mol        Cal/Mol-Kelvin    Cal/Mol-Kelvin
 Total                   12.602              8.584             60.708
 Electronic               0.000              0.000              2.183
 Translational            0.889              2.981             37.061
 Rotational               0.889              2.981             20.501
 Vibrational             10.825              2.622              0.963
 Vibration     1          0.881              1.193              0.597

 Optimization completed.
    -- Stationary point found.
 Normal termination of Gaussian 09 at Fri Mar  8 04:03:54 2019.
