 Gaussian 09, Revision E.01,
 Gaussian 09:  EM64L-G09RevE.01 30-Nov-2015

 ------------------------------------------------------
 #p b3lyp/6-311++G(3df,2p) freq IOp(2/17=3) IOp(2/18=3)
 ------------------------------------------------------

 ---------
 b3lyp opt
 ---------
 Symbolic Z-matrix:
 Charge = -1 Multiplicity = 3

                         Standard orientation:
 ---------------------------------------------------------------------
 Center     Atomic      Atomic             Coordinates (Angstroms)
 Number     Number       Type             X           Y           Z
 ---------------------------------------------------------------------
      1          6           0        0.307906   -0.130259   -0.000000
      2          6           0       -0.543480   -1.263597    0.000000
      3          1           0        1.413443   -0.359953   -0.000000
      4          8           0        0.000000    1.090386   -0.000000
 ---------------------------------------------------------------------

 SCF Done:  E(UB3LYP) =  -151.960247187     A.U. after   15 cycles

 The electronic state is 3-A".
 Alpha  occ. eigenvalues --  -18.91841 -10.02929  -9.96729  -0.82554  -0.50459
 Alpha  occ. eigenvalues --   -0.31986  -0.24798  -0.20222  -0.11882  -0.04333
 Alpha  occ. eigenvalues --   -0.02649   0.01323
 Alpha virt. eigenvalues --    0.13353   0.18874   0.19201   0.20183   0.20966
 Alpha virt. eigenvalues --    0.23528   0.23808   0.26082   0.26714   0.29473
 Alpha virt. eigenvalues --    0.32723   0.38035   0.38434   0.42170   0.44648

  Beta  occ. eigenvalues --  -18.90797 -10.02960  -9.94707  -0.80516  -0.46155
  Beta  occ. eigenvalues --   -0.29828  -0.23283  -0.15877  -0.08860  -0.02364
  Beta virt. eigenvalues --    0.09309   0.13280   0.14830   0.19403   0.19775
  Beta virt. eigenvalues --    0.21332   0.21847   0.23667   0.25825   0.26377
  Beta virt. eigenvalues --    0.29837   0.30093   0.33021   0.38730   0.39092

 Mulliken charges and spin densities:
               1          2
     1  C    0.237645  -0.010112
     2  C   -0.512297   1.662227
     3  H   -0.093657   0.030532
     4  O   -0.631691   0.317353
 Sum of Mulliken charges =  -1.00000   2.00000

 Dipole moment (field-independent basis, Debye):
    X=              2.3537    Y=              2.2386    Z=             -0.0000  Tot=              3.2483
 Quadrupole moment (field-independent basis, Debye-Ang):
   XX=            -24.9167   YY=            -34.5587   ZZ=            -21.2009
   XY=             -3.6749   XZ=              0.0000   YZ=              0.0000

  Exact polarizability:  56.366   4.268  63.645  -0.000  -0.000  38.102
 Approx polarizability:  65.765   3.627  80.383  -0.000   0.000  45.863

                      1                      2                      3
                     A'                     A"                     A'
 Frequencies --    537.3856               813.7775              1096.7099
 Red. masses --      9.2475                 1.7651                 4.4381
 Frc consts  --      1.5734                 0.6887                 3.1451
 IR Inten    --     34.6265                18.2851                25.2441

                      4                      5                      6
                     A'                     A'                     A'
 Frequencies --   1333.8021              1430.4329              2617.8653
 Red. masses --      1.4028                 6.8059                 1.0701
 Frc consts  --      1.4704                 8.2049                 4.3207
 IR Inten    --     18.5636               245.2954               460.5040

 - Thermochemistry -
 -------------------
 Temperature   298.150 Kelvin.  Pressure   1.00000 Atm.
 Atom     1 has atomic number  6 and mass  12.00000

 Molecular mass:    41.00274 amu.
 Principal axes and moments of inertia in atomic units:
                           1         2         3
     Eigenvalues --    18.11158 143.14315 161.25473
           X            0.21215   0.97724   0.00000
           Y            0.97724  -0.21215   0.00000
           Z           -0.00000  -0.00000   1.00000
 This molecule is an asymmetric top.
 Rotational symmetry number  1.
 Rotational temperatures (Kelvin)      4.78223     0.60509     0.53712
 Rotational constants (GHZ):          99.64572    12.60795    11.19187
 Zero-point vibrational energy      46833.6 (Joules/Mol)
                                   11.19351 (Kcal/Mol)
 Warning -- explicit consideration of   1 degrees of freedom as
           vibrations may cause significant error
 Vibrational temperatures:    773.18  1170.84  1577.92  1919.04  2058.07
          (Kelvin)           3766.52

 Zero-point correction=                           0.017838 (Hartree/Particle)
 Thermal correction to Energy=                    0.020985
 Thermal correction to Enthalpy=                  0.021929
 Thermal correction to Gibbs Free Energy=        -0.006949
 Sum of electronic and zero-point Energies=           -151.942409
 Sum of electronic and thermal Energies=              -151.939263
 Sum of electronic and thermal Enthalpies=            -151.938318
 Sum of electronic and thermal Free Energies=         -151.967196

                     E (Thermal)             CV                S
                      KCal/Mol        Cal/Mol-Kelvin    Cal/Mol-Kelvin
 Total                   13.168              8.269             60.777
 Electronic               0.000              0.000              2.183
 Translational            0.889              2.981             37.061
 Rotational               0.889              2.981             20.663
 Vibrational             11.391              2.307              0.870
 Vibration     1          0.892              1.167              0.571

 Optimization completed.
    -- Stationary point found.
 Normal termination of Gaussian 09 at Fri Mar  8 03:56:39 2019.
