 Gaussian 09, Revision E.01,
 Gaussian 09:  EM64L-G09RevE.01 30-Nov-2015

 ------------------------------------------------------
 #p b3lyp/6-311++G(3df,2p) freq IOp(2/17=3) IOp(2/18=3)
 ------------------------------------------------------

 ---------
 b3lyp opt
 ---------
 Symbolic Z-matrix:
 Charge = -1 Multiplicity = 1

                         Standard orientation:
 ---------------------------------------------------------------------
 Center     Atomic      Atomic             Coordinates (Angstroms)
 Number     Number       Type             X           Y           Z
 ---------------------------------------------------------------------
      1          6           0       -0.797288   -0.983721   -0.000000
      2          6           0       -0.034372    0.251181   -0.000000
      3          6           0        0.590346   -0.975687    0.000000
      4          1           0        1.447885   -1.653035    0.000000
      5          8           0        0.000000    1.487799   -0.000000
 ---------------------------------------------------------------------

 SCF Done:  E(RB3LYP) =  -190.122615764     A.U. after   15 cycles

 The electronic state is 1-A'.
 Alpha  occ. eigenvalues --  -18.89248 -10.04406  -9.99325  -9.96600  -0.81093
 Alpha  occ. eigenvalues --   -0.67630  -0.37434  -0.28483  -0.24042  -0.20744
 Alpha  occ. eigenvalues --   -0.15602  -0.07932  -0.07855   0.00436
 Alpha virt. eigenvalues --    0.11541   0.16923   0.17135   0.17854   0.19619
 Alpha virt. eigenvalues --    0.21579   0.22410   0.22805   0.23809   0.24771
 Alpha virt. eigenvalues --    0.26191   0.26209   0.27263   0.29836   0.31003

 Mulliken charges:
               1
     1  C   -0.241945
     2  C    0.422504
     3  C   -0.456889
     4  H    0.114361
     5  O   -0.838031
 Sum of Mulliken charges =  -1.00000

 Dipole moment (field-independent basis, Debye):
    X=              3.0845    Y=             -0.4759    Z=              0.0000  Tot=              3.1210
 Quadrupole moment (field-independent basis, Debye-Ang):
   XX=            -31.7034   YY=            -38.4824   ZZ=            -26.0553
   XY=             -5.0088   XZ=             -0.0000   YZ=              0.0000

  Exact polarizability:  62.086  -1.034  65.519   0.000  -0.000  37.610
 Approx polarizability:  82.653  -6.749  92.977  -0.000  -0.000  51.388

                      1                      2                      3
                     A"                     A'                     A"
 Frequencies --    526.6278               528.3632               814.1419
 Red. masses --      3.1410                 5.5169                 1.8138
 Frc consts  --      0.5132                 0.9074                 0.7084
 IR Inten    --      8.4545                 9.0765                15.4576

                      4                      5                      6
                     A'                     A'                     A'
 Frequencies --    847.7215               877.2432              1183.0942
 Red. masses --      1.6144                 9.5987                 3.9421
 Frc consts  --      0.6835                 4.3521                 3.2510
 IR Inten    --     17.0415                 4.2579                15.5221

                      7                      8                      9
                     A'                     A'                     A'
 Frequencies --   1366.1675              1790.3781              2996.2666
 Red. masses --      8.1065                 9.9641                 1.1062
 Frc consts  --      8.9144                18.8183                 5.8511
 IR Inten    --     70.7719               893.8678               222.6314

 - Thermochemistry -
 -------------------
 Temperature   298.150 Kelvin.  Pressure   1.00000 Atm.
 Atom     1 has atomic number  6 and mass  12.00000

 Molecular mass:    53.00274 amu.
 Principal axes and moments of inertia in atomic units:
                           1         2         3
     Eigenvalues --    49.63107 221.05714 270.68821
           X            0.00059   1.00000   0.00000
           Y            1.00000  -0.00059   0.00000
           Z            0.00000   0.00000   1.00000
 This molecule is an asymmetric top.
 Rotational symmetry number  1.
 Rotational temperatures (Kelvin)      1.74515     0.39182     0.31998
 Rotational constants (GHZ):          36.36313     8.16414     6.66723
 Zero-point vibrational energy      65375.9 (Joules/Mol)
                                   15.62523 (Kcal/Mol)
 Warning -- explicit consideration of   2 degrees of freedom as
           vibrations may cause significant error
 Vibrational temperatures:    757.70   760.20  1171.37  1219.68  1262.16
          (Kelvin)           1702.21  1965.61  2575.95  4310.95

 Zero-point correction=                           0.024900 (Hartree/Particle)
 Thermal correction to Energy=                    0.028369
 Thermal correction to Enthalpy=                  0.029313
 Thermal correction to Gibbs Free Energy=        -0.000246
 Sum of electronic and zero-point Energies=           -190.097715
 Sum of electronic and thermal Energies=              -190.094247
 Sum of electronic and thermal Enthalpies=            -190.093303
 Sum of electronic and thermal Free Energies=         -190.122862

                     E (Thermal)             CV                S
                      KCal/Mol        Cal/Mol-Kelvin    Cal/Mol-Kelvin
 Total                   17.802             10.436             62.212
 Electronic               0.000              0.000              0.000
 Translational            0.889              2.981             37.826
 Rotational               0.889              2.981             22.612
 Vibrational             16.024              4.474              1.775
 Vibration     1          0.882              1.191              0.595
 Vibration     2          0.883              1.187              0.591

 Optimization completed.
    -- Stationary point found.
 Normal termination of Gaussian 09 at Fri Mar  8 04:19:54 2019.
