 Gaussian 09, Revision E.01,
 Gaussian 09:  EM64L-G09RevE.01 30-Nov-2015

 ------------------------------------------------------
 #p b3lyp/6-311++G(3df,2p) freq IOp(2/17=3) IOp(2/18=3)
 ------------------------------------------------------

 ---------
 b3lyp opt
 ---------
 Symbolic Z-matrix:
 Charge = -1 Multiplicity = 1

                         Standard orientation:
 ---------------------------------------------------------------------
 Center     Atomic      Atomic             Coordinates (Angstroms)
 Number     Number       Type             X           Y           Z
 ---------------------------------------------------------------------
      1          6           0       -0.682429   -0.348677   -0.000000
      2          6           0       -0.000000    0.847829    0.000000
      3          6           0       -1.380926   -1.393069   -0.000000
      4          1           0        1.578377   -0.252158    0.000000
      5          8           0        1.350219    0.701958    0.000000
 ---------------------------------------------------------------------

 SCF Done:  E(RB3LYP) =  -190.069933275     A.U. after   14 cycles

 The electronic state is 1-A'.
 Alpha  occ. eigenvalues --  -19.01006 -10.05237  -9.97117  -9.94766  -0.90440
 Alpha  occ. eigenvalues --   -0.56142  -0.46950  -0.38858  -0.25325  -0.23654
 Alpha  occ. eigenvalues --   -0.10226  -0.09382  -0.07704  -0.02912
 Alpha virt. eigenvalues --    0.10675   0.11912   0.17044   0.18229   0.19393
 Alpha virt. eigenvalues --    0.19981   0.20514   0.22116   0.23553   0.23699
 Alpha virt. eigenvalues --    0.26433   0.26487   0.29494   0.29932   0.32606

 Mulliken charges:
               1
     1  C    0.845037
     2  C   -0.648986
     3  C   -0.891277
     4  H    0.128076
     5  O   -0.432850
 Sum of Mulliken charges =  -1.00000

 Dipole moment (field-independent basis, Debye):
    X=              4.4020    Y=              1.1547    Z=              0.0000  Tot=              4.5509
 Quadrupole moment (field-independent basis, Debye-Ang):
   XX=            -36.1814   YY=            -42.0988   ZZ=            -27.2723
   XY=             -9.1655   XZ=             -0.0000   YZ=             -0.0000

  Exact polarizability:  78.413  13.565  79.503  -0.000  -0.000  43.614
 Approx polarizability: 116.881  31.633 119.453   0.000   0.000  60.462

                      1                      2                      3
                     A'                     A"                     A'
 Frequencies --    216.0934               246.2405               634.4797
 Red. masses --      7.4321                 7.0693                 5.9748
 Frc consts  --      0.2045                 0.2525                 1.4171
 IR Inten    --     14.3555                41.8799                 2.8837

                      4                      5                      6
                     A"                     A'                     A'
 Frequencies --    789.4065               945.7792              1150.9427
 Red. masses --      1.3262                 7.9070                 8.5971
 Frc consts  --      0.4869                 4.1672                 6.7098
 IR Inten    --     59.3049                24.7126               213.9072

                      7                      8                      9
                     A'                     A'                     A'
 Frequencies --   1341.2762              1976.4686              3440.3518
 Red. masses --      1.3278                12.0005                 1.0636
 Frc consts  --      1.4074                27.6203                 7.4168
 IR Inten    --     81.3373               273.9094               196.1586

 - Thermochemistry -
 -------------------
 Temperature   298.150 Kelvin.  Pressure   1.00000 Atm.
 Atom     1 has atomic number  6 and mass  12.00000

 Molecular mass:    53.00274 amu.
 Principal axes and moments of inertia in atomic units:
                           1         2         3
     Eigenvalues --    31.89441 330.25794 362.15236
           X            0.78255  -0.62259  -0.00000
           Y            0.62259   0.78255  -0.00000
           Z            0.00000   0.00000   1.00000
 This molecule is an asymmetric top.
 Rotational symmetry number  1.
 Rotational temperatures (Kelvin)      2.71564     0.26226     0.23916
 Rotational constants (GHZ):          56.58487     5.46464     4.98338
 Zero-point vibrational energy      64245.7 (Joules/Mol)
                                   15.35509 (Kcal/Mol)
 Warning -- explicit consideration of   2 degrees of freedom as
           vibrations may cause significant error
 Vibrational temperatures:    310.91   354.28   912.87  1135.78  1360.76
          (Kelvin)           1655.95  1929.79  2843.69  4949.89

 Zero-point correction=                           0.024470 (Hartree/Particle)
 Thermal correction to Energy=                    0.028629
 Thermal correction to Enthalpy=                  0.029574
 Thermal correction to Gibbs Free Energy=        -0.001422
 Sum of electronic and zero-point Energies=           -190.045463
 Sum of electronic and thermal Energies=              -190.041304
 Sum of electronic and thermal Enthalpies=            -190.040360
 Sum of electronic and thermal Free Energies=         -190.071356

                     E (Thermal)             CV                S
                      KCal/Mol        Cal/Mol-Kelvin    Cal/Mol-Kelvin
 Total                   17.965             11.997             65.237
 Electronic               0.000              0.000              0.000
 Translational            0.889              2.981             37.826
 Rotational               0.889              2.981             22.860
 Vibrational             16.188              6.035              4.550
 Vibration     1          0.645              1.817              1.992
 Vibration     2          0.661              1.769              1.757

 Optimization completed.
    -- Stationary point found.
 Normal termination of Gaussian 09 at Fri Mar  8 04:19:50 2019.
