 Gaussian 09, Revision E.01,
 Gaussian 09:  EM64L-G09RevE.01 30-Nov-2015

 ------------------------------------------------------
 #p b3lyp/6-311++G(3df,2p) freq IOp(2/17=3) IOp(2/18=3)
 ------------------------------------------------------

 ---------
 b3lyp opt
 ---------
 Symbolic Z-matrix:
 Charge = -1 Multiplicity = 3

                         Standard orientation:
 ---------------------------------------------------------------------
 Center     Atomic      Atomic             Coordinates (Angstroms)
 Number     Number       Type             X           Y           Z
 ---------------------------------------------------------------------
      1          6           0        0.000000    0.825049   -0.000000
      2          6           0        0.539352   -0.377893    0.000000
      3          6           0       -0.433437    2.037860   -0.000000
      4          1           0       -0.928335   -1.594739    0.000000
      5          8           0        0.036606   -1.664419    0.000000
 ---------------------------------------------------------------------

 SCF Done:  E(UB3LYP) =  -190.030833024     A.U. after   18 cycles

 The electronic state is 3-A".
 Alpha  occ. eigenvalues --  -19.00359 -10.04428  -9.95847  -9.95373  -0.89770
 Alpha  occ. eigenvalues --   -0.56618  -0.47029  -0.39758  -0.26611  -0.23964
 Alpha  occ. eigenvalues --   -0.12824  -0.10591  -0.07436  -0.03022   0.02990
 Alpha virt. eigenvalues --    0.11161   0.16345   0.18637   0.19484   0.19721
 Alpha virt. eigenvalues --    0.20689   0.21878   0.23437   0.24131   0.26108
 Alpha virt. eigenvalues --    0.27112   0.28604   0.29463   0.32790   0.33629

  Beta  occ. eigenvalues --  -18.99956 -10.02408  -9.95645  -9.94650  -0.88658
  Beta  occ. eigenvalues --   -0.54727  -0.43757  -0.37998  -0.25774  -0.21252
  Beta  occ. eigenvalues --   -0.08608  -0.07724  -0.05307
  Beta virt. eigenvalues --    0.08224   0.12224   0.14630   0.16678   0.18804
  Beta virt. eigenvalues --    0.19647   0.20140   0.21280   0.22146   0.24550
  Beta virt. eigenvalues --    0.24714   0.26825   0.27735   0.29552   0.31026

 Mulliken charges and spin densities:
               1          2
     1  C    0.866195  -0.497711
     2  C   -0.588237   1.402724
     3  C   -0.906995   0.997477
     4  H    0.195774   0.102945
     5  O   -0.566737  -0.005435
 Sum of Mulliken charges =  -1.00000   2.00000

 Dipole moment (field-independent basis, Debye):
    X=             -0.3798    Y=             -6.1858    Z=              0.0000  Tot=              6.1974
 Quadrupole moment (field-independent basis, Debye-Ang):
   XX=            -28.2051   YY=            -49.0597   ZZ=            -28.7894
   XY=              7.2667   XZ=             -0.0000   YZ=              0.0000

  Exact polarizability:  56.892 -11.043  98.703  -0.000   0.000  44.051
 Approx polarizability:  77.934 -24.660 146.347  -0.000  -0.000  55.676

                      1                      2                      3
                     A"                     A'                     A"
 Frequencies --     44.8568               207.8180               381.8264
 Red. masses --      1.4148                 7.3049                10.5450
 Frc consts  --      0.0017                 0.1859                 0.9058
 IR Inten    --     60.5811                25.8800                 7.9446

                      4                      5                      6
                     A'                     A'                     A'
 Frequencies --    537.7219               845.0464              1230.1156
 Red. masses --      5.9113                10.3323                 1.2414
 Frc consts  --      1.0071                 4.3472                 1.1068
 IR Inten    --     17.0762               118.6669                15.8437

                      7                      8                      9
                     A'                     A'                     A'
 Frequencies --   1325.7283              1713.1687              3689.7922
 Red. masses --     11.7224                11.8480                 1.0647
 Frc consts  --     12.1388                20.4879                 8.5401
 IR Inten    --    100.3651               130.0008                35.3860

 - Thermochemistry -
 -------------------
 Temperature   298.150 Kelvin.  Pressure   1.00000 Atm.
 Atom     1 has atomic number  6 and mass  12.00000

 Molecular mass:    53.00274 amu.
 Principal axes and moments of inertia in atomic units:
                           1         2         3
     Eigenvalues --    18.09021 386.01742 404.10762
           X           -0.12279   0.99243  -0.00000
           Y            0.99243   0.12279   0.00000
           Z           -0.00000  -0.00000   1.00000
 This molecule is an asymmetric top.
 Rotational symmetry number  1.
 Rotational temperatures (Kelvin)      4.78788     0.22438     0.21433
 Rotational constants (GHZ):          99.76344     4.67528     4.46599
 Zero-point vibrational energy      59670.2 (Joules/Mol)
                                   14.26151 (Kcal/Mol)
 Warning -- explicit consideration of   4 degrees of freedom as
           vibrations may cause significant error
 Vibrational temperatures:     64.54   299.00   549.36   773.66  1215.83
          (Kelvin)           1769.86  1907.42  2464.86  5308.78

 Zero-point correction=                           0.022727 (Hartree/Particle)
 Thermal correction to Energy=                    0.027572
 Thermal correction to Enthalpy=                  0.028517
 Thermal correction to Gibbs Free Energy=        -0.005458
 Sum of electronic and zero-point Energies=           -190.008106
 Sum of electronic and thermal Energies=              -190.003261
 Sum of electronic and thermal Enthalpies=            -190.002316
 Sum of electronic and thermal Free Energies=         -190.036291

                     E (Thermal)             CV                S
                      KCal/Mol        Cal/Mol-Kelvin    Cal/Mol-Kelvin
 Total                   17.302             13.382             71.506
 Electronic               0.000              0.000              2.183
 Translational            0.889              2.981             37.826
 Rotational               0.889              2.981             22.561
 Vibrational             15.524              7.420              8.936
 Vibration     1          0.595              1.979              5.032
 Vibration     2          0.641              1.829              2.063
 Vibration     3          0.751              1.509              1.032
 Vibration     4          0.893              1.167              0.570

 Normal termination of Gaussian 09 at Fri Mar  8 04:30:39 2019.
