 Gaussian 09, Revision E.01,
 Gaussian 09:  EM64L-G09RevE.01 30-Nov-2015

 ------------------------------------------------------
 #p b3lyp/6-311++G(3df,2p) freq IOp(2/17=3) IOp(2/18=3)
 ------------------------------------------------------

 ---------
 b3lyp opt
 ---------
 Symbolic Z-matrix:
 Charge = -1 Multiplicity = 3

                         Standard orientation:
 ---------------------------------------------------------------------
 Center     Atomic      Atomic             Coordinates (Angstroms)
 Number     Number       Type             X           Y           Z
 ---------------------------------------------------------------------
      1          6           0       -1.490184    0.878880   -0.000000
      2          6           0        0.291740   -1.150568    0.000000
      3          6           0        1.646589   -1.317479    0.000000
      4          6           0       -0.380914    0.087513   -0.000000
      5          1           0       -0.403387   -2.005191    0.000000
      6          8           0        0.000000    1.376889   -0.000000
 ---------------------------------------------------------------------

 SCF Done:  E(UB3LYP) =  -228.077467372     A.U. after   18 cycles

 The electronic state is 3-A".
 Alpha  occ. eigenvalues --  -19.02010 -10.09134 -10.06056 -10.00133  -9.99552
 Alpha  occ. eigenvalues --   -0.94462  -0.61105  -0.52337  -0.41957  -0.34856
 Alpha  occ. eigenvalues --   -0.29709  -0.27340  -0.20039  -0.13021  -0.12562
 Alpha  occ. eigenvalues --   -0.09555  -0.04448  -0.00605
 Alpha virt. eigenvalues --    0.11243   0.12052   0.15742   0.16160   0.18443
 Alpha virt. eigenvalues --    0.18711   0.19462   0.20716   0.22497   0.22819
 Alpha virt. eigenvalues --    0.23221   0.23412   0.24811   0.26143   0.26643

  Beta  occ. eigenvalues --  -19.01054 -10.08863 -10.05304 -10.00283  -9.98067
  Beta  occ. eigenvalues --   -0.92821  -0.59902  -0.49759  -0.39447  -0.33640
  Beta  occ. eigenvalues --   -0.25944  -0.25577  -0.18862  -0.11452  -0.10329
  Beta  occ. eigenvalues --   -0.07226
  Beta virt. eigenvalues --    0.06002   0.12044   0.13132   0.14279   0.15976
  Beta virt. eigenvalues --    0.16324   0.18892   0.19283   0.19996   0.21159
  Beta virt. eigenvalues --    0.23181   0.23217   0.23549   0.23807   0.25132

 Mulliken charges and spin densities:
               1          2
     1  C   -0.642594   0.517645
     2  C   -0.036268  -0.071891
     3  C   -0.713380   1.144057
     4  C    0.866259   0.045678
     5  H    0.048583   0.078779
     6  O   -0.522599   0.285731
 Sum of Mulliken charges =  -1.00000   2.00000

 Dipole moment (field-independent basis, Debye):
    X=             -2.5894    Y=              0.6391    Z=             -0.0000  Tot=              2.6671
 Quadrupole moment (field-independent basis, Debye-Ang):
   XX=            -52.6634   YY=            -43.2276   ZZ=            -32.8277
   XY=             12.1834   XZ=             -0.0000   YZ=              0.0000

  Exact polarizability:  97.784 -24.369  83.056   0.000  -0.000  47.951
 Approx polarizability: 138.637 -27.104 115.263   0.000  -0.000  66.912

                      1                      2                      3
                     A"                     A'                     A'
 Frequencies --    170.6828               236.1367               399.2413
 Red. masses --      6.9416                10.4992                11.2773
 Frc consts  --      0.1191                 0.3449                 1.0591
 IR Inten    --     36.6955                26.1091                 4.9174

                      4                      5                      6
                     A"                     A'                     A"
 Frequencies --    472.6603               577.0860               761.8196
 Red. masses --      3.6112                 9.7112                 1.6322
 Frc consts  --      0.4753                 1.9055                 0.5581
 IR Inten    --      1.4284                 7.5379                21.0800

                      7                      8                      9
                     A'                     A'                     A'
 Frequencies --    907.6170              1094.8885              1224.4979
 Red. masses --      7.2851                 4.2140                 1.6103
 Frc consts  --      3.5358                 2.9764                 1.4226
 IR Inten    --     22.7883                25.7234                18.8811

                     10                     11                     12
                     A'                     A'                     A'
 Frequencies --   1426.3509              1664.8375              2899.5127
 Red. masses --      5.2290                12.0246                 1.0777
 Frc consts  --      6.2679                19.6365                 5.3383
 IR Inten    --     72.0459               245.2260               131.5106

 - Thermochemistry -
 -------------------
 Temperature   298.150 Kelvin.  Pressure   1.00000 Atm.
 Atom     1 has atomic number  6 and mass  12.00000

 Molecular mass:    65.00274 amu.
 Principal axes and moments of inertia in atomic units:
                           1         2         3
     Eigenvalues --    89.14673 419.72278 508.86951
           X           -0.63344   0.77379  -0.00000
           Y            0.77379   0.63344   0.00000
           Z           -0.00000  -0.00000   1.00000
 This molecule is an asymmetric top.
 Rotational symmetry number  1.
 Rotational temperatures (Kelvin)      0.97159     0.20636     0.17021
 Rotational constants (GHZ):          20.24461     4.29984     3.54657
 Zero-point vibrational energy      70791.0 (Joules/Mol)
                                   16.91946 (Kcal/Mol)
 Warning -- explicit consideration of   5 degrees of freedom as
           vibrations may cause significant error
 Vibrational temperatures:    245.57   339.75   574.42   680.05   830.30
          (Kelvin)           1096.09  1305.86  1575.30  1761.78  2052.20
                             2395.33  4171.75

 Zero-point correction=                           0.026963 (Hartree/Particle)
 Thermal correction to Energy=                    0.031830
 Thermal correction to Enthalpy=                  0.032775
 Thermal correction to Gibbs Free Energy=        -0.001445
 Sum of electronic and zero-point Energies=           -228.050505
 Sum of electronic and thermal Energies=              -228.045637
 Sum of electronic and thermal Enthalpies=            -228.044693
 Sum of electronic and thermal Free Energies=         -228.078912

                     E (Thermal)             CV                S
                      KCal/Mol        Cal/Mol-Kelvin    Cal/Mol-Kelvin
 Total                   19.974             15.307             72.020
 Electronic               0.000              0.000              2.183
 Translational            0.889              2.981             38.434
 Rotational               0.889              2.981             24.458
 Vibrational             18.196              9.345              6.945
 Vibration     1          0.626              1.879              2.428
 Vibration     2          0.655              1.785              1.832
 Vibration     3          0.765              1.472              0.965
 Vibration     4          0.830              1.311              0.730
 Vibration     5          0.934              1.081              0.491

 Optimization completed.
    -- Stationary point found.
 Normal termination of Gaussian 09 at Fri Mar  8 05:23:04 2019.
