 Gaussian 09, Revision E.01,
 Gaussian 09:  EM64L-G09RevE.01 30-Nov-2015

 ------------------------------------------------------
 #p b3lyp/6-311++G(3df,2p) freq IOp(2/17=3) IOp(2/18=3)
 ------------------------------------------------------

 ---------
 b3lyp opt
 ---------
 Symbolic Z-matrix:
 Charge = -1 Multiplicity = 1

                         Standard orientation:
 ---------------------------------------------------------------------
 Center     Atomic      Atomic             Coordinates (Angstroms)
 Number     Number       Type             X           Y           Z
 ---------------------------------------------------------------------
      1          6           0        0.318505   -0.947223    0.000000
      2          6           0       -0.000000    1.701233   -0.000000
      3          6           0       -1.271220    1.394951    0.000000
      4          6           0       -0.045296    0.256869   -0.000000
      5          1           0        0.762224    2.465268   -0.000000
      6          8           0        0.653230   -2.112530    0.000000
 ---------------------------------------------------------------------

 SCF Done:  E(RB3LYP) =  -228.197317029     A.U. after   15 cycles

 The electronic state is 1-A'.
 Alpha  occ. eigenvalues --  -18.94415 -10.04919 -10.00635  -9.99726  -9.98902
 Alpha  occ. eigenvalues --   -0.85917  -0.66944  -0.51961  -0.37539  -0.29548
 Alpha  occ. eigenvalues --   -0.26480  -0.22390  -0.21637  -0.14941  -0.11626
 Alpha  occ. eigenvalues --   -0.05226   0.00554
 Alpha virt. eigenvalues --    0.11136   0.15045   0.15306   0.17114   0.17926
 Alpha virt. eigenvalues --    0.18514   0.19448   0.19932   0.21635   0.22522
 Alpha virt. eigenvalues --    0.23171   0.25375   0.26097   0.26749   0.27964

 Mulliken charges:
               1
     1  C   -0.293300
     2  C    0.362936
     3  C   -0.712982
     4  C    0.264886
     5  H    0.169395
     6  O   -0.790935
 Sum of Mulliken charges =  -1.00000

 Dipole moment (field-independent basis, Debye):
    X=              2.8441    Y=              0.8414    Z=             -0.0000  Tot=              2.9659
 Quadrupole moment (field-independent basis, Debye-Ang):
   XX=            -39.7092   YY=            -46.2246   ZZ=            -33.1695
   XY=             10.2057   XZ=              0.0000   YZ=              0.0000

  Exact polarizability:  61.173 -18.824  97.064  -0.000   0.000  43.347
 Approx polarizability:  95.784 -38.954 168.936   0.000  -0.000  59.741

                      1                      2                      3
                     A'                     A"                     A'
 Frequencies --    153.3800               169.1197               359.6808
 Red. masses --      7.3414                 8.2579                11.4542
 Frc consts  --      0.1018                 0.1392                 0.8731
 IR Inten    --      8.3679                 2.5368                 7.9410

                      4                      5                      6
                     A"                     A"                     A'
 Frequencies --    383.2657               621.3767               640.3296
 Red. masses --     11.9940                 1.3501                10.1785
 Frc consts  --      1.0380                 0.3071                 2.4589
 IR Inten    --      1.0109                30.3336                18.5331

                      7                      8                      9
                     A'                     A'                     A'
 Frequencies --    781.3374              1024.8100              1384.3769
 Red. masses --      5.8026                 1.2667                12.7327
 Frc consts  --      2.0871                 0.7838                14.3774
 IR Inten    --     18.4760                34.3461                13.2149

                     10                     11                     12
                     A'                     A'                     A'
 Frequencies --   1623.5118              2169.7546              3186.5474
 Red. masses --      7.5526                11.8096                 1.1084
 Frc consts  --     11.7289                32.7572                 6.6312
 IR Inten    --    187.9939              1344.6149                42.6809

 - Thermochemistry -
 -------------------
 Temperature   298.150 Kelvin.  Pressure   1.00000 Atm.
 Atom     1 has atomic number  6 and mass  12.00000

 Molecular mass:    65.00274 amu.
 Principal axes and moments of inertia in atomic units:
                           1         2         3
     Eigenvalues --    45.66746 579.59414 625.26161
           X           -0.31934   0.94764   0.00000
           Y            0.94764   0.31934   0.00000
           Z           -0.00000  -0.00000   1.00000
 This molecule is an asymmetric top.
 Rotational symmetry number  1.
 Rotational temperatures (Kelvin)      1.89662     0.14944     0.13852
 Rotational constants (GHZ):          39.51919     3.11380     2.88638
 Zero-point vibrational energy      74751.6 (Joules/Mol)
                                   17.86606 (Kcal/Mol)
 Warning -- explicit consideration of   4 degrees of freedom as
           vibrations may cause significant error
 Vibrational temperatures:    220.68   243.33   517.50   551.43   894.02
          (Kelvin)            921.29  1124.17  1474.47  1991.81  2335.87
                             3121.79  4584.73

 Zero-point correction=                           0.028471 (Hartree/Particle)
 Thermal correction to Energy=                    0.033645
 Thermal correction to Enthalpy=                  0.034589
 Thermal correction to Gibbs Free Energy=         0.000802
 Sum of electronic and zero-point Energies=           -228.168846
 Sum of electronic and thermal Energies=              -228.163672
 Sum of electronic and thermal Enthalpies=            -228.162728
 Sum of electronic and thermal Free Energies=         -228.196515

                     E (Thermal)             CV                S
                      KCal/Mol        Cal/Mol-Kelvin    Cal/Mol-Kelvin
 Total                   21.113             15.936             71.111
 Electronic               0.000              0.000              0.000
 Translational            0.889              2.981             38.434
 Rotational               0.889              2.981             24.318
 Vibrational             19.335              9.974              8.359
 Vibration     1          0.619              1.899              2.630
 Vibration     2          0.625              1.880              2.445
 Vibration     3          0.734              1.555              1.123
 Vibration     4          0.752              1.506              1.026

 Optimization completed.
    -- Stationary point found.
 Normal termination of Gaussian 09 at Fri Mar  8 04:44:42 2019.
