 Gaussian 09, Revision E.01,
 Gaussian 09:  EM64L-G09RevE.01 30-Nov-2015

 ------------------------------------------------------
 #p b3lyp/6-311++G(3df,2p) freq IOp(2/17=3) IOp(2/18=3)
 ------------------------------------------------------

 ---------
 b3lyp opt
 ---------
 Symbolic Z-matrix:
 Charge = -1 Multiplicity = 3

                         Standard orientation:
 ---------------------------------------------------------------------
 Center     Atomic      Atomic             Coordinates (Angstroms)
 Number     Number       Type             X           Y           Z
 ---------------------------------------------------------------------
      1          6           0        0.000000    0.390872   -0.000000
      2          6           0        1.054972   -0.543564    0.000000
      3          6           0       -0.518577    1.651440   -0.000000
      4          6           0        0.911460   -1.901076    0.000000
      5          1           0        2.044267   -0.058984    0.000000
      6          8           0       -1.341425    0.309119   -0.000000
 ---------------------------------------------------------------------

 SCF Done:  E(UB3LYP) =  -228.077468985     A.U. after   18 cycles

 The electronic state is 3-A".
 Alpha  occ. eigenvalues --  -19.01991 -10.09143 -10.06071 -10.00128  -9.99554
 Alpha  occ. eigenvalues --   -0.94400  -0.61099  -0.52353  -0.41940  -0.34841
 Alpha  occ. eigenvalues --   -0.29677  -0.27337  -0.19989  -0.13056  -0.12549
 Alpha  occ. eigenvalues --   -0.09557  -0.04476  -0.00605
 Alpha virt. eigenvalues --    0.11245   0.12045   0.15718   0.16156   0.18441
 Alpha virt. eigenvalues --    0.18703   0.19456   0.20712   0.22488   0.22818
 Alpha virt. eigenvalues --    0.23221   0.23401   0.24782   0.26091   0.26635

  Beta  occ. eigenvalues --  -19.01038 -10.08875 -10.05315 -10.00279  -9.98070
  Beta  occ. eigenvalues --   -0.92761  -0.59895  -0.49773  -0.39430  -0.33626
  Beta  occ. eigenvalues --   -0.25940  -0.25556  -0.18814  -0.11484  -0.10318
  Beta  occ. eigenvalues --   -0.07228
  Beta virt. eigenvalues --    0.05984   0.12041   0.13130   0.14278   0.15960
  Beta virt. eigenvalues --    0.16317   0.18886   0.19279   0.19989   0.21155
  Beta virt. eigenvalues --    0.23184   0.23218   0.23540   0.23795   0.25113

 Mulliken charges and spin densities:
               1          2
     1  C    0.865905   0.044252
     2  C   -0.034634  -0.071439
     3  C   -0.643140   0.520408
     4  C   -0.712469   1.142693
     5  H    0.048579   0.078743
     6  O   -0.524241   0.285343
 Sum of Mulliken charges =  -1.00000   2.00000

 Dipole moment (field-independent basis, Debye):
    X=             -0.0326    Y=              2.6680    Z=              0.0000  Tot=              2.6682
 Quadrupole moment (field-independent basis, Debye-Ang):
   XX=            -38.3578   YY=            -57.5257   ZZ=            -32.8295
   XY=              8.8636   XZ=              0.0000   YZ=              0.0000

  Exact polarizability:  73.069 -18.577 107.664   0.000  -0.000  47.947
 Approx polarizability: 104.543 -19.009 149.333   0.000  -0.000  66.904

                      1                      2                      3
                     A"                     A'                     A'
 Frequencies --    170.8405               237.5722               396.8229
 Red. masses --      6.9316                10.4968                11.3093
 Frc consts  --      0.1192                 0.3491                 1.0493
 IR Inten    --     36.6780                26.0838                 4.8979

                      4                      5                      6
                     A"                     A'                     A"
 Frequencies --    473.3185               576.9560               761.8668
 Red. masses --      3.6043                 9.6960                 1.6338
 Frc consts  --      0.4757                 1.9016                 0.5587
 IR Inten    --      1.4281                 7.6692                21.2277

                      7                      8                      9
                     A'                     A'                     A'
 Frequencies --    907.0363              1094.8969              1224.5109
 Red. masses --      7.2844                 4.1885                 1.6138
 Frc consts  --      3.5310                 2.9584                 1.4257
 IR Inten    --     22.8267                25.8049                18.8423

                     10                     11                     12
                     A'                     A'                     A'
 Frequencies --   1426.5163              1662.8391              2899.4410
 Red. masses --      5.2306                12.0255                 1.0777
 Frc consts  --      6.2713                19.5908                 5.3380
 IR Inten    --     72.4616               247.8512               131.3950

 - Thermochemistry -
 -------------------
 Temperature   298.150 Kelvin.  Pressure   1.00000 Atm.
 Atom     1 has atomic number  6 and mass  12.00000

 Molecular mass:    65.00274 amu.
 Principal axes and moments of inertia in atomic units:
                           1         2         3
     Eigenvalues --    89.34675 419.49109 508.83784
           X           -0.61055   0.79198   0.00000
           Y            0.79198   0.61055   0.00000
           Z           -0.00000  -0.00000   1.00000
 This molecule is an asymmetric top.
 Rotational symmetry number  1.
 Rotational temperatures (Kelvin)      0.96941     0.20647     0.17022
 Rotational constants (GHZ):          20.19929     4.30222     3.54679
 Zero-point vibrational energy      70774.8 (Joules/Mol)
                                   16.91558 (Kcal/Mol)
 Warning -- explicit consideration of   5 degrees of freedom as
           vibrations may cause significant error
 Vibrational temperatures:    245.80   341.81   570.94   681.00   830.11
          (Kelvin)           1096.15  1305.02  1575.31  1761.80  2052.44
                             2392.45  4171.64

 Zero-point correction=                           0.026957 (Hartree/Particle)
 Thermal correction to Energy=                    0.031824
 Thermal correction to Enthalpy=                  0.032768
 Thermal correction to Gibbs Free Energy=        -0.001449
 Sum of electronic and zero-point Energies=           -228.050512
 Sum of electronic and thermal Energies=              -228.045645
 Sum of electronic and thermal Enthalpies=            -228.044701
 Sum of electronic and thermal Free Energies=         -228.078918

                     E (Thermal)             CV                S
                      KCal/Mol        Cal/Mol-Kelvin    Cal/Mol-Kelvin
 Total                   19.970             15.309             72.017
 Electronic               0.000              0.000              2.183
 Translational            0.889              2.981             38.434
 Rotational               0.889              2.981             24.459
 Vibrational             18.192              9.348              6.940
 Vibration     1          0.626              1.878              2.426
 Vibration     2          0.656              1.783              1.821
 Vibration     3          0.763              1.477              0.974
 Vibration     4          0.830              1.309              0.728
 Vibration     5          0.933              1.081              0.491

 Normal termination of Gaussian 09 at Fri Mar  8 06:11:06 2019.
