 Gaussian 09, Revision E.01,
 Gaussian 09:  EM64L-G09RevE.01 30-Nov-2015

 ------------------------------------------------------
 #p b3lyp/6-311++G(3df,2p) freq IOp(2/17=3) IOp(2/18=3)
 ------------------------------------------------------

 ---------
 b3lyp opt
 ---------
 Symbolic Z-matrix:
 Charge = -1 Multiplicity = 1

                         Standard orientation:
 ---------------------------------------------------------------------
 Center     Atomic      Atomic             Coordinates (Angstroms)
 Number     Number       Type             X           Y           Z
 ---------------------------------------------------------------------
      1          6           0       -0.405814   -1.033748    0.018738
      2          6           0       -0.446818    1.027660   -0.162119
      3          6           0        2.007820   -0.103261    0.065360
      4          6           0        0.752775    0.084381   -0.094745
      5          1           0       -0.529493    1.562712    0.797652
      6          8           0       -1.364786   -0.176613    0.029868
 ---------------------------------------------------------------------

 SCF Done:  E(RB3LYP) =  -228.065854289     A.U. after   16 cycles

 The electronic state is 1-A.
 Alpha  occ. eigenvalues --  -19.02465 -10.08762 -10.03828 -10.00581  -9.98845
 Alpha  occ. eigenvalues --   -0.94701  -0.59570  -0.49808  -0.44123  -0.31668
 Alpha  occ. eigenvalues --   -0.27448  -0.23233  -0.21954  -0.11560  -0.10396
 Alpha  occ. eigenvalues --   -0.06664  -0.02090
 Alpha virt. eigenvalues --    0.08589   0.10871   0.12755   0.16426   0.17048
 Alpha virt. eigenvalues --    0.17711   0.18830   0.19981   0.20961   0.21368
 Alpha virt. eigenvalues --    0.22597   0.24113   0.25236   0.26170   0.27242

 Mulliken charges:
               1
     1  C   -0.164947
     2  C   -0.241989
     3  C   -0.864138
     4  C    0.569804
     5  H    0.132697
     6  O   -0.431428
 Sum of Mulliken charges =  -1.00000

 Dipole moment (field-independent basis, Debye):
    X=             -2.9426    Y=              0.7301    Z=              1.0894  Tot=              3.2216
 Quadrupole moment (field-independent basis, Debye-Ang):
   XX=            -49.2700   YY=            -40.0592   ZZ=            -34.1551
   XY=              1.5265   XZ=             -1.5677   YZ=              3.0722

  Exact polarizability:  99.672  -3.284  76.743   6.022  -5.089  52.246
 Approx polarizability: 214.513   4.797 118.528  12.552  -6.315  73.099

                      1                      2                      3
                      A                      A                      A
 Frequencies --    206.7280               261.1043               505.6164
 Red. masses --      9.1524                10.0756                 6.0398
 Frc consts  --      0.2305                 0.4047                 0.9097
 IR Inten    --      9.5000                15.3832                19.0131

                      4                      5                      6
                      A                      A                      A
 Frequencies --    561.5300               617.2318               663.7229
 Red. masses --      8.0746                 9.8099                 9.2653
 Frc consts  --      1.5001                 2.2020                 2.4048
 IR Inten    --    148.8571                 1.7649                36.4089

                      7                      8                      9
                      A                      A                      A
 Frequencies --    827.1968              1010.8998              1200.1937
 Red. masses --      9.4040                 1.3747                 1.2804
 Frc consts  --      3.7912                 0.8277                 1.0866
 IR Inten    --     10.2955                47.9011                27.9736

                     10                     11                     12
                      A                      A                      A
 Frequencies --   1342.8033              1785.5036              2921.3434
 Red. masses --      5.3741                11.1748                 1.0847
 Frc consts  --      5.7093                20.9900                 5.4543
 IR Inten    --    173.3871               151.5647               122.1794

 - Thermochemistry -
 -------------------
 Temperature   298.150 Kelvin.  Pressure   1.00000 Atm.
 Atom     1 has atomic number  6 and mass  12.00000

 Molecular mass:    65.00274 amu.
 Principal axes and moments of inertia in atomic units:
                           1         2         3
     Eigenvalues --   106.21909 323.88542 422.49936
           X            0.99990  -0.01333  -0.00523
           Y            0.01355   0.99887   0.04565
           Z            0.00462  -0.04572   0.99894
 This molecule is an asymmetric top.
 Rotational symmetry number  1.
 Rotational temperatures (Kelvin)      0.81543     0.26742     0.20500
 Rotational constants (GHZ):          16.99074     5.57216     4.27158
 Zero-point vibrational energy      71201.0 (Joules/Mol)
                                   17.01744 (Kcal/Mol)
 Warning -- explicit consideration of   5 degrees of freedom as
           vibrations may cause significant error
 Vibrational temperatures:    297.44   375.67   727.47   807.92   888.06
          (Kelvin)            954.95  1190.15  1454.46  1726.81  1931.99
                             2568.94  4203.16

 Zero-point correction=                           0.027119 (Hartree/Particle)
 Thermal correction to Energy=                    0.031788
 Thermal correction to Enthalpy=                  0.032732
 Thermal correction to Gibbs Free Energy=         0.000123
 Sum of electronic and zero-point Energies=           -228.038735
 Sum of electronic and thermal Energies=              -228.034066
 Sum of electronic and thermal Enthalpies=            -228.033122
 Sum of electronic and thermal Free Energies=         -228.065731

                     E (Thermal)             CV                S
                      KCal/Mol        Cal/Mol-Kelvin    Cal/Mol-Kelvin
 Total                   19.947             15.116             68.632
 Electronic               0.000              0.000              0.000
 Translational            0.889              2.981             38.434
 Rotational               0.889              2.981             24.189
 Vibrational             18.170              9.155              6.008
 Vibration     1          0.641              1.830              2.072
 Vibration     2          0.669              1.744              1.654
 Vibration     3          0.861              1.238              0.644
 Vibration     4          0.917              1.115              0.521
 Vibration     5          0.977              0.995              0.421

 Normal termination of Gaussian 09 at Fri Mar  8 05:05:45 2019.
