 Gaussian 09, Revision E.01,
 Gaussian 09:  EM64L-G09RevE.01 30-Nov-2015

 ------------------------------------------------------
 #p b3lyp/6-311++G(3df,2p) freq IOp(2/17=3) IOp(2/18=3)
 ------------------------------------------------------

 ---------
 b3lyp opt
 ---------
 Symbolic Z-matrix:
 Charge = -1 Multiplicity = 3

                         Standard orientation:
 ---------------------------------------------------------------------
 Center     Atomic      Atomic             Coordinates (Angstroms)
 Number     Number       Type             X           Y           Z
 ---------------------------------------------------------------------
      1          6           0       -0.061466   -0.879695    0.000000
      2          1           0        0.860531    0.835821    0.000000
      3          8           0       -0.061466    0.555294    0.000000
 ---------------------------------------------------------------------

 SCF Done:  E(UB3LYP) =  -113.816189366     A.U. after   14 cycles

 The electronic state is 3-A".
 Alpha  occ. eigenvalues --  -18.92609  -9.95766  -0.80966  -0.37278  -0.23081
 Alpha  occ. eigenvalues --   -0.15121  -0.09424   0.06463   0.08990
 Alpha virt. eigenvalues --    0.13437   0.21677   0.21871   0.23070   0.23793
 Alpha virt. eigenvalues --    0.30746   0.34217   0.36489   0.39015   0.45174
 Alpha virt. eigenvalues --    0.48636   0.54861   0.59758   0.66106   0.67650

  Beta  occ. eigenvalues --  -18.92105  -9.93445  -0.79628  -0.34039  -0.20258
  Beta  occ. eigenvalues --   -0.12141  -0.04578
  Beta virt. eigenvalues --    0.13395   0.18712   0.19516   0.22324   0.23125
  Beta virt. eigenvalues --    0.26813   0.28359   0.31747   0.34665   0.36670
  Beta virt. eigenvalues --    0.39064   0.46177   0.50674   0.57914   0.62758

 Mulliken charges and spin densities:
               1          2
     1  C   -0.839022   2.026910
     2  H    0.176449  -0.008179
     3  O   -0.337427  -0.018732
 Sum of Mulliken charges =  -1.00000   2.00000

 Dipole moment (field-independent basis, Debye):
    X=              1.5707    Y=              4.6690    Z=              0.0000  Tot=              4.9262
 Quadrupole moment (field-independent basis, Debye-Ang):
   XX=            -17.0563   YY=            -23.5078   ZZ=            -19.8385
   XY=              1.3536   XZ=              0.0000   YZ=              0.0000

  Exact polarizability:  45.340  -0.477  42.884   0.000   0.000  74.152
 Approx polarizability:  45.722   1.484  47.098  -0.000  -0.000  54.418

                      1                      2                      3
                     A'                     A'                     A'
 Frequencies --    814.7982              1017.5362              3666.2793
 Red. masses --      7.3179                 1.2046                 1.0675
 Frc consts  --      2.8624                 0.7348                 8.4545
 IR Inten    --    217.5496                 3.4863               146.3938

 - Thermochemistry -
 -------------------
 Temperature   298.150 Kelvin.  Pressure   1.00000 Atm.
 Atom     1 has atomic number  6 and mass  12.00000

 Molecular mass:    29.00274 amu.
 Principal axes and moments of inertia in atomic units:
                           1         2         3
     Eigenvalues --     2.78989  53.36708  56.15697
           X            0.05681   0.99838   0.00000
           Y            0.99838  -0.05681   0.00000
           Z            0.00000  -0.00000   1.00000
 This molecule is an asymmetric top.
 Rotational symmetry number  1.
 Rotational temperatures (Kelvin)     31.04557     1.62298     1.54235
 Rotational constants (GHZ):         646.88546    33.81750    32.13744
 Zero-point vibrational energy      32889.0 (Joules/Mol)
                                    7.86066 (Kcal/Mol)
 Vibrational temperatures:   1172.31  1464.01  5274.95
          (Kelvin)

 Zero-point correction=                           0.012527 (Hartree/Particle)
 Thermal correction to Energy=                    0.015468
 Thermal correction to Enthalpy=                  0.016412
 Thermal correction to Gibbs Free Energy=        -0.009849
 Sum of electronic and zero-point Energies=           -113.803663
 Sum of electronic and thermal Energies=              -113.800721
 Sum of electronic and thermal Enthalpies=            -113.799777
 Sum of electronic and thermal Free Energies=         -113.826038

                     E (Thermal)             CV                S
                      KCal/Mol        Cal/Mol-Kelvin    Cal/Mol-Kelvin
 Total                    9.706              6.947             55.271
 Electronic               0.000              0.000              2.183
 Translational            0.889              2.981             36.028
 Rotational               0.889              2.981             16.776
 Vibrational              7.929              0.985              0.283

 Optimization completed.
    -- Stationary point found.
 Normal termination of Gaussian 09 at Fri Mar  8 05:25:08 2019.
