 Gaussian 09, Revision E.01,
 Gaussian 09:  EM64L-G09RevE.01 30-Nov-2015

 ------------------------------------------------------
 #p b3lyp/6-311++G(3df,2p) freq IOp(2/17=3) IOp(2/18=3)
 ------------------------------------------------------

 ---------
 b3lyp opt
 ---------
 Symbolic Z-matrix:
 Charge = -1 Multiplicity = 1

                         Standard orientation:
 ---------------------------------------------------------------------
 Center     Atomic      Atomic             Coordinates (Angstroms)
 Number     Number       Type             X           Y           Z
 ---------------------------------------------------------------------
      1          6           0        0.077960   -0.622597   -0.000000
      2          1           0       -1.091434   -1.060491    0.000000
      3          8           0        0.077960    0.599509    0.000000
 ---------------------------------------------------------------------

 SCF Done:  E(RB3LYP) =  -113.910297658     A.U. after   14 cycles

 The electronic state is 1-A'.
 Alpha  occ. eigenvalues --  -18.89241  -9.98991  -0.80388  -0.31046  -0.20039
 Alpha  occ. eigenvalues --   -0.15155  -0.12760   0.06325
 Alpha virt. eigenvalues --    0.14426   0.18291   0.19394   0.21977   0.25038
 Alpha virt. eigenvalues --    0.26971   0.33868   0.36182   0.38528   0.39013
 Alpha virt. eigenvalues --    0.43170   0.53416   0.58106   0.59242   0.65006

 Mulliken charges:
               1
     1  C   -0.344984
     2  H   -0.250920
     3  O   -0.404096
 Sum of Mulliken charges =  -1.00000

 Dipole moment (field-independent basis, Debye):
    X=              0.2979    Y=              2.1855    Z=             -0.0000  Tot=              2.2057
 Quadrupole moment (field-independent basis, Debye-Ang):
   XX=            -22.5232   YY=            -22.2451   ZZ=            -15.4486
   XY=             -0.8429   XZ=              0.0000   YZ=             -0.0000

  Exact polarizability: 137.472  26.123  38.497  -0.000  -0.000  20.651
 Approx polarizability: 133.034  32.875  52.490  -0.000   0.000  27.183

                      1                      2                      3
                     A'                     A'                     A'
 Frequencies --   1255.2966              1346.9519              1750.6696
 Red. masses --      1.2282                 1.9922                 1.9952
 Frc consts  --      1.1403                 2.1295                 3.6029
 IR Inten    --     77.1575              3589.0200               463.2265

 - Thermochemistry -
 -------------------
 Temperature   298.150 Kelvin.  Pressure   1.00000 Atm.
 Atom     1 has atomic number  6 and mass  12.00000

 Molecular mass:    29.00274 amu.
 Principal axes and moments of inertia in atomic units:
                           1         2         3
     Eigenvalues --     4.17292  41.62976  45.80268
           X            0.12418   0.99226   0.00000
           Y            0.99226  -0.12418   0.00000
           Z            0.00000   0.00000   1.00000
 This molecule is an asymmetric top.
 Rotational symmetry number  1.
 Rotational temperatures (Kelvin)     20.75618     2.08057     1.89102
 Rotational constants (GHZ):         432.48917    43.35219    39.40253
 Zero-point vibrational energy      26036.2 (Joules/Mol)
                                    6.22281 (Kcal/Mol)
 Vibrational temperatures:   1806.09  1937.96  2518.82
          (Kelvin)

 Zero-point correction=                           0.009917 (Hartree/Particle)
 Thermal correction to Energy=                    0.012774
 Thermal correction to Enthalpy=                  0.013718
 Thermal correction to Gibbs Free Energy=        -0.011376
 Sum of electronic and zero-point Energies=           -113.900381
 Sum of electronic and thermal Energies=              -113.897524
 Sum of electronic and thermal Enthalpies=            -113.896580
 Sum of electronic and thermal Free Energies=         -113.921674

                     E (Thermal)             CV                S
                      KCal/Mol        Cal/Mol-Kelvin    Cal/Mol-Kelvin
 Total                    8.016              6.290             52.815
 Electronic               0.000              0.000              0.000
 Translational            0.889              2.981             36.028
 Rotational               0.889              2.981             16.727
 Vibrational              6.238              0.328              0.059

 Optimization completed.
    -- Stationary point found.
 Normal termination of Gaussian 09 at Fri Mar  8 05:10:41 2019.
