 Gaussian 09, Revision E.01,
 Gaussian 09:  EM64L-G09RevE.01 30-Nov-2015

 ------------------------------------------------------
 #p b3lyp/6-311++G(3df,2p) freq IOp(2/17=3) IOp(2/18=3)
 ------------------------------------------------------

 ---------
 b3lyp opt
 ---------
 Symbolic Z-matrix:
 Charge = -1 Multiplicity = 3

                         Standard orientation:
 ---------------------------------------------------------------------
 Center     Atomic      Atomic             Coordinates (Angstroms)
 Number     Number       Type             X           Y           Z
 ---------------------------------------------------------------------
      1          6           0        0.060216   -0.621736   -0.000000
      2          1           0       -0.843027   -1.275705   -0.000000
      3          8           0        0.060216    0.625765    0.000000
 ---------------------------------------------------------------------

 SCF Done:  E(UB3LYP) =  -113.875079888     A.U. after   15 cycles

 The electronic state is 3-A".
 Alpha  occ. eigenvalues --  -18.89310  -9.98425  -0.79533  -0.35790  -0.22067
 Alpha  occ. eigenvalues --   -0.15980  -0.15416   0.03344   0.10372
 Alpha virt. eigenvalues --    0.13827   0.19259   0.21424   0.22084   0.26087
 Alpha virt. eigenvalues --    0.34308   0.35438   0.38956   0.40003   0.42410
 Alpha virt. eigenvalues --    0.52560   0.56509   0.56595   0.62590   0.64883

  Beta  occ. eigenvalues --  -18.87674  -9.96905  -0.76340  -0.31315  -0.19298
  Beta  occ. eigenvalues --   -0.10760  -0.09807
  Beta virt. eigenvalues --    0.14116   0.15802   0.19192   0.19299   0.23171
  Beta virt. eigenvalues --    0.26980   0.27490   0.35688   0.36173   0.39441
  Beta virt. eigenvalues --    0.40652   0.43074   0.54724   0.57766   0.58859

 Mulliken charges and spin densities:
               1          2
     1  C   -0.615758   1.550574
     2  H    0.077199   0.113693
     3  O   -0.461441   0.335733
 Sum of Mulliken charges =  -1.00000   2.00000

 Dipole moment (field-independent basis, Debye):
    X=             -0.9891    Y=              1.2832    Z=             -0.0000  Tot=              1.6201
 Quadrupole moment (field-independent basis, Debye-Ang):
   XX=            -17.2841   YY=            -20.7364   ZZ=            -21.2798
   XY=              0.8745   XZ=              0.0000   YZ=             -0.0000

  Exact polarizability:  40.681   3.410  41.442  -0.000   0.000********
 Approx polarizability:  40.702   4.258  52.891  -0.000   0.000 120.982

                      1                      2                      3
                     A'                     A'                     A'
 Frequencies --   1026.8367              1443.5811              2699.5110
 Red. masses --      1.2349                11.5835                 1.0800
 Frc consts  --      0.7672                14.2224                 4.6370
 IR Inten    --     17.2913               426.3202               521.0985

 - Thermochemistry -
 -------------------
 Temperature   298.150 Kelvin.  Pressure   1.00000 Atm.
 Atom     1 has atomic number  6 and mass  12.00000

 Molecular mass:    29.00274 amu.
 Principal axes and moments of inertia in atomic units:
                           1         2         3
     Eigenvalues --     2.39833  45.02842  47.42675
           X            0.10112   0.99487   0.00000
           Y            0.99487  -0.10112   0.00000
           Z            0.00000   0.00000   1.00000
 This molecule is an asymmetric top.
 Rotational symmetry number  1.
 Rotational temperatures (Kelvin)     36.11422     1.92354     1.82627
 Rotational constants (GHZ):         752.49916    40.08005    38.05324
 Zero-point vibrational energy      30923.0 (Joules/Mol)
                                    7.39078 (Kcal/Mol)
 Vibrational temperatures:   1477.39  2076.99  3883.99
          (Kelvin)

 Zero-point correction=                           0.011778 (Hartree/Particle)
 Thermal correction to Energy=                    0.014650
 Thermal correction to Enthalpy=                  0.015594
 Thermal correction to Gibbs Free Energy=        -0.010348
 Sum of electronic and zero-point Energies=           -113.863302
 Sum of electronic and thermal Energies=              -113.860430
 Sum of electronic and thermal Enthalpies=            -113.859486
 Sum of electronic and thermal Free Energies=         -113.885428

                     E (Thermal)             CV                S
                      KCal/Mol        Cal/Mol-Kelvin    Cal/Mol-Kelvin
 Total                    9.193              6.402             54.600
 Electronic               0.000              0.000              2.183
 Translational            0.889              2.981             36.028
 Rotational               0.889              2.981             16.290
 Vibrational              7.416              0.441              0.099

 Optimization completed.
    -- Stationary point found.
 Normal termination of Gaussian 09 at Fri Mar  8 05:26:05 2019.
