 Gaussian 09, Revision E.01,
 Gaussian 09:  EM64L-G09RevE.01 30-Nov-2015

 ------------------------------------------------------
 #p b3lyp/6-311++G(3df,2p) freq IOp(2/17=3) IOp(2/18=3)
 ------------------------------------------------------

 ---------
 b3lyp opt
 ---------
 Symbolic Z-matrix:
 Charge = -1 Multiplicity = 1

                         Standard orientation:
 ---------------------------------------------------------------------
 Center     Atomic      Atomic             Coordinates (Angstroms)
 Number     Number       Type             X           Y           Z
 ---------------------------------------------------------------------
      1          6           0        0.077938   -0.622670   -0.000000
      2          1           0       -1.091127   -1.060345   -0.000000
      3          8           0        0.077938    0.599545    0.000000
 ---------------------------------------------------------------------

 SCF Done:  E(RB3LYP) =  -113.910297683     A.U. after   14 cycles

 The electronic state is 1-A'.
 Alpha  occ. eigenvalues --  -18.89236  -9.98987  -0.80378  -0.31049  -0.20036
 Alpha  occ. eigenvalues --   -0.15148  -0.12754   0.06326
 Alpha virt. eigenvalues --    0.14425   0.18291   0.19395   0.21978   0.25039
 Alpha virt. eigenvalues --    0.26971   0.33872   0.36184   0.38530   0.39014
 Alpha virt. eigenvalues --    0.43171   0.53417   0.58109   0.59241   0.65009

 Mulliken charges:
               1
     1  C   -0.345571
     2  H   -0.250218
     3  O   -0.404211
 Sum of Mulliken charges =  -1.00000

 Dipole moment (field-independent basis, Debye):
    X=              0.2940    Y=              2.1836    Z=              0.0000  Tot=              2.2033
 Quadrupole moment (field-independent basis, Debye-Ang):
   XX=            -22.5170   YY=            -22.2434   ZZ=            -15.4482
   XY=             -0.8371   XZ=             -0.0000   YZ=             -0.0000

  Exact polarizability: 137.473  26.101  38.498  -0.000  -0.000  20.659
 Approx polarizability: 132.979  32.838  52.486   0.000   0.000  27.191

                      1                      2                      3
                     A'                     A'                     A'
 Frequencies --   1255.4692              1348.3948              1751.3779
 Red. masses --      1.2280                 2.0057                 1.9820
 Frc consts  --      1.1404                 2.1486                 3.5820
 IR Inten    --     77.7804              3581.4252               471.9522

 - Thermochemistry -
 -------------------
 Temperature   298.150 Kelvin.  Pressure   1.00000 Atm.
 Atom     1 has atomic number  6 and mass  12.00000

 Molecular mass:    29.00274 amu.
 Principal axes and moments of inertia in atomic units:
                           1         2         3
     Eigenvalues --     4.17085  41.63442  45.80527
           X            0.12411   0.99227   0.00000
           Y            0.99227  -0.12411   0.00000
           Z            0.00000   0.00000   1.00000
 This molecule is an asymmetric top.
 Rotational symmetry number  1.
 Rotational temperatures (Kelvin)     20.76649     2.08034     1.89091
 Rotational constants (GHZ):         432.70389    43.34733    39.40030
 Zero-point vibrational energy      26050.1 (Joules/Mol)
                                    6.22613 (Kcal/Mol)
 Vibrational temperatures:   1806.34  1940.04  2519.84
          (Kelvin)

 Zero-point correction=                           0.009922 (Hartree/Particle)
 Thermal correction to Energy=                    0.012779
 Thermal correction to Enthalpy=                  0.013723
 Thermal correction to Gibbs Free Energy=        -0.011371
 Sum of electronic and zero-point Energies=           -113.900376
 Sum of electronic and thermal Energies=              -113.897519
 Sum of electronic and thermal Enthalpies=            -113.896575
 Sum of electronic and thermal Free Energies=         -113.921669

                     E (Thermal)             CV                S
                      KCal/Mol        Cal/Mol-Kelvin    Cal/Mol-Kelvin
 Total                    8.019              6.289             52.815
 Electronic               0.000              0.000              0.000
 Translational            0.889              2.981             36.028
 Rotational               0.889              2.981             16.727
 Vibrational              6.241              0.328              0.059

 Optimization completed.
    -- Stationary point found.
 Normal termination of Gaussian 09 at Fri Mar  8 05:23:56 2019.
