 Gaussian 09, Revision E.01,
 Gaussian 09:  EM64L-G09RevE.01 30-Nov-2015

 ------------------------------------------------------
 #p b3lyp/6-311++G(3df,2p) freq IOp(2/17=3) IOp(2/18=3)
 ------------------------------------------------------

 ---------
 b3lyp opt
 ---------
 Symbolic Z-matrix:
 Charge = -1 Multiplicity = 1

                         Standard orientation:
 ---------------------------------------------------------------------
 Center     Atomic      Atomic             Coordinates (Angstroms)
 Number     Number       Type             X           Y           Z
 ---------------------------------------------------------------------
      1          1           0        0.000000    0.000000   -0.856961
      2          8           0        0.000000    0.000000    0.107120
 ---------------------------------------------------------------------

 SCF Done:  E(RB3LYP) =  -75.8303123318     A.U. after   12 cycles

 The electronic state is 1-SG.
 Alpha  occ. eigenvalues --  -18.75989  -0.58980  -0.09100   0.04650   0.04650
 Alpha virt. eigenvalues --    0.17011   0.36854   0.38241   0.38619   0.38619
 Alpha virt. eigenvalues --    0.44269   0.79266   0.96119   0.96119   1.09573
 Alpha virt. eigenvalues --    1.09573   1.17810   1.31682   1.31682   1.37472

 Mulliken charges:
               1
     1  H    0.106112
     2  O   -1.106112
 Sum of Mulliken charges =  -1.00000

 Dipole moment (field-independent basis, Debye):
    X=              0.0000    Y=              0.0000    Z=             -1.5187  Tot=              1.5187
 Quadrupole moment (field-independent basis, Debye-Ang):
   XX=            -10.3541   YY=            -10.3541   ZZ=             -8.0686
   XY=              0.0000   XZ=              0.0000   YZ=              0.0000

  Exact polarizability:  20.113  -0.000  20.113  -0.000  -0.000  14.569
 Approx polarizability:  19.341  -0.000  19.341  -0.000  -0.000  18.118

                      1
                     SG
 Frequencies --   3769.5036
 Red. masses --      1.0671
 Frc consts  --      8.9335
 IR Inten    --     94.6202

 - Thermochemistry -
 -------------------
 Temperature   298.150 Kelvin.  Pressure   1.00000 Atm.
 Atom     1 has atomic number  1 and mass   1.00783

 Molecular mass:    17.00274 amu.
 Principal axes and moments of inertia in atomic units:
                           1         2         3
     Eigenvalues --     0.00000   3.14683   3.14683
           X            0.00000  -0.00000   1.00000
           Y            0.00000   1.00000   0.00000
           Z            1.00000   0.00000   0.00000
 This molecule is a prolate symmetric top.
 Rotational symmetry number  1.
 Rotational temperature (Kelvin)     27.52417
 Rotational constant (GHZ):         573.511306
 Zero-point vibrational energy      22546.6 (Joules/Mol)
                                    5.38878 (Kcal/Mol)
 Vibrational temperatures:   5423.47
          (Kelvin)

 Zero-point correction=                           0.008588 (Hartree/Particle)
 Thermal correction to Energy=                    0.010948
 Thermal correction to Enthalpy=                  0.011892
 Thermal correction to Gibbs Free Energy=        -0.007664
 Sum of electronic and zero-point Energies=            -75.821725
 Sum of electronic and thermal Energies=               -75.819364
 Sum of electronic and thermal Enthalpies=             -75.818420
 Sum of electronic and thermal Free Energies=          -75.837976

                     E (Thermal)             CV                S
                      KCal/Mol        Cal/Mol-Kelvin    Cal/Mol-Kelvin
 Total                    6.870              4.968             41.158
 Electronic               0.000              0.000              0.000
 Translational            0.889              2.981             34.437
 Rotational               0.592              1.987              6.722
 Vibrational              5.389              0.000              0.000

 Optimization completed.
    -- Stationary point found.
 Normal termination of Gaussian 09 at Fri Mar  8 05:25:40 2019.
