 Gaussian 09, Revision E.01,
 Gaussian 09:  EM64L-G09RevE.01 30-Nov-2015

 ------------------------------------------------------
 #p b3lyp/6-311++G(3df,2p) freq IOp(2/17=3) IOp(2/18=3)
 ------------------------------------------------------

 ---------
 b3lyp opt
 ---------
 Symbolic Z-matrix:
 Charge = -1 Multiplicity = 2

                         Standard orientation:
 ---------------------------------------------------------------------
 Center     Atomic      Atomic             Coordinates (Angstroms)
 Number     Number       Type             X           Y           Z
 ---------------------------------------------------------------------
      1          8           0        0.000000    0.000000    0.000000
 ---------------------------------------------------------------------

 SCF Done:  E(UB3LYP) =  -75.1498661980     A.U. after   12 cycles

 Unable to determine electronic state:  an orbital has unidentified symmetry.
 Alpha  occ. eigenvalues --  -18.79942  -0.55560  -0.02994   0.03476   0.03476
 Alpha virt. eigenvalues --    0.33640   0.37289   0.38496   0.38496   1.06809
 Alpha virt. eigenvalues --    1.07567   1.07567   1.09847   1.09847   1.27602
 Alpha virt. eigenvalues --    1.31612   1.31612   1.53323   3.64321   3.65921

  Beta  occ. eigenvalues --  -18.77488  -0.47893   0.06014   0.06014
  Beta virt. eigenvalues --    0.18567   0.34327   0.38931   0.38931   0.41084
  Beta virt. eigenvalues --    1.09936   1.09936   1.10174   1.10174   1.10745
  Beta virt. eigenvalues --    1.32979   1.32979   1.35581   1.56915   3.72351

 Mulliken charges and spin densities:
               1          2
     1  O   -1.000000   1.000000
 Sum of Mulliken charges =  -1.00000   1.00000

 Dipole moment (field-independent basis, Debye):
    X=              0.0000    Y=              0.0000    Z=              0.0000  Tot=              0.0000
 Quadrupole moment (field-independent basis, Debye-Ang):
   XX=             -9.4570   YY=             -7.3351   ZZ=             -9.4570
   XY=             -0.0000   XZ=             -0.0000   YZ=              0.0000

  Exact polarizability:  12.718   0.000   7.486   0.000  -0.000  12.718
 Approx polarizability:  13.125  -0.000   8.516  -0.000  -0.000  13.125

 - Thermochemistry -
 -------------------
 Temperature   298.150 Kelvin.  Pressure   1.00000 Atm.
 Atom     1 has atomic number  8 and mass  15.99491
 Molecular mass:    15.99491 amu.
 Zero-point vibrational energy          0.0 (Joules/Mol)
                                    0.00000 (Kcal/Mol)
 Vibrational temperatures:
          (Kelvin)

 Zero-point correction=                           0.000000 (Hartree/Particle)
 Thermal correction to Energy=                    0.001416
 Thermal correction to Enthalpy=                  0.002360
 Thermal correction to Gibbs Free Energy=        -0.014569
 Sum of electronic and zero-point Energies=            -75.149866
 Sum of electronic and thermal Energies=               -75.148450
 Sum of electronic and thermal Enthalpies=             -75.147506
 Sum of electronic and thermal Free Energies=          -75.164436

                     E (Thermal)             CV                S
                      KCal/Mol        Cal/Mol-Kelvin    Cal/Mol-Kelvin
 Total                    0.889              2.981             35.632
 Electronic               0.000              0.000              1.377
 Translational            0.889              2.981             34.255
 Rotational               0.000              0.000              0.000
 Vibrational              0.000              0.000              0.000

 Optimization completed.
    -- Stationary point found.
 Normal termination of Gaussian 09 at Fri Mar  8 05:26:51 2019.
