 Gaussian 09, Revision E.01,
 Gaussian 09:  EM64L-G09RevE.01 30-Nov-2015

 ---------------------------------------------------------
 #p ccsd(t)/6-311++G(3df,2p) scf(MaxCyc=300) guess(Huckel)
 ---------------------------------------------------------

 -------------
 ccsd(t) iener
 -------------
 Symbolic Z-matrix:
 Charge =  0 Multiplicity = 3

                         Standard orientation:
 ---------------------------------------------------------------------
 Center     Atomic      Atomic             Coordinates (Angstroms)
 Number     Number       Type             X           Y           Z
 ---------------------------------------------------------------------
      1          6           0       -0.826545    1.227956    0.000000
      2          6           0        0.000000    0.243102    0.000000
      3          6           0        0.560202   -0.977989    0.000000
      4          1           0       -0.040212   -1.878151    0.000000
      5          1           0        1.638264   -1.080259    0.000000
 ---------------------------------------------------------------------

 SCF Done:  E(UHF) =  -114.625866586     A.U. after   23 cycles
 E2 =    -0.3607987233D+00 EUMP2 =    -0.11498666530948D+03
 CCSD(T)
 CCSD(T)= -0.11505985961D+03

 The electronic state is 3-A".
 Alpha  occ. eigenvalues --  -11.30864 -11.26131 -11.24234  -1.07686  -0.98716
 Alpha  occ. eigenvalues --   -0.69009  -0.61627  -0.60305  -0.50459  -0.44313
 Alpha  occ. eigenvalues --   -0.38303
 Alpha virt. eigenvalues --    0.04579   0.06214   0.08628   0.10986   0.11122
 Alpha virt. eigenvalues --    0.12971   0.14638   0.14640   0.16623   0.17302
 Alpha virt. eigenvalues --    0.17867   0.20911   0.22855   0.24568   0.25083

  Beta  occ. eigenvalues --  -11.26656 -11.24215 -11.24010  -1.06209  -0.87347
  Beta  occ. eigenvalues --   -0.66454  -0.62306  -0.43627  -0.39642
  Beta virt. eigenvalues --    0.01752   0.04842   0.06177   0.07486   0.10833
  Beta virt. eigenvalues --    0.10904   0.11886   0.12638   0.16838   0.17732
  Beta virt. eigenvalues --    0.18819   0.19177   0.19364   0.21155   0.23147

 Mulliken charges and spin densities:
               1          2
     1  C   -0.111000   2.483591
     2  C    0.241238  -1.516286
     3  C   -0.422478   1.217881
     4  H    0.145732  -0.096744
     5  H    0.146508  -0.088443
 Sum of Mulliken charges =  -0.00000   2.00000

 Dipole moment (field-independent basis, Debye):
    X=              0.2635    Y=             -0.7245    Z=              0.0000  Tot=              0.7709
 Quadrupole moment (field-independent basis, Debye-Ang):
   XX=            -16.9297   YY=            -15.9518   ZZ=            -19.5980
   XY=             -1.2360   XZ=              0.0000   YZ=              0.0000

 -115.0377511\CCSD(T)=-115.0598596\S2=2.569332\S2-1=2.444303\S2A=2.1426
 Normal termination of Gaussian 09 at Tue Nov 22 18:33:33 2016.
