 Gaussian 09, Revision E.01,
 Gaussian 09:  EM64L-G09RevE.01 30-Nov-2015

 ---------------------------------------------------------
 #p ccsd(t)/6-311++G(3df,2p) scf(MaxCyc=300) guess(Huckel)
 ---------------------------------------------------------

 -------------
 ccsd(t) iener
 -------------
 Symbolic Z-matrix:
 Charge =  0 Multiplicity = 3

                         Standard orientation:
 ---------------------------------------------------------------------
 Center     Atomic      Atomic             Coordinates (Angstroms)
 Number     Number       Type             X           Y           Z
 ---------------------------------------------------------------------
      1          6           0        0.000000    0.000000    0.000000
      2          6           0        0.000000    0.000000    1.265501
      3          6           0        0.000000    0.000000   -1.265501
      4          1           0        0.000000    0.000000   -2.327315
      5          1           0       -0.000000    0.000000    2.327315
 ---------------------------------------------------------------------

 SCF Done:  E(UHF) =  -114.667795537     A.U. after   14 cycles
 E2 =    -0.3773688723D+00 EUMP2 =    -0.11504516440891D+03
 CCSD(T)
 CCSD(T)= -0.11510890622D+03

 The electronic state is 3-SGG.
 Alpha  occ. eigenvalues --  -11.26326 -11.26321 -11.23221  -1.08429  -0.98703
 Alpha  occ. eigenvalues --   -0.74854  -0.69424  -0.50688  -0.50688  -0.36880
 Alpha  occ. eigenvalues --   -0.36880
 Alpha virt. eigenvalues --    0.03690   0.04482   0.10826   0.10826   0.11075
 Alpha virt. eigenvalues --    0.14544   0.14544   0.14701   0.16467   0.17567
 Alpha virt. eigenvalues --    0.18225   0.18225   0.25259   0.28716   0.28716

  Beta  occ. eigenvalues --  -11.25888 -11.22694 -11.22686  -1.05753  -0.85771
  Beta  occ. eigenvalues --   -0.71526  -0.67898  -0.43978  -0.43978
  Beta virt. eigenvalues --    0.03843   0.04613   0.07438   0.07438   0.10431
  Beta virt. eigenvalues --    0.10431   0.11244   0.14970   0.17091   0.18186
  Beta virt. eigenvalues --    0.18989   0.18989   0.19562   0.19562   0.25173

 Mulliken charges and spin densities:
               1          2
     1  C   -0.732938  -1.386326
     2  C    0.046091   1.810333
     3  C    0.046091   1.810333
     4  H    0.320377  -0.117170
     5  H    0.320377  -0.117170
 Sum of Mulliken charges =  -0.00000   2.00000

 Dipole moment (field-independent basis, Debye):
    X=             -0.0000    Y=              0.0000    Z=             -0.0000  Tot=              0.0000
 Quadrupole moment (field-independent basis, Debye-Ang):
   XX=            -19.4320   YY=            -19.4320   ZZ=            -10.1960
   XY=             -0.0000   XZ=             -0.0000   YZ=             -0.0000

 -115.0877834\MP4SDQ=-115.0784225\CCSD=-115.0873854\CCSD(T)=-115.108906
 Normal termination of Gaussian 09 at Tue Nov 22 18:25:52 2016.
