 Gaussian 09, Revision E.01,
 Gaussian 09:  EM64L-G09RevE.01 30-Nov-2015

 ------------------------------
 #p b3lyp/6-311++G(3df,2p) freq
 ------------------------------

 ---------
 b3lyp opt
 ---------
 Symbolic Z-matrix:
 Charge =  2 Multiplicity = 3

                         Standard orientation:
 ---------------------------------------------------------------------
 Center     Atomic      Atomic             Coordinates (Angstroms)
 Number     Number       Type             X           Y           Z
 ---------------------------------------------------------------------
      1         16           0        0.000000    0.000000    0.674210
      2          6           0        0.000000    0.684110   -0.898947
      3          6           0       -0.000000   -0.684110   -0.898947
 ---------------------------------------------------------------------

 SCF Done:  E(UB3LYP) =  -473.203205789     A.U. after   13 cycles

 The electronic state is 3-B2.
 Alpha  occ. eigenvalues --  -89.59920 -10.94073 -10.94010  -8.67171  -6.63355
 Alpha  occ. eigenvalues --   -6.63346  -6.62959  -1.57642  -1.25077  -1.13813
 Alpha  occ. eigenvalues --   -1.01315  -1.00767  -0.95626  -0.90336
 Alpha virt. eigenvalues --   -0.75144  -0.64205  -0.59073  -0.50988  -0.37499
 Alpha virt. eigenvalues --   -0.33022  -0.32982  -0.30939  -0.29776  -0.28082
 Alpha virt. eigenvalues --   -0.25766  -0.25756  -0.22985  -0.21565  -0.21518

  Beta  occ. eigenvalues --  -89.59724 -10.91996 -10.91946  -8.66991  -6.63412
  Beta  occ. eigenvalues --   -6.62913  -6.62524  -1.55771  -1.22463  -1.07006
  Beta  occ. eigenvalues --   -0.99462  -0.98362
  Beta virt. eigenvalues --   -0.76115  -0.74285  -0.73726  -0.59744  -0.54280
  Beta virt. eigenvalues --   -0.49603  -0.36801  -0.31286  -0.30908  -0.30858
  Beta virt. eigenvalues --   -0.28244  -0.27366  -0.25337  -0.24967  -0.21423

 Mulliken charges and spin densities:
               1          2
     1  S    0.824590   0.264114
     2  C    0.587705   0.867943
     3  C    0.587705   0.867943
 Sum of Mulliken charges =   2.00000   2.00000

 Dipole moment (field-independent basis, Debye):
    X=             -0.0000    Y=             -0.0000    Z=             -0.7734  Tot=              0.7734
 Quadrupole moment (field-independent basis, Debye-Ang):
   XX=            -16.6441   YY=            -13.9845   ZZ=             -8.8748
   XY=             -0.0000   XZ=              0.0000   YZ=              0.0000

  Exact polarizability:  17.005  -0.000  22.808   0.000  -0.000  30.797
 Approx polarizability:  27.673   0.000  45.754   0.000   0.000  74.223

                      1                      2                      3
                     B2                     A1                     A1
 Frequencies --    760.5053               833.0376              1411.5049
 Red. masses --     12.8565                16.2440                12.0796
 Frc consts  --      4.3810                 6.6416                14.1797
 IR Inten    --     45.7681                 4.1117                22.8681

 - Thermochemistry -
 -------------------
 Temperature   298.150 Kelvin.  Pressure   1.00000 Atm.
 Atom     1 has atomic number 16 and mass  31.97207

 Molecular mass:    55.97207 amu.
 Principal axes and moments of inertia in atomic units:
                           1         2         3
     Eigenvalues --    40.11072 121.15802 161.26874
           X            0.00000   0.00000   1.00000
           Y            0.00000   1.00000  -0.00000
           Z            1.00000  -0.00000  -0.00000
 This molecule is an asymmetric top.
 Rotational symmetry number  2.
 Rotational temperatures (Kelvin)      2.15937     0.71488     0.53708
 Rotational constants (GHZ):          44.99399    14.89576    11.19089
 Zero-point vibrational energy      17974.2 (Joules/Mol)
                                    4.29593 (Kcal/Mol)
 Vibrational temperatures:   1094.20  1198.55  2030.84
          (Kelvin)

 Zero-point correction=                           0.006846 (Hartree/Particle)
 Thermal correction to Energy=                    0.009846
 Thermal correction to Enthalpy=                  0.010790
 Thermal correction to Gibbs Free Energy=        -0.017967
 Sum of electronic and zero-point Energies=           -473.196360
 Sum of electronic and thermal Energies=              -473.193360
 Sum of electronic and thermal Enthalpies=            -473.192416
 Sum of electronic and thermal Free Energies=         -473.221172

                     E (Thermal)             CV                S
                      KCal/Mol        Cal/Mol-Kelvin    Cal/Mol-Kelvin
 Total                    6.178              7.379             60.523
 Electronic               0.000              0.000              2.183
 Translational            0.889              2.981             37.988
 Rotational               0.889              2.981             19.910
 Vibrational              4.401              1.418              0.441

 Optimization completed.
    -- Stationary point found.
 Normal termination of Gaussian 09 at Wed Aug  3 22:56:48 2016.
