 Gaussian 09, Revision E.01,
 Gaussian 09:  EM64L-G09RevE.01 30-Nov-2015

 ------------------------------
 #p b3lyp/6-311++G(3df,2p) freq
 ------------------------------

 ---------
 b3lyp opt
 ---------
 Symbolic Z-matrix:
 Charge =  1 Multiplicity = 4

                         Standard orientation:
 ---------------------------------------------------------------------
 Center     Atomic      Atomic             Coordinates (Angstroms)
 Number     Number       Type             X           Y           Z
 ---------------------------------------------------------------------
      1         16           0       -0.000000   -0.000000   -0.937296
      2          6           0        0.000000    0.000000    1.884324
      3          6           0        0.000000    0.000000    0.615133
 ---------------------------------------------------------------------

 SCF Done:  E(UB3LYP) =  -473.902944421     A.U. after   13 cycles

 The electronic state is 4-SG.
 Alpha  occ. eigenvalues --  -89.20933 -10.58869 -10.53457  -8.29027  -6.25312
 Alpha  occ. eigenvalues --   -6.25312  -6.24916  -1.14241  -1.05424  -0.76867
 Alpha  occ. eigenvalues --   -0.69974  -0.67463  -0.67463  -0.56616  -0.56616
 Alpha virt. eigenvalues --   -0.28308  -0.28308  -0.18799  -0.17191  -0.10840
 Alpha virt. eigenvalues --   -0.10464  -0.10464  -0.07090  -0.06491  -0.06491
 Alpha virt. eigenvalues --   -0.05744  -0.05743  -0.01843  -0.00379  -0.00257

  Beta  occ. eigenvalues --  -89.20148 -10.54974 -10.53595  -8.28318  -6.24453
  Beta  occ. eigenvalues --   -6.23887  -6.23887  -1.11606  -0.98958  -0.73197
  Beta  occ. eigenvalues --   -0.63220  -0.63220
  Beta virt. eigenvalues --   -0.45760  -0.43147  -0.43147  -0.22509  -0.22509
  Beta virt. eigenvalues --   -0.17091  -0.16795  -0.09841  -0.09784  -0.09784
  Beta virt. eigenvalues --   -0.06178  -0.05885  -0.05885  -0.03080  -0.03079

 Mulliken charges and spin densities:
               1          2
     1  S    0.263075   1.191289
     2  C    0.354346   2.011675
     3  C    0.382580  -0.202964
 Sum of Mulliken charges =   1.00000   3.00000

 Dipole moment (field-independent basis, Debye):
    X=              0.0000    Y=              0.0000    Z=              1.3174  Tot=              1.3174
 Quadrupole moment (field-independent basis, Debye-Ang):
   XX=            -20.4163   YY=            -20.4163   ZZ=             -7.7379
   XY=             -0.0000   XZ=              0.0000   YZ=             -0.0000

  Exact polarizability:  21.259  -0.000  21.259   0.000   0.000  55.174
 Approx polarizability:  30.960   0.000  30.960   0.000   0.000 124.221

                      1                      2                      3
                     PI                     PI                     SG
 Frequencies --    365.2089               365.2089               908.2406
 Red. masses --     12.4276                12.4276                16.2050
 Frc consts  --      0.9766                 0.9766                 7.8759
 IR Inten    --      5.1703                 5.1703                 0.0268

                      4
                     SG
 Frequencies --   1700.7647
 Red. masses --     12.1012
 Frc consts  --     20.6237
 IR Inten    --     46.7287

 - Thermochemistry -
 -------------------
 Temperature   298.150 Kelvin.  Pressure   1.00000 Atm.
 Atom     1 has atomic number 16 and mass  31.97207

 Molecular mass:    55.97207 amu.
 Principal axes and moments of inertia in atomic units:
                           1         2         3
     Eigenvalues --     0.00000 268.67635 268.67635
           X            0.00000   0.24252   0.97015
           Y            0.00000   0.97015  -0.24252
           Z            1.00000  -0.00000   0.00000
 This molecule is a prolate symmetric top.
 Rotational symmetry number  1.
 Rotational temperature (Kelvin)      0.32237
 Rotational constant (GHZ):           6.717157
 Zero-point vibrational energy      19974.2 (Joules/Mol)
                                    4.77394 (Kcal/Mol)
 Warning -- explicit consideration of   2 degrees of freedom as
           vibrations may cause significant error
 Vibrational temperatures:    525.45   525.45  1306.75  2447.02
          (Kelvin)

 Zero-point correction=                           0.007608 (Hartree/Particle)
 Thermal correction to Energy=                    0.010712
 Thermal correction to Enthalpy=                  0.011656
 Thermal correction to Gibbs Free Energy=        -0.016206
 Sum of electronic and zero-point Energies=           -473.895337
 Sum of electronic and thermal Energies=              -473.892232
 Sum of electronic and thermal Enthalpies=            -473.891288
 Sum of electronic and thermal Free Energies=         -473.919151

                     E (Thermal)             CV                S
                      KCal/Mol        Cal/Mol-Kelvin    Cal/Mol-Kelvin
 Total                    6.722              8.581             58.642
 Electronic               0.000              0.000              2.755
 Translational            0.889              2.981             37.988
 Rotational               0.592              1.987             15.559
 Vibrational              5.241              3.613              2.340
 Vibration     1          0.738              1.544              1.100
 Vibration     2          0.738              1.544              1.100

 Optimization completed.
    -- Stationary point found.
 Normal termination of Gaussian 09 at Wed Aug  3 20:45:59 2016.
