 Gaussian 09, Revision E.01,
 Gaussian 09:  EM64L-G09RevE.01 30-Nov-2015

 ------------------------------
 #p b3lyp/6-311++G(3df,2p) freq
 ------------------------------

 ---------
 b3lyp opt
 ---------
 Symbolic Z-matrix:
 Charge =  0 Multiplicity = 3

                         Standard orientation:
 ---------------------------------------------------------------------
 Center     Atomic      Atomic             Coordinates (Angstroms)
 Number     Number       Type             X           Y           Z
 ---------------------------------------------------------------------
      1         16           0       -0.000000   -0.000000    0.512871
      2          6           0        0.000000   -1.180013   -0.683828
      3          6           0        0.000000    1.180013   -0.683828
 ---------------------------------------------------------------------

 SCF Done:  E(UB3LYP) =  -474.141417438     A.U. after   13 cycles

 The electronic state is 3-A2.
 Alpha  occ. eigenvalues --  -88.94749 -10.29211 -10.29210  -8.03273  -5.99253
 Alpha  occ. eigenvalues --   -5.99209  -5.99112  -0.90369  -0.67097  -0.54717
 Alpha  occ. eigenvalues --   -0.41070  -0.36050  -0.34719  -0.28303  -0.24966
 Alpha virt. eigenvalues --   -0.13330  -0.12787  -0.00999   0.00846   0.02273
 Alpha virt. eigenvalues --    0.03845   0.06298   0.07320   0.08182   0.08866
 Alpha virt. eigenvalues --    0.09402   0.09748   0.11843   0.14162   0.14943

  Beta  occ. eigenvalues --  -88.94859 -10.27667 -10.27666  -8.03347  -5.99459
  Beta  occ. eigenvalues --   -5.99381  -5.99131  -0.88513  -0.61982  -0.51656
  Beta  occ. eigenvalues --   -0.39071  -0.34026  -0.31797
  Beta virt. eigenvalues --   -0.16538  -0.12046  -0.09020  -0.08051   0.00931
  Beta virt. eigenvalues --    0.01918   0.02631   0.03920   0.06499   0.07363
  Beta virt. eigenvalues --    0.08257   0.09462   0.10240   0.10525   0.12321

 Mulliken charges and spin densities:
               1          2
     1  S    0.148894  -0.018469
     2  C   -0.074447   1.009234
     3  C   -0.074447   1.009234
 Sum of Mulliken charges =  -0.00000   2.00000

 Dipole moment (field-independent basis, Debye):
    X=             -0.0000    Y=              0.0000    Z=              2.4451  Tot=              2.4451
 Quadrupole moment (field-independent basis, Debye-Ang):
   XX=            -24.5971   YY=            -28.0102   ZZ=            -25.9610
   XY=             -0.0000   XZ=              0.0000   YZ=              0.0000

  Exact polarizability:  32.139   0.000  62.182   0.000  -0.000  41.162
 Approx polarizability:  47.204   0.000 161.294  -0.000  -0.000  73.644

                      1                      2                      3
                     A1                     B2                     A1
 Frequencies --    271.4716               372.3254               909.1368
 Red. masses --     13.4280                14.4357                14.3114
 Frc consts  --      0.5831                 1.1791                 6.9693
 IR Inten    --      9.9033                 0.9504                22.6946

 - Thermochemistry -
 -------------------
 Temperature   298.150 Kelvin.  Pressure   1.00000 Atm.
 Atom     1 has atomic number 16 and mass  31.97207

 Molecular mass:    55.97207 amu.
 Principal axes and moments of inertia in atomic units:
                           1         2         3
     Eigenvalues --    70.10977 119.33906 189.44883
           X            0.00000  -0.00000   1.00000
           Y            1.00000   0.00000  -0.00000
           Z           -0.00000   1.00000   0.00000
 This molecule is an asymmetric top.
 Rotational symmetry number  2.
 Rotational temperatures (Kelvin)      1.23540     0.72578     0.45719
 Rotational constants (GHZ):          25.74165    15.12280     9.52627
 Zero-point vibrational energy       9288.6 (Joules/Mol)
                                    2.22003 (Kcal/Mol)
 Warning -- explicit consideration of   2 degrees of freedom as
           vibrations may cause significant error
 Vibrational temperatures:    390.59   535.69  1308.04
          (Kelvin)

 Zero-point correction=                           0.003538 (Hartree/Particle)
 Thermal correction to Energy=                    0.007217
 Thermal correction to Enthalpy=                  0.008161
 Thermal correction to Gibbs Free Energy=        -0.022045
 Sum of electronic and zero-point Energies=           -474.137880
 Sum of electronic and thermal Energies=              -474.134201
 Sum of electronic and thermal Enthalpies=            -474.133256
 Sum of electronic and thermal Free Energies=         -474.163462

                     E (Thermal)             CV                S
                      KCal/Mol        Cal/Mol-Kelvin    Cal/Mol-Kelvin
 Total                    4.529              9.704             63.573
 Electronic               0.000              0.000              2.183
 Translational            0.889              2.981             37.988
 Rotational               0.889              2.981             20.610
 Vibrational              2.751              3.743              2.792
 Vibration     1          0.675              1.726              1.587
 Vibration     2          0.744              1.529              1.070

 Optimization completed.
    -- Stationary point found.
 Normal termination of Gaussian 09 at Wed Aug  3 22:54:08 2016.
