 Gaussian 09, Revision E.01,
 Gaussian 09:  EM64L-G09RevE.01 30-Nov-2015

 ------------------------------
 #p b3lyp/6-311++G(3df,2p) freq
 ------------------------------

 ---------
 b3lyp opt
 ---------
 Symbolic Z-matrix:
 Charge =  0 Multiplicity = 1

                         Standard orientation:
 ---------------------------------------------------------------------
 Center     Atomic      Atomic             Coordinates (Angstroms)
 Number     Number       Type             X           Y           Z
 ---------------------------------------------------------------------
      1         16           0        0.000000    0.000000   -0.953461
      2          6           0       -0.000000    0.000000    1.926679
      3          6           0       -0.000000   -0.000000    0.615883
 ---------------------------------------------------------------------

 SCF Done:  E(RB3LYP) =  -474.256170174     A.U. after   12 cycles

 Unable to determine electronic state:  partially filled degenerate orbitals.
 Alpha  occ. eigenvalues --  -88.93316 -10.25794 -10.25044  -8.01744  -5.98184
 Alpha  occ. eigenvalues --   -5.97814  -5.97072  -0.86389  -0.74542  -0.50087
 Alpha  occ. eigenvalues --   -0.39521  -0.39151  -0.32022  -0.25947
 Alpha virt. eigenvalues --   -0.21478  -0.01265  -0.01013  -0.00737   0.01662
 Alpha virt. eigenvalues --    0.04620   0.04925   0.05462   0.08772   0.08952
 Alpha virt. eigenvalues --    0.08954   0.12967   0.14310   0.14713   0.15352

 Mulliken charges:
               1
     1  S   -0.110764
     2  C   -0.235604
     3  C    0.346368
 Sum of Mulliken charges =   0.00000

 Dipole moment (field-independent basis, Debye):
    X=              0.0000    Y=             -0.0000    Z=             -2.8491  Tot=              2.8491
 Quadrupole moment (field-independent basis, Debye-Ang):
   XX=            -26.2181   YY=            -22.0065   ZZ=            -29.6289
   XY=              0.0000   XZ=             -0.0000   YZ=             -0.0000

  Exact polarizability:  30.961  -0.000  30.616  -0.000   0.000  71.328
 Approx polarizability:  43.721  -0.000  48.846  -0.000   0.000 157.968

                      1                      2                      3
                     PI                     PI                     SG
 Frequencies --    218.9004               355.1968               860.6509
 Red. masses --     12.4395                12.4395                15.9833
 Frc consts  --      0.3512                 0.9247                 6.9754
 IR Inten    --     20.3482                 0.0751                13.9096

                      4
                     SG
 Frequencies --   1744.5157
 Red. masses --     12.2278
 Frc consts  --     21.9255
 IR Inten    --     56.6684

 - Thermochemistry -
 -------------------
 Temperature   298.150 Kelvin.  Pressure   1.00000 Atm.
 Atom     1 has atomic number 16 and mass  31.97207

 Molecular mass:    55.97207 amu.
 Principal axes and moments of inertia in atomic units:
                           1         2         3
     Eigenvalues --     0.00000 279.12247 279.12247
           X           -0.00000   1.00000   0.00001
           Y            0.00000  -0.00001   1.00000
           Z            1.00000   0.00000   0.00000
 This molecule is a prolate symmetric top.
 Rotational symmetry number  1.
 Rotational temperature (Kelvin)      0.31031
 Rotational constant (GHZ):           6.465768
 Zero-point vibrational energy      19016.2 (Joules/Mol)
                                    4.54499 (Kcal/Mol)
 Warning -- explicit consideration of   2 degrees of freedom as
           vibrations may cause significant error
 Vibrational temperatures:    314.95   511.05  1238.28  2509.97
          (Kelvin)

 Zero-point correction=                           0.007243 (Hartree/Particle)
 Thermal correction to Energy=                    0.010555
 Thermal correction to Enthalpy=                  0.011499
 Thermal correction to Gibbs Free Energy=        -0.015537
 Sum of electronic and zero-point Energies=           -474.248927
 Sum of electronic and thermal Energies=              -474.245615
 Sum of electronic and thermal Enthalpies=            -474.244671
 Sum of electronic and thermal Free Energies=         -474.271707

                     E (Thermal)             CV                S
                      KCal/Mol        Cal/Mol-Kelvin    Cal/Mol-Kelvin
 Total                    6.623              8.932             56.902
 Electronic               0.000              0.000              0.000
 Translational            0.889              2.981             37.988
 Rotational               0.592              1.987             15.635
 Vibrational              5.142              3.964              3.279
 Vibration     1          0.647              1.812              1.968
 Vibration     2          0.731              1.565              1.143

 Optimization completed.
    -- Stationary point found.
 Normal termination of Gaussian 09 at Wed Aug  3 22:54:01 2016.
