 Gaussian 09, Revision E.01,
 Gaussian 09:  EM64L-G09RevE.01 30-Nov-2015

 ------------------------------
 #p b3lyp/6-311++G(3df,2p) freq
 ------------------------------

 ---------
 b3lyp opt
 ---------
 Symbolic Z-matrix:
 Charge =  1 Multiplicity = 4

                         Standard orientation:
 ---------------------------------------------------------------------
 Center     Atomic      Atomic             Coordinates (Angstroms)
 Number     Number       Type             X           Y           Z
 ---------------------------------------------------------------------
      1         16           0        0.000000    0.000000    0.721529
      2          6           0       -0.000000    0.648442   -0.962039
      3          6           0       -0.000000   -0.648442   -0.962039
 ---------------------------------------------------------------------

 SCF Done:  E(UB3LYP) =  -473.851573294     A.U. after   13 cycles

 The electronic state is 4-A2.
 Alpha  occ. eigenvalues --  -89.23793 -10.58881 -10.58771  -8.31584  -6.27902
 Alpha  occ. eigenvalues --   -6.27824  -6.27545  -1.23379  -0.96713  -0.80434
 Alpha  occ. eigenvalues --   -0.71179  -0.70595  -0.65476  -0.59619  -0.54521
 Alpha virt. eigenvalues --   -0.32583  -0.29010  -0.26373  -0.15697  -0.11548
 Alpha virt. eigenvalues --   -0.11545  -0.10517  -0.09228  -0.08435  -0.06262
 Alpha virt. eigenvalues --   -0.06232  -0.05992  -0.01485  -0.00493  -0.00472

  Beta  occ. eigenvalues --  -89.22968 -10.56889 -10.56799  -8.30837  -6.27153
  Beta  occ. eigenvalues --   -6.26545  -6.26105  -1.20079  -0.90800  -0.72439
  Beta  occ. eigenvalues --   -0.67666  -0.65331
  Beta virt. eigenvalues --   -0.47121  -0.44500  -0.41820  -0.27352  -0.24292
  Beta virt. eigenvalues --   -0.23621  -0.14763  -0.11278  -0.10624  -0.09916
  Beta virt. eigenvalues --   -0.08272  -0.07603  -0.05716  -0.05581  -0.04327

 Mulliken charges and spin densities:
               1          2
     1  S    0.410372   1.177008
     2  C    0.294814   0.911496
     3  C    0.294814   0.911496
 Sum of Mulliken charges =   1.00000   3.00000

 Dipole moment (field-independent basis, Debye):
    X=             -0.0000    Y=             -0.0000    Z=             -0.3659  Tot=              0.3659
 Quadrupole moment (field-independent basis, Debye-Ang):
   XX=            -20.7161   YY=            -18.3029   ZZ=            -14.9983
   XY=             -0.0000   XZ=              0.0000   YZ=              0.0000

  Exact polarizability:  21.895   0.000  28.801   0.000   0.000  39.285
 Approx polarizability:  32.811   0.000  60.072   0.000   0.000  79.662

                      1                      2                      3
                     B2                     A1                     A1
 Frequencies --    494.5196               704.3427              1664.4239
 Red. masses --     12.7014                16.3682                12.0118
 Frc consts  --      1.8301                 4.7843                19.6058
 IR Inten    --     19.7521                 0.3916                 3.4597

 - Thermochemistry -
 -------------------
 Temperature   298.150 Kelvin.  Pressure   1.00000 Atm.
 Atom     1 has atomic number 16 and mass  31.97207

 Molecular mass:    55.97207 amu.
 Principal axes and moments of inertia in atomic units:
                           1         2         3
     Eigenvalues --    36.03717 138.76176 174.79893
           X            0.00000   0.00000   1.00000
           Y            0.00000   1.00000  -0.00000
           Z            1.00000  -0.00000  -0.00000
 This molecule is an asymmetric top.
 Rotational symmetry number  2.
 Rotational temperatures (Kelvin)      2.40346     0.62419     0.49551
 Rotational constants (GHZ):          50.08000    13.00604    10.32467
 Zero-point vibrational energy      17126.3 (Joules/Mol)
                                    4.09327 (Kcal/Mol)
 Warning -- explicit consideration of   1 degrees of freedom as
           vibrations may cause significant error
 Vibrational temperatures:    711.50  1013.39  2394.73
          (Kelvin)

 Zero-point correction=                           0.006523 (Hartree/Particle)
 Thermal correction to Energy=                    0.009697
 Thermal correction to Enthalpy=                  0.010641
 Thermal correction to Gibbs Free Energy=        -0.018694
 Sum of electronic and zero-point Energies=           -473.845050
 Sum of electronic and thermal Energies=              -473.841876
 Sum of electronic and thermal Enthalpies=            -473.840932
 Sum of electronic and thermal Free Energies=         -473.870267

                     E (Thermal)             CV                S
                      KCal/Mol        Cal/Mol-Kelvin    Cal/Mol-Kelvin
 Total                    6.085              8.086             61.741
 Electronic               0.000              0.000              2.755
 Translational            0.889              2.981             37.988
 Rotational               0.889              2.981             20.019
 Vibrational              4.308              2.125              0.979
 Vibration     1          0.850              1.262              0.672

 Optimization completed.
    -- Stationary point found.
 Normal termination of Gaussian 09 at Wed Aug  3 22:56:47 2016.
