 Gaussian 09, Revision E.01,
 Gaussian 09:  EM64L-G09RevE.01 30-Nov-2015

 ------------------------------
 #p b3lyp/6-311++G(3df,2p) freq
 ------------------------------

 ---------
 b3lyp opt
 ---------
 Symbolic Z-matrix:
 Charge =  2 Multiplicity = 1

                         Standard orientation:
 ---------------------------------------------------------------------
 Center     Atomic      Atomic             Coordinates (Angstroms)
 Number     Number       Type             X           Y           Z
 ---------------------------------------------------------------------
      1         16           0        0.000000    0.000000    0.479028
      2          6           0       -0.000000    1.355954   -0.638704
      3          6           0       -0.000000   -1.355954   -0.638704
 ---------------------------------------------------------------------

 SCF Done:  E(RB3LYP) =  -473.131397888     A.U. after   11 cycles

 The electronic state is 1-A1.
 Alpha  occ. eigenvalues --  -89.52507 -10.97647 -10.97646  -8.60617  -6.56692
 Alpha  occ. eigenvalues --   -6.56569  -6.56477  -1.44053  -1.24407  -1.07219
 Alpha  occ. eigenvalues --   -0.92630  -0.91175  -0.90472
 Alpha virt. eigenvalues --   -0.74905  -0.73940  -0.71591  -0.65438  -0.51752
 Alpha virt. eigenvalues --   -0.48346  -0.36240  -0.29789  -0.28576  -0.27519
 Alpha virt. eigenvalues --   -0.26986  -0.26639  -0.26373  -0.22749  -0.21583

 Mulliken charges:
               1
     1  S    0.480781
     2  C    0.759609
     3  C    0.759609
 Sum of Mulliken charges =   2.00000

 Dipole moment (field-independent basis, Debye):
    X=             -0.0000    Y=              0.0000    Z=             -1.1621  Tot=              1.1621
 Quadrupole moment (field-independent basis, Debye-Ang):
   XX=            -18.0891   YY=             -7.1545   ZZ=            -13.8325
   XY=              0.0000   XZ=              0.0000   YZ=              0.0000

  Exact polarizability:  20.913  -0.000  47.560  -0.000  -0.000  27.358
 Approx polarizability:  34.526   0.000 164.796   0.000  -0.000  61.556

                      1                      2                      3
                     A1                     B2                     A1
 Frequencies --    259.8431               690.5057               781.6871
 Red. masses --     13.6710                14.8691                14.0452
 Frc consts  --      0.5438                 4.1770                 5.0564
 IR Inten    --      1.4807               493.0127                63.5809

 - Thermochemistry -
 -------------------
 Temperature   298.150 Kelvin.  Pressure   1.00000 Atm.
 Atom     1 has atomic number 16 and mass  31.97207

 Molecular mass:    55.97207 amu.
 Principal axes and moments of inertia in atomic units:
                           1         2         3
     Eigenvalues --    61.16223 157.57910 218.74133
           X            0.00000   0.00000   1.00000
           Y            1.00000   0.00000  -0.00000
           Z           -0.00000   1.00000  -0.00000
 This molecule is an asymmetric top.
 Rotational symmetry number  2.
 Rotational temperatures (Kelvin)      1.41613     0.54965     0.39596
 Rotational constants (GHZ):          29.50745    11.45292     8.25057
 Zero-point vibrational energy      10359.9 (Joules/Mol)
                                    2.47607 (Kcal/Mol)
 Warning -- explicit consideration of   1 degrees of freedom as
           vibrations may cause significant error
 Vibrational temperatures:    373.86   993.48  1124.67
          (Kelvin)

 Zero-point correction=                           0.003946 (Hartree/Particle)
 Thermal correction to Energy=                    0.007452
 Thermal correction to Enthalpy=                  0.008396
 Thermal correction to Gibbs Free Energy=        -0.020628
 Sum of electronic and zero-point Energies=           -473.127452
 Sum of electronic and thermal Energies=              -473.123946
 Sum of electronic and thermal Enthalpies=            -473.123002
 Sum of electronic and thermal Free Energies=         -473.152026

                     E (Thermal)             CV                S
                      KCal/Mol        Cal/Mol-Kelvin    Cal/Mol-Kelvin
 Total                    4.676              9.237             61.085
 Electronic               0.000              0.000              0.000
 Translational            0.889              2.981             37.988
 Rotational               0.889              2.981             20.894
 Vibrational              2.899              3.275              2.203
 Vibration     1          0.668              1.746              1.663

 Optimization completed.
    -- Stationary point found.
 Normal termination of Gaussian 09 at Wed Aug  3 22:56:35 2016.
