 Gaussian 09, Revision E.01,
 Gaussian 09:  EM64L-G09RevE.01 30-Nov-2015

 ------------------------------
 #p b3lyp/6-311++G(3df,2p) freq
 ------------------------------

 ---------
 b3lyp opt
 ---------
 Symbolic Z-matrix:
 Charge =  1 Multiplicity = 2

                         Standard orientation:
 ---------------------------------------------------------------------
 Center     Atomic      Atomic             Coordinates (Angstroms)
 Number     Number       Type             X           Y           Z
 ---------------------------------------------------------------------
      1         16           0       -0.000000    0.000000   -0.944945
      2          6           0        0.000000   -0.000000    1.948467
      3          6           0        0.000000   -0.000000    0.571385
 ---------------------------------------------------------------------

 SCF Done:  E(UB3LYP) =  -473.905257702     A.U. after   15 cycles

 Unable to determine electronic state:  an orbital has unidentified symmetry.
 Alpha  occ. eigenvalues --  -89.23825 -10.57744 -10.55105  -8.31944  -6.28157
 Alpha  occ. eigenvalues --   -6.27999  -6.27782  -1.15827  -1.03483  -0.78249
 Alpha  occ. eigenvalues --   -0.68284  -0.66894  -0.59866  -0.55137
 Alpha virt. eigenvalues --   -0.47658  -0.30220  -0.28308  -0.19971  -0.18425
 Alpha virt. eigenvalues --   -0.11023  -0.11012  -0.10986  -0.07170  -0.07127
 Alpha virt. eigenvalues --   -0.06459  -0.06362  -0.05884  -0.02414  -0.01483

  Beta  occ. eigenvalues --  -89.23509 -10.56900 -10.55094  -8.31660  -6.27952
  Beta  occ. eigenvalues --   -6.27617  -6.27041  -1.14889  -1.00893  -0.76927
  Beta  occ. eigenvalues --   -0.66570  -0.64947  -0.58371
  Beta virt. eigenvalues --   -0.46796  -0.44232  -0.27867  -0.25805  -0.19244
  Beta virt. eigenvalues --   -0.18277  -0.11006  -0.10782  -0.10548  -0.06352
  Beta virt. eigenvalues --   -0.06030  -0.06017  -0.05968  -0.05829  -0.02061

 Mulliken charges and spin densities:
               1          2
     1  S    0.327598   0.469232
     2  C    0.211614   0.491588
     3  C    0.460788   0.039180
 Sum of Mulliken charges =   1.00000   1.00000

 Dipole moment (field-independent basis, Debye):
    X=             -0.0000    Y=              0.0000    Z=             -1.2102  Tot=              1.2102
 Quadrupole moment (field-independent basis, Debye-Ang):
   XX=            -20.9795   YY=            -19.1675   ZZ=            -14.8254
   XY=              0.0000   XZ=             -0.0000   YZ=              0.0000

  Exact polarizability:  24.154   0.000  23.930   0.000  -0.000  57.000
 Approx polarizability:  34.403  -0.000  38.111   0.000  -0.000 139.242

                      1                      2                      3
                     PI                     PI                     SG
 Frequencies --    180.1246               261.3914               861.1816
 Red. masses --     12.4878                12.4878                15.1641
 Frc consts  --      0.2387                 0.5027                 6.6261
 IR Inten    --      8.3081                 1.9919                60.1354

                      4
                     SG
 Frequencies --   1582.8449
 Red. masses --     12.7550
 Frc consts  --     18.8282
 IR Inten    --    129.9640

 - Thermochemistry -
 -------------------
 Temperature   298.150 Kelvin.  Pressure   1.00000 Atm.
 Atom     1 has atomic number 16 and mass  31.97207

 Molecular mass:    55.97207 amu.
 Principal axes and moments of inertia in atomic units:
                           1         2         3
     Eigenvalues --     0.00000 278.63080 278.63080
           X            0.00000   0.99779  -0.06640
           Y           -0.00000   0.06640   0.99779
           Z            1.00000  -0.00000   0.00000
 This molecule is a prolate symmetric top.
 Rotational symmetry number  1.
 Rotational temperature (Kelvin)      0.31086
 Rotational constant (GHZ):           6.477178
 Zero-point vibrational energy      17259.4 (Joules/Mol)
                                    4.12509 (Kcal/Mol)
 Warning -- explicit consideration of   2 degrees of freedom as
           vibrations may cause significant error
 Vibrational temperatures:    259.16   376.08  1239.05  2277.36
          (Kelvin)

 Zero-point correction=                           0.006574 (Hartree/Particle)
 Thermal correction to Energy=                    0.010063
 Thermal correction to Enthalpy=                  0.011008
 Thermal correction to Gibbs Free Energy=        -0.017095
 Sum of electronic and zero-point Energies=           -473.898684
 Sum of electronic and thermal Energies=              -473.895194
 Sum of electronic and thermal Enthalpies=            -473.894250
 Sum of electronic and thermal Free Energies=         -473.922353

                     E (Thermal)             CV                S
                      KCal/Mol        Cal/Mol-Kelvin    Cal/Mol-Kelvin
 Total                    6.315              9.189             59.148
 Electronic               0.000              0.000              1.377
 Translational            0.889              2.981             37.988
 Rotational               0.592              1.987             15.631
 Vibrational              4.834              4.221              4.151
 Vibration     1          0.629              1.867              2.327
 Vibration     2          0.669              1.743              1.652

 Optimization completed.
    -- Stationary point found.
 Normal termination of Gaussian 09 at Wed Aug  3 22:54:14 2016.
