 Gaussian 09, Revision E.01,
 Gaussian 09:  EM64L-G09RevE.01 30-Nov-2015

 ------------------------------
 #p b3lyp/6-311++G(3df,2p) freq
 ------------------------------

 ---------
 b3lyp opt
 ---------
 Symbolic Z-matrix:
 Charge =  1 Multiplicity = 4

                         Standard orientation:
 ---------------------------------------------------------------------
 Center     Atomic      Atomic             Coordinates (Angstroms)
 Number     Number       Type             X           Y           Z
 ---------------------------------------------------------------------
      1         16           0       -0.000000   -0.000000    0.000000
      2          6           0        0.000000   -0.000000    1.616607
      3          6           0        0.000000   -0.000000   -1.616607
 ---------------------------------------------------------------------

 SCF Done:  E(UB3LYP) =  -473.729163169     A.U. after   11 cycles

 The electronic state is 4-SGU.
 Alpha  occ. eigenvalues --  -89.24484 -10.61199 -10.61191  -8.32635  -6.29065
 Alpha  occ. eigenvalues --   -6.28349  -6.28349  -1.17683  -1.03445  -0.75398
 Alpha  occ. eigenvalues --   -0.67817  -0.67817  -0.66708  -0.56481  -0.56481
 Alpha virt. eigenvalues --   -0.37121  -0.35533  -0.35533  -0.15677  -0.10992
 Alpha virt. eigenvalues --   -0.10992  -0.10949  -0.08116  -0.06928  -0.06928
 Alpha virt. eigenvalues --   -0.06064  -0.06064  -0.03761  -0.00285  -0.00285

  Beta  occ. eigenvalues --  -89.24786 -10.58391 -10.58386  -8.32919  -6.28943
  Beta  occ. eigenvalues --   -6.28943  -6.28912  -1.15552  -0.96929  -0.65623
  Beta  occ. eigenvalues --   -0.65623  -0.64196
  Beta virt. eigenvalues --   -0.50452  -0.41734  -0.41734  -0.33673  -0.28143
  Beta virt. eigenvalues --   -0.28143  -0.14552  -0.10471  -0.10471  -0.09977
  Beta virt. eigenvalues --   -0.07599  -0.07598  -0.07551  -0.05335  -0.05335

 Mulliken charges and spin densities:
               1          2
     1  S    0.042822  -0.043638
     2  C    0.478589   1.521819
     3  C    0.478589   1.521819
 Sum of Mulliken charges =   1.00000   3.00000

 Dipole moment (field-independent basis, Debye):
    X=              0.0000    Y=             -0.0000    Z=             -0.0000  Tot=              0.0000
 Quadrupole moment (field-independent basis, Debye-Ang):
   XX=            -20.9089   YY=            -20.9089   ZZ=            -11.2862
   XY=              0.0000   XZ=              0.0000   YZ=              0.0000

  Exact polarizability:  22.849  -0.000  22.849  -0.000  -0.000  85.537
 Approx polarizability:  35.606  -0.000  35.606  -0.000  -0.000 271.062

                      1                      2                      3
                     PIU                    PIU                    SGU
 Frequencies --    120.7703               120.7703               648.6269
 Red. masses --     16.3901                16.3901                16.3901
 Frc consts  --      0.1408                 0.1408                 4.0628
 IR Inten    --      6.3135                 6.3135                80.4012

                      4
                     SGG
 Frequencies --    859.5979
 Red. masses --     12.0000
 Frc consts  --      5.2242
 IR Inten    --      0.0000

 - Thermochemistry -
 -------------------
 Temperature   298.150 Kelvin.  Pressure   1.00000 Atm.
 Atom     1 has atomic number 16 and mass  31.97207

 Molecular mass:    55.97207 amu.
 Principal axes and moments of inertia in atomic units:
                           1         2         3
     Eigenvalues --     0.00000 223.98440 223.98440
           X           -0.00000   1.00000   0.00000
           Y            0.00000  -0.00000   1.00000
           Z            1.00000   0.00000   0.00000
 This molecule is a prolate symmetric top.
 Rotational symmetry number  2.
 Rotational temperature (Kelvin)      0.38670
 Rotational constant (GHZ):           8.057441
 Zero-point vibrational energy      10465.9 (Joules/Mol)
                                    2.50142 (Kcal/Mol)
 Warning -- explicit consideration of   2 degrees of freedom as
           vibrations may cause significant error
 Vibrational temperatures:    173.76   173.76   933.23  1236.77
          (Kelvin)

 Zero-point correction=                           0.003986 (Hartree/Particle)
 Thermal correction to Energy=                    0.007936
 Thermal correction to Enthalpy=                  0.008880
 Thermal correction to Gibbs Free Energy=        -0.020234
 Sum of electronic and zero-point Energies=           -473.725177
 Sum of electronic and thermal Energies=              -473.721227
 Sum of electronic and thermal Enthalpies=            -473.720283
 Sum of electronic and thermal Free Energies=         -473.749397

                     E (Thermal)             CV                S
                      KCal/Mol        Cal/Mol-Kelvin    Cal/Mol-Kelvin
 Total                    4.980             10.320             61.276
 Electronic               0.000              0.000              2.755
 Translational            0.889              2.981             37.988
 Rotational               0.592              1.987             13.820
 Vibrational              3.499              5.352              6.713
 Vibration     1          0.609              1.932              3.088
 Vibration     2          0.609              1.932              3.088

 Optimization completed.
    -- Stationary point found.
 Normal termination of Gaussian 09 at Wed Aug  3 22:56:43 2016.
