 Gaussian 09, Revision E.01,
 Gaussian 09:  EM64L-G09RevE.01 30-Nov-2015

 ------------------------------
 #p b3lyp/6-311++G(3df,2p) freq
 ------------------------------

 ---------
 b3lyp opt
 ---------
 Symbolic Z-matrix:
 Charge =  2 Multiplicity = 1

                         Standard orientation:
 ---------------------------------------------------------------------
 Center     Atomic      Atomic             Coordinates (Angstroms)
 Number     Number       Type             X           Y           Z
 ---------------------------------------------------------------------
      1         16           0        0.000000   -0.000000   -0.954609
      2          6           0       -0.000000    0.000000    2.006230
      3          6           0       -0.000000    0.000000    0.539393
 ---------------------------------------------------------------------

 SCF Done:  E(RB3LYP) =  -473.252184475     A.U. after   12 cycles

 The electronic state is 1-SG.
 Alpha  occ. eigenvalues --  -89.55661 -10.96279 -10.84959  -8.63146  -6.59259
 Alpha  occ. eigenvalues --   -6.59259  -6.58898  -1.44194  -1.31253  -1.05573
 Alpha  occ. eigenvalues --   -0.94140  -0.94140  -0.90138
 Alpha virt. eigenvalues --   -0.75360  -0.75360  -0.58041  -0.58041  -0.46058
 Alpha virt. eigenvalues --   -0.39821  -0.30627  -0.30626  -0.28423  -0.28108
 Alpha virt. eigenvalues --   -0.28108  -0.26958  -0.23046  -0.23046  -0.21447

 Mulliken charges:
               1
     1  S    0.711784
     2  C    0.764364
     3  C    0.523852
 Sum of Mulliken charges =   2.00000

 Dipole moment (field-independent basis, Debye):
    X=             -0.0000    Y=              0.0000    Z=              1.5101  Tot=              1.5101
 Quadrupole moment (field-independent basis, Debye-Ang):
   XX=            -17.0525   YY=            -17.0525   ZZ=              0.6081
   XY=              0.0000   XZ=             -0.0000   YZ=              0.0000

  Exact polarizability:  19.656  -0.000  19.656   0.000  -0.000  48.993
 Approx polarizability:  31.012  -0.000  31.012  -0.000   0.000 147.255

                      1                      2                      3
                     PI                     PI                     SG
 Frequencies --    200.2988               200.2988               778.7573
 Red. masses --     12.5356                12.5356                14.6227
 Frc consts  --      0.2963                 0.2963                 5.2249
 IR Inten    --      0.4148                 0.4148               217.8061

                      4
                     SG
 Frequencies --   1618.9812
 Red. masses --     13.1650
 Frc consts  --     20.3309
 IR Inten    --    556.1840

 - Thermochemistry -
 -------------------
 Temperature   298.150 Kelvin.  Pressure   1.00000 Atm.
 Atom     1 has atomic number 16 and mass  31.97207

 Molecular mass:    55.97207 amu.
 Principal axes and moments of inertia in atomic units:
                           1         2         3
     Eigenvalues --     0.00000 288.99287 288.99287
           X           -0.00000   0.70715   0.70706
           Y            0.00000  -0.70706   0.70715
           Z            1.00000   0.00000   0.00000
 This molecule is a prolate symmetric top.
 Rotational symmetry number  1.
 Rotational temperature (Kelvin)      0.29971
 Rotational constant (GHZ):           6.244933
 Zero-point vibrational energy      16737.8 (Joules/Mol)
                                    4.00042 (Kcal/Mol)
 Warning -- explicit consideration of   2 degrees of freedom as
           vibrations may cause significant error
 Vibrational temperatures:    288.19   288.19  1120.46  2329.35
          (Kelvin)

 Zero-point correction=                           0.006375 (Hartree/Particle)
 Thermal correction to Energy=                    0.009944
 Thermal correction to Enthalpy=                  0.010888
 Thermal correction to Gibbs Free Energy=        -0.016758
 Sum of electronic and zero-point Energies=           -473.245809
 Sum of electronic and thermal Energies=              -473.242241
 Sum of electronic and thermal Enthalpies=            -473.241296
 Sum of electronic and thermal Free Energies=         -473.268942

                     E (Thermal)             CV                S
                      KCal/Mol        Cal/Mol-Kelvin    Cal/Mol-Kelvin
 Total                    6.240              9.382             58.185
 Electronic               0.000              0.000              0.000
 Translational            0.889              2.981             37.988
 Rotational               0.592              1.987             15.704
 Vibrational              4.759              4.414              4.493
 Vibration     1          0.638              1.839              2.130
 Vibration     2          0.638              1.839              2.130

 Optimization completed.
    -- Stationary point found.
 Normal termination of Gaussian 09 at Wed Aug  3 22:56:40 2016.
