 Gaussian 09, Revision E.01,
 Gaussian 09:  EM64L-G09RevE.01 30-Nov-2015

 ------------------------------
 #p b3lyp/6-311++G(3df,2p) freq
 ------------------------------

 ---------
 b3lyp opt
 ---------
 Symbolic Z-matrix:
 Charge =  0 Multiplicity = 3

                         Standard orientation:
 ---------------------------------------------------------------------
 Center     Atomic      Atomic             Coordinates (Angstroms)
 Number     Number       Type             X           Y           Z
 ---------------------------------------------------------------------
      1         16           0       -0.000000   -0.000000   -0.951454
      2          6           0        0.000000    0.000000    1.922517
      3          6           0        0.000000    0.000000    0.614694
 ---------------------------------------------------------------------

 SCF Done:  E(UB3LYP) =  -474.288177296     A.U. after   15 cycles

 The electronic state is 3-SG.
 Alpha  occ. eigenvalues --  -88.93561 -10.25764 -10.24584  -8.01996  -5.98160
 Alpha  occ. eigenvalues --   -5.98160  -5.97947  -0.87525  -0.76599  -0.51335
 Alpha  occ. eigenvalues --   -0.41341  -0.41341  -0.32613  -0.28898  -0.28898
 Alpha virt. eigenvalues --   -0.02536  -0.02536  -0.00862   0.01415   0.04442
 Alpha virt. eigenvalues --    0.04442   0.05289   0.08688   0.08688   0.08857
 Alpha virt. eigenvalues --    0.12907   0.14504   0.14504   0.15318   0.16133

  Beta  occ. eigenvalues --  -88.92969 -10.25469 -10.23266  -8.01462  -5.97641
  Beta  occ. eigenvalues --   -5.97066  -5.97066  -0.85315  -0.71781  -0.48792
  Beta  occ. eigenvalues --   -0.37358  -0.37358  -0.30183
  Beta virt. eigenvalues --   -0.18100  -0.18100  -0.00585   0.00680   0.00680
  Beta virt. eigenvalues --    0.01874   0.05428   0.05428   0.05919   0.09354
  Beta virt. eigenvalues --    0.09387   0.09387   0.13152   0.14702   0.14702

 Mulliken charges and spin densities:
               1          2
     1  S   -0.089578   0.978208
     2  C   -0.279584   0.795485
     3  C    0.369162   0.226307
 Sum of Mulliken charges =  -0.00000   2.00000

 Dipole moment (field-independent basis, Debye):
    X=             -0.0000    Y=             -0.0000    Z=             -3.0921  Tot=              3.0921
 Quadrupole moment (field-independent basis, Debye-Ang):
   XX=            -23.9601   YY=            -23.9601   ZZ=            -29.7426
   XY=             -0.0000   XZ=             -0.0000   YZ=             -0.0000

  Exact polarizability:  31.519   0.000  31.519   0.000  -0.000  72.560
 Approx polarizability:  45.060   0.000  45.060   0.000   0.000 142.827

                      1                      2                      3
                     PI                     PI                     SG
 Frequencies --    285.1993               285.1993               867.4417
 Red. masses --     12.4393                12.4393                15.9788
 Frc consts  --      0.5961                 0.5961                 7.0839
 IR Inten    --      7.5458                 7.5458                12.3822

                      4
                     SG
 Frequencies --   1728.6485
 Red. masses --     12.2305
 Frc consts  --     21.5332
 IR Inten    --     50.2072

 - Thermochemistry -
 -------------------
 Temperature   298.150 Kelvin.  Pressure   1.00000 Atm.
 Atom     1 has atomic number 16 and mass  31.97207

 Molecular mass:    55.97207 amu.
 Principal axes and moments of inertia in atomic units:
                           1         2         3
     Eigenvalues --     0.00000 277.93693 277.93693
           X            0.00000   0.24253   0.97014
           Y            0.00000   0.97014  -0.24253
           Z            1.00000  -0.00000   0.00000
 This molecule is a prolate symmetric top.
 Rotational symmetry number  1.
 Rotational temperature (Kelvin)      0.31163
 Rotational constant (GHZ):           6.493348
 Zero-point vibrational energy      18939.8 (Joules/Mol)
                                    4.52672 (Kcal/Mol)
 Warning -- explicit consideration of   2 degrees of freedom as
           vibrations may cause significant error
 Vibrational temperatures:    410.34   410.34  1248.05  2487.14
          (Kelvin)

 Zero-point correction=                           0.007214 (Hartree/Particle)
 Thermal correction to Energy=                    0.010515
 Thermal correction to Enthalpy=                  0.011459
 Thermal correction to Gibbs Free Energy=        -0.016557
 Sum of electronic and zero-point Energies=           -474.280964
 Sum of electronic and thermal Energies=              -474.277662
 Sum of electronic and thermal Enthalpies=            -474.276718
 Sum of electronic and thermal Free Energies=         -474.304735

                     E (Thermal)             CV                S
                      KCal/Mol        Cal/Mol-Kelvin    Cal/Mol-Kelvin
 Total                    6.598              8.949             58.966
 Electronic               0.000              0.000              2.183
 Translational            0.889              2.981             37.988
 Rotational               0.592              1.987             15.626
 Vibrational              5.117              3.981              3.168
 Vibration     1          0.683              1.701              1.502
 Vibration     2          0.683              1.701              1.502

 Optimization completed.
    -- Stationary point found.
 Normal termination of Gaussian 09 at Wed Aug  3 20:44:45 2016.
