 Gaussian 09, Revision E.01,
 Gaussian 09:  EM64L-G09RevE.01 30-Nov-2015

 ------------------------------
 #p b3lyp/6-311++G(3df,2p) freq
 ------------------------------

 ---------
 b3lyp opt
 ---------
 Symbolic Z-matrix:
 Charge =  0 Multiplicity = 3

                         Standard orientation:
 ---------------------------------------------------------------------
 Center     Atomic      Atomic             Coordinates (Angstroms)
 Number     Number       Type             X           Y           Z
 ---------------------------------------------------------------------
      1         16           0        0.000000    0.000000   -0.000000
      2          6           0       -0.000000    0.000000    1.636742
      3          6           0        0.000000    0.000000   -1.636742
 ---------------------------------------------------------------------

 SCF Done:  E(UB3LYP) =  -474.143626546     A.U. after   11 cycles

 The electronic state is 3-SGG.
 Alpha  occ. eigenvalues --  -88.95393 -10.30181 -10.30175  -8.04002  -6.00015
 Alpha  occ. eigenvalues --   -5.99835  -5.99835  -0.89932  -0.74948  -0.45462
 Alpha  occ. eigenvalues --   -0.41476  -0.41476  -0.35010  -0.28482  -0.28482
 Alpha virt. eigenvalues --   -0.10800  -0.08984  -0.08984   0.02607   0.03415
 Alpha virt. eigenvalues --    0.04309   0.04309   0.06585   0.08796   0.08796
 Alpha virt. eigenvalues --    0.11259   0.13492   0.13492   0.15420   0.15421

  Beta  occ. eigenvalues --  -88.95647 -10.28579 -10.28575  -8.04197  -6.00237
  Beta  occ. eigenvalues --   -6.00237  -6.00146  -0.88251  -0.69930  -0.41359
  Beta  occ. eigenvalues --   -0.39408  -0.39408  -0.32418
  Beta virt. eigenvalues --   -0.16200  -0.16200  -0.09954  -0.03589  -0.03589
  Beta virt. eigenvalues --    0.02861   0.03642   0.04959   0.04959   0.06617
  Beta virt. eigenvalues --    0.09461   0.09461   0.11527   0.13774   0.13774

 Mulliken charges and spin densities:
               1          2
     1  S   -0.045452  -0.101337
     2  C    0.022726   1.050669
     3  C    0.022726   1.050669
 Sum of Mulliken charges =  -0.00000   2.00000

 Dipole moment (field-independent basis, Debye):
    X=             -0.0000    Y=             -0.0000    Z=             -0.0000  Tot=              0.0000
 Quadrupole moment (field-independent basis, Debye-Ang):
   XX=            -24.2237   YY=            -24.2237   ZZ=            -30.9345
   XY=             -0.0000   XZ=              0.0000   YZ=              0.0000

  Exact polarizability:  32.122  -0.000  32.122   0.000  -0.000  80.221
 Approx polarizability:  48.911   0.000  48.911  -0.000   0.000 225.838

                      1                      2                      3
                     PIU                    PIU                    SGU
 Frequencies --     67.5479                67.5479               729.0705
 Red. masses --     16.3901                16.3901                16.3901
 Frc consts  --      0.0441                 0.0441                 5.1330
 IR Inten    --      2.6219                 2.6219                36.5039

                      4
                     SGG
 Frequencies --    832.4371
 Red. masses --     12.0000
 Frc consts  --      4.8993
 IR Inten    --      0.0000

 - Thermochemistry -
 -------------------
 Temperature   298.150 Kelvin.  Pressure   1.00000 Atm.
 Atom     1 has atomic number 16 and mass  31.97207

 Molecular mass:    55.97207 amu.
 Principal axes and moments of inertia in atomic units:
                           1         2         3
     Eigenvalues --     0.00000 229.59879 229.59879
           X           -0.00000   1.00000  -0.00000
           Y            0.00000   0.00000   1.00000
           Z            1.00000   0.00000  -0.00000
 This molecule is a prolate symmetric top.
 Rotational symmetry number  2.
 Rotational temperature (Kelvin)      0.37724
 Rotational constant (GHZ):           7.860413
 Zero-point vibrational energy      10147.9 (Joules/Mol)
                                    2.42542 (Kcal/Mol)
 Warning -- explicit consideration of   2 degrees of freedom as
           vibrations may cause significant error
 Vibrational temperatures:     97.19    97.19  1048.97  1197.69
          (Kelvin)

 Zero-point correction=                           0.003865 (Hartree/Particle)
 Thermal correction to Energy=                    0.007994
 Thermal correction to Enthalpy=                  0.008938
 Thermal correction to Gibbs Free Energy=        -0.020969
 Sum of electronic and zero-point Energies=           -474.139761
 Sum of electronic and thermal Energies=              -474.135633
 Sum of electronic and thermal Enthalpies=            -474.134688
 Sum of electronic and thermal Free Energies=         -474.164595

                     E (Thermal)             CV                S
                      KCal/Mol        Cal/Mol-Kelvin    Cal/Mol-Kelvin
 Total                    5.016             10.281             62.944
 Electronic               0.000              0.000              2.183
 Translational            0.889              2.981             37.988
 Rotational               0.592              1.987             13.869
 Vibrational              3.535              5.313              8.903
 Vibration     1          0.598              1.970              4.224
 Vibration     2          0.598              1.970              4.224

 Optimization completed.
    -- Stationary point found.
 Normal termination of Gaussian 09 at Wed Aug  3 22:53:57 2016.
