 Gaussian 09, Revision E.01,
 Gaussian 09:  EM64L-G09RevE.01 30-Nov-2015

 ------------------------------
 #p b3lyp/6-311++G(3df,2p) freq
 ------------------------------

 ---------
 b3lyp opt
 ---------
 Symbolic Z-matrix:
 Charge =  0 Multiplicity = 1

                         Standard orientation:
 ---------------------------------------------------------------------
 Center     Atomic      Atomic             Coordinates (Angstroms)
 Number     Number       Type             X           Y           Z
 ---------------------------------------------------------------------
      1         16           0       -0.000000   -0.000000    0.675843
      2          6           0        0.000000    0.716996   -0.901124
      3          6           0       -0.000000   -0.716996   -0.901124
 ---------------------------------------------------------------------

 SCF Done:  E(RB3LYP) =  -474.239648123     A.U. after   10 cycles

 The electronic state is 1-A1.
 Alpha  occ. eigenvalues --  -88.95239 -10.26281 -10.26242  -8.03600  -5.99928
 Alpha  occ. eigenvalues --   -5.99580  -5.99138  -0.94730  -0.64445  -0.51283
 Alpha  occ. eigenvalues --   -0.41719  -0.40377  -0.29673  -0.27801
 Alpha virt. eigenvalues --   -0.17592  -0.05705  -0.02255  -0.00293   0.02107
 Alpha virt. eigenvalues --    0.03686   0.05271   0.06640   0.07890   0.08519
 Alpha virt. eigenvalues --    0.09282   0.10833   0.11160   0.13864   0.16351

 Mulliken charges:
               1
     1  S    0.155059
     2  C   -0.077530
     3  C   -0.077530
 Sum of Mulliken charges =  -0.00000

 Dipole moment (field-independent basis, Debye):
    X=              0.0000    Y=              0.0000    Z=              2.4254  Tot=              2.4254
 Quadrupole moment (field-independent basis, Debye-Ang):
   XX=            -22.4143   YY=            -29.0449   ZZ=            -25.1884
   XY=             -0.0000   XZ=             -0.0000   YZ=             -0.0000

  Exact polarizability:  28.841   0.000  37.129   0.000  -0.000  49.245
 Approx polarizability:  48.392   0.000  58.380   0.000   0.000 111.887

                      1                      2                      3
                     A1                     B2                     A1
 Frequencies --    724.2850               765.1660              1184.5406
 Red. masses --     15.6592                12.9196                12.4246
 Frc consts  --      4.8399                 4.4567                10.2714
 IR Inten    --     14.2837                 8.6145                21.2857

 - Thermochemistry -
 -------------------
 Temperature   298.150 Kelvin.  Pressure   1.00000 Atm.
 Atom     1 has atomic number 16 and mass  31.97207

 Molecular mass:    55.97207 amu.
 Principal axes and moments of inertia in atomic units:
                           1         2         3
     Eigenvalues --    44.05981 121.74568 165.80549
           X            0.00000  -0.00000   1.00000
           Y           -0.00000   1.00000   0.00000
           Z            1.00000   0.00000  -0.00000
 This molecule is an asymmetric top.
 Rotational symmetry number  2.
 Rotational temperatures (Kelvin)      1.96582     0.71143     0.52238
 Rotational constants (GHZ):          40.96116    14.82386    10.88469
 Zero-point vibrational energy      15994.0 (Joules/Mol)
                                    3.82266 (Kcal/Mol)
 Vibrational temperatures:   1042.08  1100.90  1704.29
          (Kelvin)

 Zero-point correction=                           0.006092 (Hartree/Particle)
 Thermal correction to Energy=                    0.009135
 Thermal correction to Enthalpy=                  0.010079
 Thermal correction to Gibbs Free Energy=        -0.017757
 Sum of electronic and zero-point Energies=           -474.233556
 Sum of electronic and thermal Energies=              -474.230514
 Sum of electronic and thermal Enthalpies=            -474.229569
 Sum of electronic and thermal Free Energies=         -474.257405

                     E (Thermal)             CV                S
                      KCal/Mol        Cal/Mol-Kelvin    Cal/Mol-Kelvin
 Total                    5.732              7.670             58.585
 Electronic               0.000              0.000              0.000
 Translational            0.889              2.981             37.988
 Rotational               0.889              2.981             20.036
 Vibrational              3.955              1.708              0.560

 Optimization completed.
    -- Stationary point found.
 Normal termination of Gaussian 09 at Wed Aug  3 22:53:51 2016.
