 Gaussian 09, Revision E.01,
 Gaussian 09:  EM64L-G09RevE.01 30-Nov-2015

 ------------------------------
 #p b3lyp/6-311++G(3df,2p) freq
 ------------------------------

 ---------
 b3lyp opt
 ---------
 Symbolic Z-matrix:
 Charge =  2 Multiplicity = 3

                         Standard orientation:
 ---------------------------------------------------------------------
 Center     Atomic      Atomic             Coordinates (Angstroms)
 Number     Number       Type             X           Y           Z
 ---------------------------------------------------------------------
      1         16           0       -0.000000   -0.000000   -0.937401
      2          6           0        0.000000    0.000000    1.904947
      3          6           0        0.000000    0.000000    0.594788
 ---------------------------------------------------------------------

 SCF Done:  E(UB3LYP) =  -473.229879245     A.U. after   17 cycles

 Unable to determine electronic state:  an orbital has unidentified symmetry.
 Alpha  occ. eigenvalues --  -89.55171 -10.95687 -10.84672  -8.62534  -6.58772
 Alpha  occ. eigenvalues --   -6.58677  -6.58351  -1.44211  -1.35184  -1.05756
 Alpha  occ. eigenvalues --   -0.99624  -0.96480  -0.94704  -0.85701
 Alpha virt. eigenvalues --   -0.77899  -0.57864  -0.56750  -0.45053  -0.38050
 Alpha virt. eigenvalues --   -0.30195  -0.30067  -0.27845  -0.27746  -0.27698
 Alpha virt. eigenvalues --   -0.23607  -0.23470  -0.23359  -0.22134  -0.17114

  Beta  occ. eigenvalues --  -89.54898 -10.92048 -10.84578  -8.62294  -6.58928
  Beta  occ. eigenvalues --   -6.58165  -6.57571  -1.42850  -1.30557  -1.03544
  Beta  occ. eigenvalues --   -0.93934  -0.92309
  Beta virt. eigenvalues --   -0.75115  -0.74897  -0.72039  -0.53362  -0.51576
  Beta virt. eigenvalues --   -0.44140  -0.37822  -0.29291  -0.29214  -0.27725
  Beta virt. eigenvalues --   -0.27161  -0.26928  -0.23244  -0.22586  -0.21949

 Mulliken charges and spin densities:
               1          2
     1  S    0.681121   0.362074
     2  C    0.758718   1.679143
     3  C    0.560161  -0.041217
 Sum of Mulliken charges =   2.00000   2.00000

 Dipole moment (field-independent basis, Debye):
    X=              0.0000    Y=              0.0000    Z=              2.8594  Tot=              2.8594
 Quadrupole moment (field-independent basis, Debye-Ang):
   XX=            -16.4620   YY=            -18.1311   ZZ=              4.9741
   XY=              0.0000   XZ=              0.0000   YZ=              0.0000

  Exact polarizability:  17.628   0.000  17.010  -0.000  -0.000  48.369
 Approx polarizability:  26.850   0.000  24.275   0.000   0.000 144.883

                      1                      2                      3
                     PI                     PI                     SG
 Frequencies --    274.2473               348.9911               908.8811
 Red. masses --     12.4527                12.4527                15.9070
 Frc consts  --      0.5518                 0.8936                 7.7420
 IR Inten    --      4.9014                 8.5893                 6.2782

                      4
                     SG
 Frequencies --   1606.1598
 Red. masses --     12.2729
 Frc consts  --     18.6541
 IR Inten    --    278.3939

 - Thermochemistry -
 -------------------
 Temperature   298.150 Kelvin.  Pressure   1.00000 Atm.
 Atom     1 has atomic number 16 and mass  31.97207

 Molecular mass:    55.97207 amu.
 Principal axes and moments of inertia in atomic units:
                           1         2         3
     Eigenvalues --     0.00000 270.99253 270.99253
           X            0.00000   0.24259   0.97013
           Y            0.00000   0.97013  -0.24259
           Z            1.00000  -0.00000   0.00000
 This molecule is a prolate symmetric top.
 Rotational symmetry number  1.
 Rotational temperature (Kelvin)      0.31962
 Rotational constant (GHZ):           6.659745
 Zero-point vibrational energy      18771.1 (Joules/Mol)
                                    4.48640 (Kcal/Mol)
 Warning -- explicit consideration of   2 degrees of freedom as
           vibrations may cause significant error
 Vibrational temperatures:    394.58   502.12  1307.68  2310.90
          (Kelvin)

 Zero-point correction=                           0.007150 (Hartree/Particle)
 Thermal correction to Energy=                    0.010381
 Thermal correction to Enthalpy=                  0.011325
 Thermal correction to Gibbs Free Energy=        -0.016532
 Sum of electronic and zero-point Energies=           -473.222730
 Sum of electronic and thermal Energies=              -473.219498
 Sum of electronic and thermal Enthalpies=            -473.218554
 Sum of electronic and thermal Free Energies=         -473.246411

                     E (Thermal)             CV                S
                      KCal/Mol        Cal/Mol-Kelvin    Cal/Mol-Kelvin
 Total                    6.514              8.806             58.630
 Electronic               0.000              0.000              2.183
 Translational            0.889              2.981             37.988
 Rotational               0.592              1.987             15.576
 Vibrational              5.033              3.838              2.882
 Vibration     1          0.677              1.721              1.569
 Vibration     2          0.726              1.577              1.171

 Optimization completed.
    -- Stationary point found.
 Normal termination of Gaussian 09 at Wed Aug  3 20:46:06 2016.
