 Gaussian 09, Revision E.01,
 Gaussian 09:  EM64L-G09RevE.01 30-Nov-2015

 ------------------------------
 #p b3lyp/6-311++G(3df,2p) freq
 ------------------------------

 ---------
 b3lyp opt
 ---------
 Symbolic Z-matrix:
 Charge =  2 Multiplicity = 1

                         Standard orientation:
 ---------------------------------------------------------------------
 Center     Atomic      Atomic             Coordinates (Angstroms)
 Number     Number       Type             X           Y           Z
 ---------------------------------------------------------------------
      1         16           0       -0.000000    0.000000    0.652779
      2          6           0        0.000000    0.654387   -0.870372
      3          6           0       -0.000000   -0.654387   -0.870372
 ---------------------------------------------------------------------

 SCF Done:  E(RB3LYP) =  -473.174324240     A.U. after   11 cycles

 The electronic state is 1-A1.
 Alpha  occ. eigenvalues --  -89.64952 -10.91038 -10.90936  -8.71845  -6.68130
 Alpha  occ. eigenvalues --   -6.67980  -6.67518  -1.60516  -1.26104  -1.11299
 Alpha  occ. eigenvalues --   -1.02842  -1.02132  -0.89169
 Alpha virt. eigenvalues --   -0.80163  -0.75727  -0.60588  -0.56266  -0.49828
 Alpha virt. eigenvalues --   -0.37973  -0.33313  -0.31947  -0.31038  -0.29792
 Alpha virt. eigenvalues --   -0.28349  -0.26017  -0.25864  -0.21961  -0.21923

 Mulliken charges:
               1
     1  S    0.914007
     2  C    0.542996
     3  C    0.542996
 Sum of Mulliken charges =   2.00000

 Dipole moment (field-independent basis, Debye):
    X=             -0.0000    Y=              0.0000    Z=             -0.2082  Tot=              0.2082
 Quadrupole moment (field-independent basis, Debye-Ang):
   XX=            -16.5562   YY=            -15.5502   ZZ=             -8.3641
   XY=             -0.0000   XZ=              0.0000   YZ=             -0.0000

  Exact polarizability:  17.089   0.000  30.060   0.000   0.000  27.288
 Approx polarizability:  27.201   0.000 104.725   0.000   0.000  65.046

                      1                      2                      3
                     B2                     A1                     A1
 Frequencies --    373.8254               994.4371              1607.3647
 Red. masses --     12.8399                16.3791                12.0059
 Frc consts  --      1.0572                 9.5432                18.2756
 IR Inten    --    123.6279                 6.5523                70.3211

 - Thermochemistry -
 -------------------
 Temperature   298.150 Kelvin.  Pressure   1.00000 Atm.
 Atom     1 has atomic number 16 and mass  31.97207

 Molecular mass:    55.97207 amu.
 Principal axes and moments of inertia in atomic units:
                           1         2         3
     Eigenvalues --    36.70100 113.57812 150.27912
           X            0.00000   0.00000   1.00000
           Y            0.00000   1.00000   0.00000
           Z            1.00000   0.00000   0.00000
 This molecule is an asymmetric top.
 Rotational symmetry number  2.
 Rotational temperatures (Kelvin)      2.35999     0.76259     0.57635
 Rotational constants (GHZ):          49.17417    15.88987    12.00926
 Zero-point vibrational energy      17798.2 (Joules/Mol)
                                    4.25387 (Kcal/Mol)
 Warning -- explicit consideration of   1 degrees of freedom as
           vibrations may cause significant error
 Vibrational temperatures:    537.85  1430.77  2312.64
          (Kelvin)

 Zero-point correction=                           0.006779 (Hartree/Particle)
 Thermal correction to Energy=                    0.009988
 Thermal correction to Enthalpy=                  0.010932
 Thermal correction to Gibbs Free Energy=        -0.017026
 Sum of electronic and zero-point Energies=           -473.167545
 Sum of electronic and thermal Energies=              -473.164336
 Sum of electronic and thermal Enthalpies=            -473.163392
 Sum of electronic and thermal Free Energies=         -473.191350

                     E (Thermal)             CV                S
                      KCal/Mol        Cal/Mol-Kelvin    Cal/Mol-Kelvin
 Total                    6.268              7.922             58.843
 Electronic               0.000              0.000              0.000
 Translational            0.889              2.981             37.988
 Rotational               0.889              2.981             19.688
 Vibrational              4.490              1.960              1.167
 Vibration     1          0.745              1.526              1.064

 Optimization completed.
    -- Stationary point found.
 Normal termination of Gaussian 09 at Wed Aug  3 22:56:34 2016.
