 Gaussian 09, Revision E.01,
 Gaussian 09:  EM64L-G09RevE.01 30-Nov-2015

 ------------------------------
 #p b3lyp/6-311++G(3df,2p) freq
 ------------------------------

 ---------
 b3lyp opt
 ---------
 Symbolic Z-matrix:
 Charge =  1 Multiplicity = 4

                         Standard orientation:
 ---------------------------------------------------------------------
 Center     Atomic      Atomic             Coordinates (Angstroms)
 Number     Number       Type             X           Y           Z
 ---------------------------------------------------------------------
      1         16           0        0.845173   -1.032755   -0.000000
      2         16           0       -0.713314    1.715663   -0.000000
      3          6           0        0.000000    0.385661   -0.000000
      4          6           0       -0.351623   -2.206747    0.000000
 ---------------------------------------------------------------------

 SCF Done:  E(UB3LYP) =  -872.102582482     A.U. after   19 cycles

 The electronic state is 4-A".
 Alpha  occ. eigenvalues --  -89.18346 -89.15211 -10.52895 -10.51253  -8.26301
 Alpha  occ. eigenvalues --   -8.23599  -6.22694  -6.22337  -6.21869  -6.19760
 Alpha  occ. eigenvalues --   -6.19588  -6.19406  -1.13192  -1.06532  -0.89865
 Alpha  occ. eigenvalues --   -0.74480  -0.68639  -0.64602  -0.63861  -0.57875
 Alpha  occ. eigenvalues --   -0.56832  -0.49839  -0.44952
 Alpha virt. eigenvalues --   -0.34921  -0.31034  -0.19992  -0.16863  -0.15448
 Alpha virt. eigenvalues --   -0.11645  -0.10952  -0.09976  -0.08873  -0.07566
 Alpha virt. eigenvalues --   -0.07205  -0.06278  -0.05371  -0.05343  -0.02675

  Beta  occ. eigenvalues --  -89.18242 -89.15036 -10.52607 -10.46981  -8.26177
  Beta  occ. eigenvalues --   -8.23440  -6.22487  -6.22025  -6.21893  -6.19513
  Beta  occ. eigenvalues --   -6.19470  -6.19032  -1.11492  -1.04904  -0.84097
  Beta  occ. eigenvalues --   -0.71498  -0.66502  -0.62826  -0.59021  -0.53874
  Beta virt. eigenvalues --   -0.42147  -0.34306  -0.32861  -0.30717  -0.25480
  Beta virt. eigenvalues --   -0.18033  -0.15427  -0.14101  -0.11185  -0.10706
  Beta virt. eigenvalues --   -0.09835  -0.07451  -0.07159  -0.07065  -0.05184

 Mulliken charges and spin densities:
               1          2
     1  S    0.122569   0.210485
     2  S    0.187044   0.269171
     3  C    0.549252   0.090436
     4  C    0.141135   2.429907
 Sum of Mulliken charges =   1.00000   3.00000

 Dipole moment (field-independent basis, Debye):
    X=             -0.2625    Y=              0.1700    Z=             -0.0000  Tot=              0.3127
 Quadrupole moment (field-independent basis, Debye-Ang):
   XX=            -28.6445   YY=            -16.9671   ZZ=            -33.8434
   XY=             -4.0065   XZ=              0.0000   YZ=              0.0000

  Exact polarizability:  46.084 -13.270  97.080   0.000  -0.000  34.031
 Approx polarizability:  88.972 -38.309 218.579  -0.000  -0.000  52.738

                      1                      2                      3
                     A'                     A"                     A'
 Frequencies --    156.3505               315.5828               446.9016
 Red. masses --     14.2889                13.2667                14.2677
 Frc consts  --      0.2058                 0.7785                 1.6789
 IR Inten    --      0.0049                 3.1224                 6.0655

                      4                      5                      6
                     A'                     A'                     A'
 Frequencies --    598.9577               788.6203              1499.1820
 Red. masses --     26.3237                14.2164                13.5551
 Frc consts  --      5.5640                 5.2093                17.9499
 IR Inten    --      1.3688                23.6222               176.0068

 - Thermochemistry -
 -------------------
 Temperature   298.150 Kelvin.  Pressure   1.00000 Atm.
 Atom     1 has atomic number 16 and mass  31.97207

 Molecular mass:    87.94414 amu.
 Principal axes and moments of inertia in atomic units:
                           1         2         3
     Eigenvalues --    74.00059 743.85187 817.85246
           X           -0.32545   0.94556   0.00000
           Y            0.94556   0.32545   0.00000
           Z           -0.00000  -0.00000   1.00000
 This molecule is an asymmetric top.
 Rotational symmetry number  1.
 Rotational temperatures (Kelvin)      1.17045     0.11644     0.10590
 Rotational constants (GHZ):          24.38820     2.42621     2.20668
 Zero-point vibrational energy      22762.5 (Joules/Mol)
                                    5.44037 (Kcal/Mol)
 Warning -- explicit consideration of   4 degrees of freedom as
           vibrations may cause significant error
 Vibrational temperatures:    224.95   454.05   642.99   861.77  1134.65
          (Kelvin)           2156.99

 Zero-point correction=                           0.008670 (Hartree/Particle)
 Thermal correction to Energy=                    0.013049
 Thermal correction to Enthalpy=                  0.013994
 Thermal correction to Gibbs Free Energy=        -0.020603
 Sum of electronic and zero-point Energies=           -872.093913
 Sum of electronic and thermal Energies=              -872.089533
 Sum of electronic and thermal Enthalpies=            -872.088589
 Sum of electronic and thermal Free Energies=         -872.123185

                     E (Thermal)             CV                S
                      KCal/Mol        Cal/Mol-Kelvin    Cal/Mol-Kelvin
 Total                    8.189             12.648             72.814
 Electronic               0.000              0.000              2.755
 Translational            0.889              2.981             39.335
 Rotational               0.889              2.981             25.313
 Vibrational              6.411              6.686              5.412
 Vibration     1          0.620              1.896              2.593
 Vibration     2          0.703              1.644              1.333
 Vibration     3          0.806              1.368              0.805
 Vibration     4          0.957              1.034              0.451

 Optimization completed.
    -- Stationary point found.
 Normal termination of Gaussian 09 at Wed Aug  3 22:53:02 2016.
