 Gaussian 09, Revision E.01,
 Gaussian 09:  EM64L-G09RevE.01 30-Nov-2015

 ------------------------------
 #p b3lyp/6-311++G(3df,2p) freq
 ------------------------------

 ---------
 b3lyp opt
 ---------
 Symbolic Z-matrix:
 Charge =  2 Multiplicity = 3

                         Standard orientation:
 ---------------------------------------------------------------------
 Center     Atomic      Atomic             Coordinates (Angstroms)
 Number     Number       Type             X           Y           Z
 ---------------------------------------------------------------------
      1         16           0       -0.000000    0.794383   -0.000000
      2         16           0       -1.457310   -0.556046    0.000000
      3          6           0        1.373966   -0.077842   -0.000000
      4          6           0        2.512195   -0.557722   -0.000000
 ---------------------------------------------------------------------

 SCF Done:  E(UB3LYP) =  -871.536039095     A.U. after   27 cycles

 The electronic state is 3-A'.
 Alpha  occ. eigenvalues --  -89.47508 -89.45700 -10.78886 -10.71483  -8.55044
 Alpha  occ. eigenvalues --   -8.53273  -6.51187  -6.51132  -6.50826  -6.50083
 Alpha  occ. eigenvalues --   -6.49240  -6.48707  -1.38233  -1.27833  -1.19210
 Alpha  occ. eigenvalues --   -0.99983  -0.90893  -0.88062  -0.87899  -0.81076
 Alpha  occ. eigenvalues --   -0.79276  -0.79112
 Alpha virt. eigenvalues --   -0.66753  -0.54362  -0.46501  -0.45823  -0.42370
 Alpha virt. eigenvalues --   -0.34436  -0.29444  -0.28375  -0.26859  -0.26391
 Alpha virt. eigenvalues --   -0.26300  -0.24700  -0.23368  -0.21206  -0.20365

  Beta  occ. eigenvalues --  -89.47458 -89.45332 -10.75942 -10.71186  -8.54996
  Beta  occ. eigenvalues --   -8.52935  -6.51151  -6.51039  -6.50754  -6.49155
  Beta  occ. eigenvalues --   -6.49082  -6.48218  -1.37458  -1.24614  -1.16675
  Beta  occ. eigenvalues --   -0.98517  -0.89901  -0.87778  -0.77592  -0.77181
  Beta virt. eigenvalues --   -0.67813  -0.65472  -0.63774  -0.52415  -0.43904
  Beta virt. eigenvalues --   -0.42095  -0.40415  -0.34255  -0.29598  -0.28171
  Beta virt. eigenvalues --   -0.26217  -0.25777  -0.25714  -0.24251  -0.22398

 Mulliken charges and spin densities:
               1          2
     1  S    0.085676   0.099217
     2  S    0.754554   0.566061
     3  C    0.505548  -0.027806
     4  C    0.654222   1.362528
 Sum of Mulliken charges =   2.00000   2.00000

 Dipole moment (field-independent basis, Debye):
    X=              1.4743    Y=             -0.9404    Z=             -0.0000  Tot=              1.7487
 Quadrupole moment (field-independent basis, Debye-Ang):
   XX=              0.6864   YY=            -23.7154   ZZ=            -29.2698
   XY=             -0.6105   XZ=             -0.0000   YZ=              0.0000

  Exact polarizability:  89.622   1.275  39.607  -0.000   0.000  28.213
 Approx polarizability: 267.241  10.123  79.555  -0.000  -0.000  44.833

                      1                      2                      3
                     A'                     A"                     A'
 Frequencies --    104.3572               278.9476               316.3629
 Red. masses --     17.7318                12.2688                13.1467
 Frc consts  --      0.1138                 0.5625                 0.7752
 IR Inten    --      0.5295                 4.6872                 9.6809

                      4                      5                      6
                     A'                     A'                     A'
 Frequencies --    494.0934               789.9870              2011.5592
 Red. masses --     30.8957                16.1662                12.0559
 Frc consts  --      4.4439                 5.9443                28.7419
 IR Inten    --      2.6797                 1.8797               461.4121

 - Thermochemistry -
 -------------------
 Temperature   298.150 Kelvin.  Pressure   1.00000 Atm.
 Atom     1 has atomic number 16 and mass  31.97207

 Molecular mass:    87.94414 amu.
 Principal axes and moments of inertia in atomic units:
                           1         2         3
     Eigenvalues --   119.29963 595.46378 714.76341
           X            0.99828  -0.05868   0.00000
           Y            0.05868   0.99828   0.00000
           Z            0.00000  -0.00000   1.00000
 This molecule is an asymmetric top.
 Rotational symmetry number  1.
 Rotational temperatures (Kelvin)      0.72602     0.14546     0.12118
 Rotational constants (GHZ):          15.12780     3.03082     2.52495
 Zero-point vibrational energy      23897.2 (Joules/Mol)
                                    5.71158 (Kcal/Mol)
 Warning -- explicit consideration of   4 degrees of freedom as
           vibrations may cause significant error
 Vibrational temperatures:    150.15   401.34   455.18   710.89  1136.61
          (Kelvin)           2894.18

 Zero-point correction=                           0.009102 (Hartree/Particle)
 Thermal correction to Energy=                    0.013818
 Thermal correction to Enthalpy=                  0.014763
 Thermal correction to Gibbs Free Energy=        -0.020436
 Sum of electronic and zero-point Energies=           -871.526937
 Sum of electronic and thermal Energies=              -871.522221
 Sum of electronic and thermal Enthalpies=            -871.521276
 Sum of electronic and thermal Free Energies=         -871.556475

                     E (Thermal)             CV                S
                      KCal/Mol        Cal/Mol-Kelvin    Cal/Mol-Kelvin
 Total                    8.671             13.204             74.081
 Electronic               0.000              0.000              2.183
 Translational            0.889              2.981             39.335
 Rotational               0.889              2.981             25.432
 Vibrational              6.894              7.243              7.130
 Vibration     1          0.605              1.946              3.371
 Vibration     2          0.679              1.712              1.540
 Vibration     3          0.703              1.642              1.329
 Vibration     4          0.850              1.263              0.673

 Optimization completed.
    -- Stationary point found.
 Normal termination of Gaussian 09 at Wed Aug  3 22:55:50 2016.
