 Gaussian 09, Revision E.01,
 Gaussian 09:  EM64L-G09RevE.01 30-Nov-2015

 ------------------------------
 #p b3lyp/6-311++G(3df,2p) freq
 ------------------------------

 ---------
 b3lyp opt
 ---------
 Symbolic Z-matrix:
 Charge =  0 Multiplicity = 3

                         Standard orientation:
 ---------------------------------------------------------------------
 Center     Atomic      Atomic             Coordinates (Angstroms)
 Number     Number       Type             X           Y           Z
 ---------------------------------------------------------------------
      1         16           0       -0.000000    0.000000    2.207524
      2         16           0        0.000000   -0.000000   -2.207524
      3          6           0        0.000000   -0.000000   -0.635878
      4          6           0       -0.000000    0.000000    0.635878
 ---------------------------------------------------------------------

 SCF Done:  E(UB3LYP) =  -872.615729577     A.U. after   13 cycles

 The electronic state is 3-SG.
 Alpha  occ. eigenvalues --  -88.89517 -88.89516 -10.25664 -10.25532  -7.97984
 Alpha  occ. eigenvalues --   -7.97982  -5.94053  -5.94053  -5.94039  -5.94039
 Alpha  occ. eigenvalues --   -5.94038  -5.94038  -0.86952  -0.81699  -0.72493
 Alpha  occ. eigenvalues --   -0.49282  -0.46023  -0.41666  -0.41666  -0.33955
 Alpha  occ. eigenvalues --   -0.33955  -0.23811  -0.23811
 Alpha virt. eigenvalues --   -0.01301  -0.01301  -0.00550   0.00901   0.02952
 Alpha virt. eigenvalues --    0.04122   0.04122   0.04231   0.06844   0.06844
 Alpha virt. eigenvalues --    0.10244   0.10307   0.11386   0.11386   0.13248

  Beta  occ. eigenvalues --  -88.89059 -88.89059 -10.25177 -10.25053  -7.97572
  Beta  occ. eigenvalues --   -7.97569  -5.93827  -5.93826  -5.93188  -5.93188
  Beta  occ. eigenvalues --   -5.93187  -5.93187  -0.84925  -0.80164  -0.69545
  Beta  occ. eigenvalues --   -0.46967  -0.44232  -0.38673  -0.38673  -0.30413
  Beta  occ. eigenvalues --   -0.30413
  Beta virt. eigenvalues --   -0.15424  -0.15424  -0.00443   0.01019   0.01019
  Beta virt. eigenvalues --    0.01304   0.03211   0.04269   0.04269   0.04743
  Beta virt. eigenvalues --    0.07496   0.07496   0.10995   0.11115   0.11718

 Mulliken charges and spin densities:
               1          2
     1  S   -0.180522   0.813513
     2  S   -0.180522   0.813513
     3  C    0.180522   0.186487
     4  C    0.180522   0.186487
 Sum of Mulliken charges =  -0.00000   2.00000

 Dipole moment (field-independent basis, Debye):
    X=              0.0000    Y=              0.0000    Z=             -0.0000  Tot=              0.0000
 Quadrupole moment (field-independent basis, Debye-Ang):
   XX=            -37.0356   YY=            -37.0356   ZZ=            -34.1199
   XY=              0.0000   XZ=              0.0000   YZ=             -0.0000

  Exact polarizability:  41.142   0.000  41.142  -0.000  -0.000 155.703
 Approx polarizability:  63.423  -0.000  63.423  -0.000   0.000 341.956

                      1                      2                      3
                     PI                     PI                     PI
 Frequencies --    179.4810               179.4810               438.6243
 Red. masses --     14.4661                14.4661                12.2307
 Frc consts  --      0.2746                 0.2746                 1.3864
 IR Inten    --      0.5708                 0.5708                 0.0000

                      4                      5                      6
                     PI                     SG                     SG
 Frequencies --    438.6243               555.7742              1190.0813
 Red. masses --     12.2307                30.9166                14.4661
 Frc consts  --      1.3864                 5.6265                12.0713
 IR Inten    --      0.0000                 0.0000               130.9712

                      7
                     SG
 Frequencies --   1967.9731
 Red. masses --     12.1558
 Frc consts  --     27.7377
 IR Inten    --      0.0000

 - Thermochemistry -
 -------------------
 Temperature   298.150 Kelvin.  Pressure   1.00000 Atm.
 Atom     1 has atomic number 16 and mass  31.97207

 Molecular mass:    87.94414 amu.
 Principal axes and moments of inertia in atomic units:
                           1         2         3
     Eigenvalues --     0.000001147.434621147.43462
           X           -0.00000   0.87156   0.49028
           Y            0.00000  -0.49028   0.87156
           Z            1.00000   0.00000   0.00000
 This molecule is a prolate symmetric top.
 Rotational symmetry number  1.
 Warning -- assumption of classical behavior for rotation
           may cause significant error
 Rotational temperature (Kelvin)      0.07548
 Rotational constant (GHZ):           1.572849
 Zero-point vibrational energy      29607.8 (Joules/Mol)
                                    7.07644 (Kcal/Mol)
 Warning -- explicit consideration of   5 degrees of freedom as
           vibrations may cause significant error
 Vibrational temperatures:    258.23   258.23   631.08   631.08   799.63
          (Kelvin)           1712.26  2831.47

 Zero-point correction=                           0.011277 (Hartree/Particle)
 Thermal correction to Energy=                    0.015576
 Thermal correction to Enthalpy=                  0.016520
 Thermal correction to Gibbs Free Energy=        -0.015251
 Sum of electronic and zero-point Energies=           -872.604453
 Sum of electronic and thermal Energies=              -872.600153
 Sum of electronic and thermal Enthalpies=            -872.599209
 Sum of electronic and thermal Free Energies=         -872.630981

                     E (Thermal)             CV                S
                      KCal/Mol        Cal/Mol-Kelvin    Cal/Mol-Kelvin
 Total                    9.774             12.827             66.869
 Electronic               0.000              0.000              2.183
 Translational            0.889              2.981             39.335
 Rotational               0.592              1.987             18.444
 Vibrational              8.293              7.859              6.906
 Vibration     1          0.629              1.868              2.334
 Vibration     2          0.629              1.868              2.334
 Vibration     3          0.799              1.386              0.831
 Vibration     4          0.799              1.386              0.831
 Vibration     5          0.911              1.127              0.532

 Optimization completed.
    -- Stationary point found.
 Normal termination of Gaussian 09 at Wed Aug  3 22:48:55 2016.
