 Gaussian 09, Revision E.01,
 Gaussian 09:  EM64L-G09RevE.01 30-Nov-2015

 ------------------------------
 #p b3lyp/6-311++G(3df,2p) freq
 ------------------------------

 ---------
 b3lyp opt
 ---------
 Symbolic Z-matrix:
 Charge =  1 Multiplicity = 4

                         Standard orientation:
 ---------------------------------------------------------------------
 Center     Atomic      Atomic             Coordinates (Angstroms)
 Number     Number       Type             X           Y           Z
 ---------------------------------------------------------------------
      1         16           0       -0.000000    0.000000    2.239391
      2         16           0        0.000000   -0.000000   -2.239391
      3          6           0        0.000000   -0.000000   -0.622848
      4          6           0       -0.000000    0.000000    0.622848
 ---------------------------------------------------------------------

 SCF Done:  E(UB3LYP) =  -872.232883605     A.U. after   14 cycles

 Unable to determine electronic state:  an orbital has unidentified symmetry.
 Alpha  occ. eigenvalues --  -89.16136 -89.16136 -10.48577 -10.48415  -8.24184
 Alpha  occ. eigenvalues --   -8.24181  -6.20903  -6.20902  -6.20120  -6.20119
 Alpha  occ. eigenvalues --   -6.19992  -6.19991  -1.10127  -1.05616  -0.96444
 Alpha  occ. eigenvalues --   -0.72697  -0.69277  -0.65048  -0.63808  -0.58812
 Alpha  occ. eigenvalues --   -0.56602  -0.48694  -0.47102
 Alpha virt. eigenvalues --   -0.23440  -0.22465  -0.19018  -0.16086  -0.15420
 Alpha virt. eigenvalues --   -0.11878  -0.09734  -0.09415  -0.06864  -0.06240
 Alpha virt. eigenvalues --   -0.05970  -0.04615  -0.03337  -0.03158  -0.03128

  Beta  occ. eigenvalues --  -89.15348 -89.15348 -10.48059 -10.47903  -8.23465
  Beta  occ. eigenvalues --   -8.23463  -6.19720  -6.19719  -6.19052  -6.19051
  Beta  occ. eigenvalues --   -6.18899  -6.18899  -1.06994  -1.01902  -0.92507
  Beta  occ. eigenvalues --   -0.69483  -0.66781  -0.60401  -0.59228  -0.52069
  Beta virt. eigenvalues --   -0.46168  -0.38036  -0.36463  -0.19655  -0.19094
  Beta virt. eigenvalues --   -0.16674  -0.15859  -0.13573  -0.11514  -0.09401
  Beta virt. eigenvalues --   -0.09341  -0.06499  -0.05738  -0.05627  -0.04214

 Mulliken charges and spin densities:
               1          2
     1  S    0.115950   1.280431
     2  S    0.115950   1.280431
     3  C    0.384050   0.219569
     4  C    0.384050   0.219569
 Sum of Mulliken charges =   1.00000   3.00000

 Dipole moment (field-independent basis, Debye):
    X=             -0.0000    Y=              0.0000    Z=             -0.0000  Tot=              0.0000
 Quadrupole moment (field-independent basis, Debye-Ang):
   XX=            -33.7131   YY=            -31.4357   ZZ=             -7.5301
   XY=              0.0000   XZ=             -0.0000   YZ=              0.0000

  Exact polarizability:  34.098   0.000  32.896  -0.000  -0.000 134.124
 Approx polarizability:  51.626  -0.000  51.439  -0.000   0.000 308.084

                      1                      2                      3
                     PI                     PI                     PI
 Frequencies --    157.1137               168.2317               358.9868
 Red. masses --     14.4661                14.4661                12.2153
 Frc consts  --      0.2104                 0.2412                 0.9275
 IR Inten    --      0.5819                 1.4850                 0.0000

                      4                      5                      6
                     PI                     SG                     SG
 Frequencies --    415.0393               523.6428               827.6758
 Red. masses --     12.2153                31.3537                14.4661
 Frc consts  --      1.2397                 5.0654                 5.8388
 IR Inten    --      0.0000                 0.0000                22.0537

                      7
                     SG
 Frequencies --   2046.3123
 Red. masses --     12.0895
 Frc consts  --     29.8265
 IR Inten    --      0.0000

 - Thermochemistry -
 -------------------
 Temperature   298.150 Kelvin.  Pressure   1.00000 Atm.
 Atom     1 has atomic number 16 and mass  31.97207

 Molecular mass:    87.94414 amu.
 Principal axes and moments of inertia in atomic units:
                           1         2         3
     Eigenvalues --     0.000001178.388021178.38802
           X           -0.00000   0.98506  -0.17221
           Y            0.00000   0.17221   0.98506
           Z            1.00000   0.00000  -0.00000
 This molecule is a prolate symmetric top.
 Rotational symmetry number  1.
 Warning -- assumption of classical behavior for rotation
           may cause significant error
 Rotational temperature (Kelvin)      0.07350
 Rotational constant (GHZ):           1.531534
 Zero-point vibrational energy      26898.0 (Joules/Mol)
                                    6.42879 (Kcal/Mol)
 Warning -- explicit consideration of   5 degrees of freedom as
           vibrations may cause significant error
 Vibrational temperatures:    226.05   242.05   516.50   597.15   753.40
          (Kelvin)           1190.84  2944.18

 Zero-point correction=                           0.010245 (Hartree/Particle)
 Thermal correction to Energy=                    0.014774
 Thermal correction to Enthalpy=                  0.015718
 Thermal correction to Gibbs Free Energy=        -0.016805
 Sum of electronic and zero-point Energies=           -872.222639
 Sum of electronic and thermal Energies=              -872.218110
 Sum of electronic and thermal Enthalpies=            -872.217166
 Sum of electronic and thermal Free Energies=         -872.249689

                     E (Thermal)             CV                S
                      KCal/Mol        Cal/Mol-Kelvin    Cal/Mol-Kelvin
 Total                    9.271             13.552             68.450
 Electronic               0.000              0.000              2.755
 Translational            0.889              2.981             39.335
 Rotational               0.592              1.987             18.497
 Vibrational              7.789              8.584              7.864
 Vibration     1          0.621              1.895              2.584
 Vibration     2          0.625              1.882              2.455
 Vibration     3          0.734              1.557              1.126
 Vibration     4          0.778              1.438              0.909
 Vibration     5          0.879              1.198              0.602

 Optimization completed.
    -- Stationary point found.
 Normal termination of Gaussian 09 at Wed Aug  3 22:52:39 2016.
