 Gaussian 09, Revision E.01,
 Gaussian 09:  EM64L-G09RevE.01 30-Nov-2015

 ------------------------------
 #p b3lyp/6-311++G(3df,2p) freq
 ------------------------------

 ---------
 b3lyp opt
 ---------
 Symbolic Z-matrix:
 Charge =  1 Multiplicity = 2

                         Standard orientation:
 ---------------------------------------------------------------------
 Center     Atomic      Atomic             Coordinates (Angstroms)
 Number     Number       Type             X           Y           Z
 ---------------------------------------------------------------------
      1         16           0        1.124190   -0.838131   -0.000000
      2         16           0       -1.079295    1.446613    0.000000
      3          6           0        0.000000    0.402395    0.000000
      4          6           0       -0.119718   -2.025013   -0.000000
 ---------------------------------------------------------------------

 SCF Done:  E(UB3LYP) =  -872.170330476     A.U. after   17 cycles

 The electronic state is 2-A'.
 Alpha  occ. eigenvalues --  -89.17267 -89.16333 -10.54874 -10.51829  -8.25533
 Alpha  occ. eigenvalues --   -8.24758  -6.21829  -6.21333  -6.21270  -6.20782
 Alpha  occ. eigenvalues --   -6.20741  -6.20635  -1.13539  -1.06927  -0.86891
 Alpha  occ. eigenvalues --   -0.75366  -0.69357  -0.64678  -0.61862  -0.55681
 Alpha  occ. eigenvalues --   -0.54709  -0.47783
 Alpha virt. eigenvalues --   -0.36367  -0.34168  -0.30823  -0.22944  -0.17262
 Alpha virt. eigenvalues --   -0.16226  -0.12376  -0.11296  -0.10408  -0.08564
 Alpha virt. eigenvalues --   -0.07569  -0.07485  -0.05895  -0.05415  -0.05328

  Beta  occ. eigenvalues --  -89.17273 -89.16244 -10.54738 -10.50566  -8.25522
  Beta  occ. eigenvalues --   -8.24677  -6.21845  -6.21307  -6.21291  -6.20698
  Beta  occ. eigenvalues --   -6.20598  -6.20484  -1.13005  -1.06268  -0.84411
  Beta  occ. eigenvalues --   -0.74213  -0.68474  -0.64549  -0.60717  -0.55462
  Beta  occ. eigenvalues --   -0.52954
  Beta virt. eigenvalues --   -0.36468  -0.35430  -0.30733  -0.30181  -0.21485
  Beta virt. eigenvalues --   -0.16608  -0.15991  -0.12120  -0.11201  -0.10397
  Beta virt. eigenvalues --   -0.08263  -0.07542  -0.07277  -0.05619  -0.05168

 Mulliken charges and spin densities:
               1          2
     1  S    0.105681   0.036924
     2  S    0.227390   0.140887
     3  C    0.575591   0.012320
     4  C    0.091338   0.809869
 Sum of Mulliken charges =   1.00000   1.00000

 Dipole moment (field-independent basis, Debye):
    X=              0.1933    Y=              1.4484    Z=              0.0000  Tot=              1.4613
 Quadrupole moment (field-independent basis, Debye-Ang):
   XX=            -26.2221   YY=            -24.4490   ZZ=            -32.5036
   XY=             -7.9226   XZ=             -0.0000   YZ=             -0.0000

  Exact polarizability:  54.927 -17.271  84.801  -0.002   0.000  34.031
 Approx polarizability: 114.089 -42.742 201.489  -0.000   0.000  56.718

                      1                      2                      3
                     A'                     A'                     A"
 Frequencies --    108.4851               336.7599               341.0624
 Red. masses --     13.9126                13.2119                13.3888
 Frc consts  --      0.0965                 0.8828                 0.9176
 IR Inten    --     23.1338                19.6660                 1.8585

                      4                      5                      6
                     A'                     A'                     A'
 Frequencies --    542.7145               735.7961              1518.7805
 Red. masses --     26.5731                15.2430                13.6684
 Frc consts  --      4.6114                 4.8622                18.5762
 IR Inten    --     15.0078                82.3330               278.9000

 - Thermochemistry -
 -------------------
 Temperature   298.150 Kelvin.  Pressure   1.00000 Atm.
 Atom     1 has atomic number 16 and mass  31.97207

 Molecular mass:    87.94414 amu.
 Principal axes and moments of inertia in atomic units:
                           1         2         3
     Eigenvalues --    92.52271 687.18342 779.70613
           X           -0.55834   0.82961  -0.00000
           Y            0.82961   0.55834  -0.00000
           Z            0.00000   0.00000   1.00000
 This molecule is an asymmetric top.
 Rotational symmetry number  1.
 Rotational temperatures (Kelvin)      0.93614     0.12604     0.11109
 Rotational constants (GHZ):          19.50593     2.62629     2.31464
 Zero-point vibrational energy      21434.7 (Joules/Mol)
                                    5.12301 (Kcal/Mol)
 Warning -- explicit consideration of   4 degrees of freedom as
           vibrations may cause significant error
 Vibrational temperatures:    156.09   484.52   490.71   780.84  1058.65
          (Kelvin)           2185.18

 Zero-point correction=                           0.008164 (Hartree/Particle)
 Thermal correction to Energy=                    0.012761
 Thermal correction to Enthalpy=                  0.013705
 Thermal correction to Gibbs Free Energy=        -0.020832
 Sum of electronic and zero-point Energies=           -872.162166
 Sum of electronic and thermal Energies=              -872.157570
 Sum of electronic and thermal Enthalpies=            -872.156626
 Sum of electronic and thermal Free Energies=         -872.191162

                     E (Thermal)             CV                S
                      KCal/Mol        Cal/Mol-Kelvin    Cal/Mol-Kelvin
 Total                    8.007             13.088             72.688
 Electronic               0.000              0.000              1.377
 Translational            0.889              2.981             39.335
 Rotational               0.889              2.981             25.409
 Vibrational              6.230              7.126              6.567
 Vibration     1          0.606              1.942              3.296
 Vibration     2          0.717              1.602              1.227
 Vibration     3          0.721              1.593              1.207
 Vibration     4          0.898              1.156              0.559

 Optimization completed.
    -- Stationary point found.
 Normal termination of Gaussian 09 at Wed Aug  3 22:53:00 2016.
