 Gaussian 09, Revision E.01,
 Gaussian 09:  EM64L-G09RevE.01 30-Nov-2015

 ------------------------------
 #p b3lyp/6-311++G(3df,2p) freq
 ------------------------------

 ---------
 b3lyp opt
 ---------
 Symbolic Z-matrix:
 Charge =  2 Multiplicity = 3

                         Standard orientation:
 ---------------------------------------------------------------------
 Center     Atomic      Atomic             Coordinates (Angstroms)
 Number     Number       Type             X           Y           Z
 ---------------------------------------------------------------------
      1         16           0        0.688786   -1.198920    0.000000
      2         16           0       -0.450981    1.836102   -0.000000
      3          6           0        0.000000    0.423837   -0.000000
      4          6           0       -0.634147   -2.122988    0.000000
 ---------------------------------------------------------------------

 SCF Done:  E(UB3LYP) =  -871.568579117     A.U. after   19 cycles

 The electronic state is 3-A'.
 Alpha  occ. eigenvalues --  -89.45534 -89.40925 -10.82506 -10.76784  -8.53219
 Alpha  occ. eigenvalues --   -8.48951  -6.49586  -6.49237  -6.48809  -6.45026
 Alpha  occ. eigenvalues --   -6.44864  -6.44848  -1.37791  -1.31559  -1.13510
 Alpha  occ. eigenvalues --   -0.98435  -0.92187  -0.88384  -0.87151  -0.82111
 Alpha  occ. eigenvalues --   -0.80504  -0.76311
 Alpha virt. eigenvalues --   -0.61752  -0.57002  -0.53118  -0.45892  -0.38594
 Alpha virt. eigenvalues --   -0.34129  -0.31257  -0.26279  -0.25737  -0.24962
 Alpha virt. eigenvalues --   -0.24897  -0.23448  -0.22783  -0.22061  -0.20744

  Beta  occ. eigenvalues --  -89.45482 -89.40921 -10.78940 -10.76470  -8.53151
  Beta  occ. eigenvalues --   -8.48947  -6.49445  -6.49028  -6.48906  -6.44954
  Beta  occ. eigenvalues --   -6.44951  -6.44816  -1.35884  -1.30557  -1.09354
  Beta  occ. eigenvalues --   -0.95768  -0.90352  -0.86802  -0.82608  -0.79821
  Beta virt. eigenvalues --   -0.67348  -0.59080  -0.58137  -0.55821  -0.51869
  Beta virt. eigenvalues --   -0.43122  -0.36105  -0.33909  -0.31070  -0.25975
  Beta virt. eigenvalues --   -0.25690  -0.24790  -0.23683  -0.23056  -0.22619

 Mulliken charges and spin densities:
               1          2
     1  S    0.387216   0.093110
     2  S    0.496781   0.000011
     3  C    0.632271   0.094942
     4  C    0.483732   1.811937
 Sum of Mulliken charges =   2.00000   2.00000

 Dipole moment (field-independent basis, Debye):
    X=             -0.8335    Y=             -1.2898    Z=              0.0000  Tot=              1.5357
 Quadrupole moment (field-independent basis, Debye-Ang):
   XX=            -24.3151   YY=              3.5496   ZZ=            -29.3743
   XY=             -2.8520   XZ=              0.0000   YZ=             -0.0000

  Exact polarizability:  37.266  -2.262  77.044   0.000  -0.000  28.988
 Approx polarizability:  75.494  -0.392 168.566  -0.000  -0.000  46.484

                      1                      2                      3
                     A'                     A"                     A'
 Frequencies --    173.2717               290.4439               383.2356
 Red. masses --     14.0584                13.2233                18.6493
 Frc consts  --      0.2487                 0.6572                 1.6138
 IR Inten    --      0.5022                 1.7745                 1.3954

                      4                      5                      6
                     A'                     A'                     A'
 Frequencies --    522.3112               933.8254              1530.1530
 Red. masses --     17.5238                14.4672                13.9241
 Frc consts  --      2.8167                 7.4330                19.2082
 IR Inten    --     12.8105                23.0559                 0.0336

 - Thermochemistry -
 -------------------
 Temperature   298.150 Kelvin.  Pressure   1.00000 Atm.
 Atom     1 has atomic number 16 and mass  31.97207

 Molecular mass:    87.94414 amu.
 Principal axes and moments of inertia in atomic units:
                           1         2         3
     Eigenvalues --    69.35187 775.13613 844.48800
           X           -0.18922   0.98194   0.00000
           Y            0.98194   0.18922   0.00000
           Z           -0.00000  -0.00000   1.00000
 This molecule is an asymmetric top.
 Rotational symmetry number  1.
 Rotational temperatures (Kelvin)      1.24890     0.11174     0.10256
 Rotational constants (GHZ):          26.02296     2.32829     2.13708
 Zero-point vibrational energy      22927.9 (Joules/Mol)
                                    5.47989 (Kcal/Mol)
 Warning -- explicit consideration of   4 degrees of freedom as
           vibrations may cause significant error
 Vibrational temperatures:    249.30   417.88   551.39   751.49  1343.56
          (Kelvin)           2201.55

 Zero-point correction=                           0.008733 (Hartree/Particle)
 Thermal correction to Energy=                    0.013187
 Thermal correction to Enthalpy=                  0.014132
 Thermal correction to Gibbs Free Energy=        -0.020303
 Sum of electronic and zero-point Energies=           -871.559846
 Sum of electronic and thermal Energies=              -871.555392
 Sum of electronic and thermal Enthalpies=            -871.554448
 Sum of electronic and thermal Free Energies=         -871.588882

                     E (Thermal)             CV                S
                      KCal/Mol        Cal/Mol-Kelvin    Cal/Mol-Kelvin
 Total                    8.275             12.758             72.474
 Electronic               0.000              0.000              2.183
 Translational            0.889              2.981             39.335
 Rotational               0.889              2.981             25.321
 Vibrational              6.498              6.796              5.634
 Vibration     1          0.627              1.875              2.400
 Vibration     2          0.686              1.692              1.471
 Vibration     3          0.752              1.506              1.026
 Vibration     4          0.877              1.201              0.605

 Normal termination of Gaussian 09 at Wed Aug  3 22:55:32 2016.
