 Gaussian 09, Revision E.01,
 Gaussian 09:  EM64L-G09RevE.01 30-Nov-2015

 ------------------------------
 #p b3lyp/6-311++G(3df,2p) freq
 ------------------------------

 ---------
 b3lyp opt
 ---------
 Symbolic Z-matrix:
 Charge =  2 Multiplicity = 3

                         Standard orientation:
 ---------------------------------------------------------------------
 Center     Atomic      Atomic             Coordinates (Angstroms)
 Number     Number       Type             X           Y           Z
 ---------------------------------------------------------------------
      1         16           0        0.000000   -1.043463   -0.566086
      2         16           0        0.000000    1.043463   -0.566086
      3          6           0        0.000000   -0.000000    2.214337
      4          6           0        0.000000   -0.000000    0.804789
 ---------------------------------------------------------------------

 SCF Done:  E(UB3LYP) =  -871.560792390     A.U. after   16 cycles

 The electronic state is 3-B2.
 Alpha  occ. eigenvalues --  -89.48120 -89.48120 -10.80846 -10.78374  -8.55660
 Alpha  occ. eigenvalues --   -8.55656  -6.51980  -6.51978  -6.51733  -6.51709
 Alpha  occ. eigenvalues --   -6.51584  -6.51582  -1.45616  -1.25793  -1.21004
 Alpha  occ. eigenvalues --   -1.03380  -0.94429  -0.90751  -0.90607  -0.79660
 Alpha  occ. eigenvalues --   -0.78742  -0.78302
 Alpha virt. eigenvalues --   -0.63304  -0.59150  -0.53620  -0.48628  -0.39238
 Alpha virt. eigenvalues --   -0.37770  -0.33140  -0.31705  -0.27923  -0.26428
 Alpha virt. eigenvalues --   -0.26317  -0.25841  -0.23964  -0.23496  -0.21583

  Beta  occ. eigenvalues --  -89.47630 -89.47630 -10.80150 -10.78015  -8.55217
  Beta  occ. eigenvalues --   -8.55213  -6.51491  -6.51467  -6.51313  -6.51311
  Beta  occ. eigenvalues --   -6.50425  -6.50423  -1.43975  -1.22899  -1.17793
  Beta  occ. eigenvalues --   -1.01597  -0.89488  -0.89478  -0.88722  -0.78376
  Beta virt. eigenvalues --   -0.66408  -0.66167  -0.62271  -0.58050  -0.48066
  Beta virt. eigenvalues --   -0.47568  -0.37745  -0.37151  -0.32120  -0.29369
  Beta virt. eigenvalues --   -0.27361  -0.26166  -0.25515  -0.25196  -0.22096

 Mulliken charges and spin densities:
               1          2
     1  S    0.531174   0.697906
     2  S    0.531174   0.697906
     3  C    0.468664   0.358491
     4  C    0.468988   0.245697
 Sum of Mulliken charges =   2.00000   2.00000

 Dipole moment (field-independent basis, Debye):
    X=              0.0000    Y=              0.0000    Z=              0.0154  Tot=              0.0154
 Quadrupole moment (field-independent basis, Debye-Ang):
   XX=            -29.5859   YY=            -17.0329   ZZ=            -18.1015
   XY=              0.0000   XZ=             -0.0000   YZ=              0.0000

  Exact polarizability:  29.897  -0.000  48.906   0.000   0.000  59.834
 Approx polarizability:  46.348   0.000 112.102  -0.000   0.000 119.934

                      1                      2                      3
                     B2                     B1                     A1
 Frequencies --    188.0089               198.9137               468.0566
 Red. masses --     15.1429                12.2867                22.4384
 Frc consts  --      0.3154                 0.2864                 2.8963
 IR Inten    --      5.1176                 3.9168                13.7065

                      4                      5                      6
                     B2                     A1                     A1
 Frequencies --    654.7042               695.1484              1364.3158
 Red. masses --     15.5505                17.4041                12.2379
 Frc consts  --      3.9272                 4.9551                13.4211
 IR Inten    --      1.6173                28.3035               246.7133

 - Thermochemistry -
 -------------------
 Temperature   298.150 Kelvin.  Pressure   1.00000 Atm.
 Atom     1 has atomic number 16 and mass  31.97207

 Molecular mass:    87.94414 amu.
 Principal axes and moments of inertia in atomic units:
                           1         2         3
     Eigenvalues --   248.62953 311.04986 559.67939
           X            0.00000   0.00000   1.00000
           Y            0.00000   1.00000  -0.00000
           Z            1.00000   0.00000   0.00000
 This molecule is an asymmetric top.
 Rotational symmetry number  2.
 Rotational temperatures (Kelvin)      0.34836     0.27846     0.15476
 Rotational constants (GHZ):           7.25876     5.80210     3.22460
 Zero-point vibrational energy      21348.2 (Joules/Mol)
                                    5.10235 (Kcal/Mol)
 Warning -- explicit consideration of   3 degrees of freedom as
           vibrations may cause significant error
 Vibrational temperatures:    270.50   286.19   673.43   941.97  1000.16
          (Kelvin)           1962.94

 Zero-point correction=                           0.008131 (Hartree/Particle)
 Thermal correction to Energy=                    0.012610
 Thermal correction to Enthalpy=                  0.013554
 Thermal correction to Gibbs Free Energy=        -0.020297
 Sum of electronic and zero-point Energies=           -871.552661
 Sum of electronic and thermal Energies=              -871.548182
 Sum of electronic and thermal Enthalpies=            -871.547238
 Sum of electronic and thermal Free Energies=         -871.581089

                     E (Thermal)             CV                S
                      KCal/Mol        Cal/Mol-Kelvin    Cal/Mol-Kelvin
 Total                    7.913             12.857             71.245
 Electronic               0.000              0.000              2.183
 Translational            0.889              2.981             39.335
 Rotational               0.889              2.981             23.896
 Vibrational              6.136              6.895              5.831
 Vibration     1          0.633              1.856              2.247
 Vibration     2          0.637              1.841              2.143
 Vibration     3          0.825              1.321              0.743

 Optimization completed.
    -- Stationary point found.
 Normal termination of Gaussian 09 at Wed Aug  3 22:55:05 2016.
