 Gaussian 09, Revision E.01,
 Gaussian 09:  EM64L-G09RevE.01 30-Nov-2015

 ------------------------------
 #p b3lyp/6-311++G(3df,2p) freq
 ------------------------------

 ---------
 b3lyp opt
 ---------
 Symbolic Z-matrix:
 Charge =  1 Multiplicity = 4

                         Standard orientation:
 ---------------------------------------------------------------------
 Center     Atomic      Atomic             Coordinates (Angstroms)
 Number     Number       Type             X           Y           Z
 ---------------------------------------------------------------------
      1         16           0        0.000000    0.892778    0.000000
      2         16           0       -1.381838   -0.578870   -0.000000
      3          6           0        1.348059   -0.062598    0.000000
      4          6           0        2.336841   -0.774491    0.000000
 ---------------------------------------------------------------------

 SCF Done:  E(UB3LYP) =  -872.119107619     A.U. after   21 cycles

 The electronic state is 4-A".
 Alpha  occ. eigenvalues --  -89.19466 -89.17635 -10.50673 -10.46063  -8.27402
 Alpha  occ. eigenvalues --   -8.25622  -6.23619  -6.23463  -6.23280  -6.22391
 Alpha  occ. eigenvalues --   -6.21624  -6.21372  -1.12603  -1.02413  -0.94664
 Alpha  occ. eigenvalues --   -0.75036  -0.66705  -0.64416  -0.63916  -0.57104
 Alpha  occ. eigenvalues --   -0.56099  -0.55008  -0.49562
 Alpha virt. eigenvalues --   -0.30905  -0.22415  -0.21503  -0.20676  -0.15393
 Alpha virt. eigenvalues --   -0.10813  -0.10363  -0.10173  -0.09827  -0.07856
 Alpha virt. eigenvalues --   -0.06747  -0.05903  -0.05885  -0.05268  -0.04606

  Beta  occ. eigenvalues --  -89.19137 -89.16771 -10.47857 -10.45995  -8.27104
  Beta  occ. eigenvalues --   -8.24841  -6.23430  -6.23074  -6.22480  -6.21189
  Beta  occ. eigenvalues --   -6.20383  -6.20154  -1.10747  -0.98794  -0.89976
  Beta  occ. eigenvalues --   -0.72786  -0.64711  -0.61285  -0.53271  -0.51495
  Beta virt. eigenvalues --   -0.42883  -0.41041  -0.39556  -0.28540  -0.19881
  Beta virt. eigenvalues --   -0.18503  -0.18397  -0.14710  -0.10303  -0.10024
  Beta virt. eigenvalues --   -0.09564  -0.09298  -0.06920  -0.05677  -0.05479

 Mulliken charges and spin densities:
               1          2
     1  S   -0.163817   0.499378
     2  S    0.382893   1.292096
     3  C    0.386858  -0.192111
     4  C    0.394066   1.400637
 Sum of Mulliken charges =   1.00000   3.00000

 Dipole moment (field-independent basis, Debye):
    X=              0.2490    Y=             -0.3317    Z=              0.0000  Tot=              0.4147
 Quadrupole moment (field-independent basis, Debye-Ang):
   XX=            -18.2250   YY=            -28.0706   ZZ=            -33.8976
   XY=             -1.1041   XZ=             -0.0000   YZ=             -0.0000

  Exact polarizability:  91.676   0.614  49.845   0.000   0.000  35.036
 Approx polarizability: 207.169   2.239  96.217   0.000   0.000  52.370

                      1                      2                      3
                     A'                     A"                     A'
 Frequencies --     93.8697               283.7196               305.3143
 Red. masses --     17.7891                12.3786                12.8972
 Frc consts  --      0.0924                 0.5871                 0.7083
 IR Inten    --      0.0666                 1.6313                 4.9062

                      4                      5                      6
                     A'                     A'                     A'
 Frequencies --    540.1540               747.3477              2029.7231
 Red. masses --     31.6170                16.1277                12.0252
 Frc consts  --      5.4351                 5.3072                29.1888
 IR Inten    --      2.4495                14.1381               246.6788

 - Thermochemistry -
 -------------------
 Temperature   298.150 Kelvin.  Pressure   1.00000 Atm.
 Atom     1 has atomic number 16 and mass  31.97207

 Molecular mass:    87.94414 amu.
 Principal axes and moments of inertia in atomic units:
                           1         2         3
     Eigenvalues --   154.85934 530.17441 685.03375
           X            0.99963  -0.02707  -0.00000
           Y            0.02707   0.99963  -0.00000
           Z            0.00000   0.00000   1.00000
 This molecule is an asymmetric top.
 Rotational symmetry number  1.
 Rotational temperatures (Kelvin)      0.55931     0.16337     0.12644
 Rotational constants (GHZ):          11.65407     3.40405     2.63453
 Zero-point vibrational energy      23926.1 (Joules/Mol)
                                    5.71847 (Kcal/Mol)
 Warning -- explicit consideration of   4 degrees of freedom as
           vibrations may cause significant error
 Vibrational temperatures:    135.06   408.21   439.28   777.16  1075.27
          (Kelvin)           2920.32

 Zero-point correction=                           0.009113 (Hartree/Particle)
 Thermal correction to Energy=                    0.013838
 Thermal correction to Enthalpy=                  0.014782
 Thermal correction to Gibbs Free Energy=        -0.020815
 Sum of electronic and zero-point Energies=           -872.109995
 Sum of electronic and thermal Energies=              -872.105270
 Sum of electronic and thermal Enthalpies=            -872.104325
 Sum of electronic and thermal Free Energies=         -872.139923

                     E (Thermal)             CV                S
                      KCal/Mol        Cal/Mol-Kelvin    Cal/Mol-Kelvin
 Total                    8.683             13.196             74.921
 Electronic               0.000              0.000              2.755
 Translational            0.889              2.981             39.335
 Rotational               0.889              2.981             25.534
 Vibrational              6.906              7.234              7.297
 Vibration     1          0.603              1.954              3.578
 Vibration     2          0.682              1.704              1.511
 Vibration     3          0.696              1.664              1.388
 Vibration     4          0.895              1.161              0.565

 Normal termination of Gaussian 09 at Wed Aug  3 22:53:07 2016.
