 Gaussian 09, Revision E.01,
 Gaussian 09:  EM64L-G09RevE.01 30-Nov-2015

 ------------------------------
 #p b3lyp/6-311++G(3df,2p) freq
 ------------------------------

 ---------
 b3lyp opt
 ---------
 Symbolic Z-matrix:
 Charge =  2 Multiplicity = 1

                         Standard orientation:
 ---------------------------------------------------------------------
 Center     Atomic      Atomic             Coordinates (Angstroms)
 Number     Number       Type             X           Y           Z
 ---------------------------------------------------------------------
      1         16           0        0.000000    0.000000    2.170784
      2         16           0       -0.000000   -0.000000   -2.170784
      3          6           0       -0.000000   -0.000000   -0.685513
      4          6           0        0.000000    0.000000    0.685513
 ---------------------------------------------------------------------

 SCF Done:  E(RB3LYP) =  -871.762585649     A.U. after   10 cycles

 The electronic state is 1-SG.
 Alpha  occ. eigenvalues --  -89.42149 -89.42148 -10.76782 -10.76722  -8.50079
 Alpha  occ. eigenvalues --   -8.50076  -6.46089  -6.46089  -6.46089  -6.46089
 Alpha  occ. eigenvalues --   -6.45959  -6.45959  -1.35690  -1.31966  -1.18834
 Alpha  occ. eigenvalues --   -0.95722  -0.92956  -0.87748  -0.87748  -0.80306
 Alpha  occ. eigenvalues --   -0.80306
 Alpha virt. eigenvalues --   -0.61986  -0.61986  -0.46857  -0.46857  -0.37832
 Alpha virt. eigenvalues --   -0.34574  -0.31550  -0.29723  -0.25128  -0.25128
 Alpha virt. eigenvalues --   -0.23422  -0.23421  -0.21344  -0.21238  -0.20799

 Mulliken charges:
               1
     1  S    0.500896
     2  S    0.500897
     3  C    0.499103
     4  C    0.499104
 Sum of Mulliken charges =   2.00000

 Dipole moment (field-independent basis, Debye):
    X=             -0.0000    Y=             -0.0000    Z=             -0.0000  Tot=              0.0000
 Quadrupole moment (field-independent basis, Debye-Ang):
   XX=            -28.6735   YY=            -28.6735   ZZ=             15.8155
   XY=              0.0000   XZ=              0.0000   YZ=              0.0000

  Exact polarizability:  27.630   0.000  27.630  -0.000  -0.000  99.564
 Approx polarizability:  43.997   0.000  43.997   0.000   0.000 283.932

                      1                      2                      3
                     PI                     PI                     PI
 Frequencies --    179.5981               179.5981               513.8371
 Red. masses --     14.4661                14.4661                12.2767
 Frc consts  --      0.2749                 0.2749                 1.9098
 IR Inten    --      0.9413                 0.9413                 0.0000

                      4                      5                      6
                     PI                     SG                     SG
 Frequencies --    513.8371               566.7332              1476.8164
 Red. masses --     12.2767                28.1804                14.4661
 Frc consts  --      1.9098                 5.3328                18.5889
 IR Inten    --      0.0000                 0.0000                 7.1448

                      7
                     SG
 Frequencies --   1795.2072
 Red. masses --     12.6382
 Frc consts  --     23.9975
 IR Inten    --      0.0000

 - Thermochemistry -
 -------------------
 Temperature   298.150 Kelvin.  Pressure   1.00000 Atm.
 Atom     1 has atomic number 16 and mass  31.97207

 Molecular mass:    87.94414 amu.
 Principal axes and moments of inertia in atomic units:
                           1         2         3
     Eigenvalues --     0.000001116.323951116.32395
           X            0.00000   0.21250   0.97716
           Y            0.00000   0.97716  -0.21250
           Z            1.00000  -0.00000  -0.00000
 This molecule is a prolate symmetric top.
 Rotational symmetry number  1.
 Warning -- assumption of classical behavior for rotation
           may cause significant error
 Rotational temperature (Kelvin)      0.07759
 Rotational constant (GHZ):           1.616682
 Zero-point vibrational energy      31256.2 (Joules/Mol)
                                    7.47041 (Kcal/Mol)
 Warning -- explicit consideration of   5 degrees of freedom as
           vibrations may cause significant error
 Vibrational temperatures:    258.40   258.40   739.30   739.30   815.40
          (Kelvin)           2124.81  2582.90

 Zero-point correction=                           0.011905 (Hartree/Particle)
 Thermal correction to Energy=                    0.016066
 Thermal correction to Enthalpy=                  0.017011
 Thermal correction to Gibbs Free Energy=        -0.013477
 Sum of electronic and zero-point Energies=           -871.750681
 Sum of electronic and thermal Energies=              -871.746519
 Sum of electronic and thermal Enthalpies=            -871.745575
 Sum of electronic and thermal Free Energies=         -871.776062

                     E (Thermal)             CV                S
                      KCal/Mol        Cal/Mol-Kelvin    Cal/Mol-Kelvin
 Total                   10.082             12.352             64.165
 Electronic               0.000              0.000              0.000
 Translational            0.889              2.981             39.335
 Rotational               0.592              1.987             18.389
 Vibrational              8.601              7.384              6.441
 Vibration     1          0.629              1.867              2.333
 Vibration     2          0.629              1.867              2.333
 Vibration     3          0.869              1.219              0.624
 Vibration     4          0.869              1.219              0.624
 Vibration     5          0.923              1.103              0.511

 Optimization completed.
    -- Stationary point found.
 Normal termination of Gaussian 09 at Wed Aug  3 22:51:49 2016.
