 Gaussian 09, Revision E.01,
 Gaussian 09:  EM64L-G09RevE.01 30-Nov-2015

 ------------------------------
 #p b3lyp/6-311++G(3df,2p) freq
 ------------------------------

 ---------
 b3lyp opt
 ---------
 Symbolic Z-matrix:
 Charge =  1 Multiplicity = 2

                         Standard orientation:
 ---------------------------------------------------------------------
 Center     Atomic      Atomic             Coordinates (Angstroms)
 Number     Number       Type             X           Y           Z
 ---------------------------------------------------------------------
      1         16           0        0.000000   -0.997921   -0.575460
      2         16           0        0.000000    0.997921   -0.575460
      3          6           0        0.000000    0.000000    2.193354
      4          6           0        0.000000    0.000000    0.875767
 ---------------------------------------------------------------------

 SCF Done:  E(UB3LYP) =  -872.144397070     A.U. after   15 cycles

 The electronic state is 2-A2.
 Alpha  occ. eigenvalues --  -89.22087 -89.22087 -10.48344 -10.48200  -8.29978
 Alpha  occ. eigenvalues --   -8.29970  -6.26104  -6.26061  -6.26043  -6.26040
 Alpha  occ. eigenvalues --   -6.25979  -6.25976  -1.20441  -0.98854  -0.95112
 Alpha  occ. eigenvalues --   -0.78753  -0.69169  -0.67684  -0.64512  -0.53757
 Alpha  occ. eigenvalues --   -0.52278  -0.51303
 Alpha virt. eigenvalues --   -0.37917  -0.32893  -0.26612  -0.23733  -0.17613
 Alpha virt. eigenvalues --   -0.14564  -0.11638  -0.11489  -0.11273  -0.10245
 Alpha virt. eigenvalues --   -0.09761  -0.08552  -0.06646  -0.05532  -0.05075

  Beta  occ. eigenvalues --  -89.21710 -89.21710 -10.48358 -10.48260  -8.29639
  Beta  occ. eigenvalues --   -8.29630  -6.25915  -6.25872  -6.25753  -6.25750
  Beta  occ. eigenvalues --   -6.24873  -6.24869  -1.19383  -0.98806  -0.92408
  Beta  occ. eigenvalues --   -0.77939  -0.66698  -0.65693  -0.63897  -0.52383
  Beta  occ. eigenvalues --   -0.50096
  Beta virt. eigenvalues --   -0.43132  -0.37613  -0.32212  -0.26094  -0.23380
  Beta virt. eigenvalues --   -0.17307  -0.13973  -0.11249  -0.11086  -0.10871
  Beta virt. eigenvalues --   -0.10012  -0.09687  -0.07176  -0.06257  -0.04879

 Mulliken charges and spin densities:
               1          2
     1  S    0.259213   0.539384
     2  S    0.259213   0.539384
     3  C   -0.045722  -0.087666
     4  C    0.527295   0.008898
 Sum of Mulliken charges =   1.00000   1.00000

 Dipole moment (field-independent basis, Debye):
    X=              0.0000    Y=             -0.0000    Z=             -2.6755  Tot=              2.6755
 Quadrupole moment (field-independent basis, Debye-Ang):
   XX=            -33.9226   YY=            -23.9574   ZZ=            -32.0454
   XY=              0.0000   XZ=             -0.0000   YZ=              0.0000

  Exact polarizability:  33.100   0.000  60.848  -0.000   0.000  65.809
 Approx polarizability:  52.811   0.000 136.286  -0.000   0.000 131.361

                      1                      2                      3
                     B2                     B1                     B2
 Frequencies --    130.5772               276.6550               426.0644
 Red. masses --     15.8453                12.2468                15.0592
 Frc consts  --      0.1592                 0.5523                 1.6107
 IR Inten    --      2.5751                 0.8105                40.8901

                      4                      5                      6
                     A1                     A1                     A1
 Frequencies --    546.7408               708.8809              1684.3459
 Red. masses --     20.1785                19.4728                12.0734
 Frc consts  --      3.5539                 5.7653                20.1810
 IR Inten    --      0.0850                 3.3235               227.4589

 - Thermochemistry -
 -------------------
 Temperature   298.150 Kelvin.  Pressure   1.00000 Atm.
 Atom     1 has atomic number 16 and mass  31.97207

 Molecular mass:    87.94414 amu.
 Principal axes and moments of inertia in atomic units:
                           1         2         3
     Eigenvalues --   227.40028 314.64152 542.04180
           X           -0.00000  -0.00000   1.00000
           Y           -0.00000   1.00000   0.00000
           Z            1.00000   0.00000   0.00000
 This molecule is an asymmetric top.
 Rotational symmetry number  2.
 Rotational temperatures (Kelvin)      0.38089     0.27528     0.15979
 Rotational constants (GHZ):           7.93641     5.73586     3.32952
 Zero-point vibrational energy      22569.1 (Joules/Mol)
                                    5.39415 (Kcal/Mol)
 Warning -- explicit consideration of   4 degrees of freedom as
           vibrations may cause significant error
 Vibrational temperatures:    187.87   398.04   613.01   786.64  1019.92
          (Kelvin)           2423.40

 Zero-point correction=                           0.008596 (Hartree/Particle)
 Thermal correction to Energy=                    0.013145
 Thermal correction to Enthalpy=                  0.014089
 Thermal correction to Gibbs Free Energy=        -0.019510
 Sum of electronic and zero-point Energies=           -872.135801
 Sum of electronic and thermal Energies=              -872.131252
 Sum of electronic and thermal Enthalpies=            -872.130308
 Sum of electronic and thermal Free Energies=         -872.163907

                     E (Thermal)             CV                S
                      KCal/Mol        Cal/Mol-Kelvin    Cal/Mol-Kelvin
 Total                    8.248             13.012             70.715
 Electronic               0.000              0.000              1.377
 Translational            0.889              2.981             39.335
 Rotational               0.889              2.981             23.787
 Vibrational              6.471              7.051              6.215
 Vibration     1          0.612              1.923              2.938
 Vibration     2          0.678              1.717              1.554
 Vibration     3          0.788              1.414              0.872
 Vibration     4          0.902              1.147              0.551

 Optimization completed.
    -- Stationary point found.
 Normal termination of Gaussian 09 at Wed Aug  3 22:48:49 2016.
