 Gaussian 09, Revision E.01,
 Gaussian 09:  EM64L-G09RevE.01 30-Nov-2015

 ------------------------------
 #p b3lyp/6-311++G(3df,2p) freq
 ------------------------------

 ---------
 b3lyp opt
 ---------
 Symbolic Z-matrix:
 Charge =  0 Multiplicity = 3

                         Standard orientation:
 ---------------------------------------------------------------------
 Center     Atomic      Atomic             Coordinates (Angstroms)
 Number     Number       Type             X           Y           Z
 ---------------------------------------------------------------------
      1         16           0       -1.032456   -0.832874    0.000000
      2         16           0        1.069483    1.532839   -0.000000
      3          6           0       -0.000000    0.421373   -0.000000
      4          6           0       -0.098737   -2.287946    0.000000
 ---------------------------------------------------------------------

 SCF Done:  E(UB3LYP) =  -872.459505944     A.U. after   18 cycles

 The electronic state is 3-A".
 Alpha  occ. eigenvalues --  -88.93645 -88.91537 -10.30299 -10.24118  -8.01916
 Alpha  occ. eigenvalues --   -8.00095  -5.98184  -5.97738  -5.97644  -5.96202
 Alpha  occ. eigenvalues --   -5.96087  -5.95914  -0.89831  -0.82694  -0.65982
 Alpha  occ. eigenvalues --   -0.51687  -0.45683  -0.42717  -0.39076  -0.33680
 Alpha  occ. eigenvalues --   -0.31634  -0.24217  -0.21346
 Alpha virt. eigenvalues --   -0.13774  -0.09316  -0.01186   0.00981   0.02083
 Alpha virt. eigenvalues --    0.02372   0.03772   0.05684   0.06137   0.06228
 Alpha virt. eigenvalues --    0.06998   0.08667   0.09739   0.10021   0.11673

  Beta  occ. eigenvalues --  -88.93728 -88.91404 -10.29610 -10.22050  -8.01958
  Beta  occ. eigenvalues --   -7.99973  -5.98237  -5.97878  -5.97737  -5.96118
  Beta  occ. eigenvalues --   -5.96004  -5.95513  -0.88593  -0.81763  -0.61663
  Beta  occ. eigenvalues --   -0.49826  -0.44357  -0.40634  -0.37514  -0.31850
  Beta  occ. eigenvalues --   -0.29048
  Beta virt. eigenvalues --   -0.13465  -0.11467  -0.09211  -0.04577  -0.00980
  Beta virt. eigenvalues --    0.01649   0.02479   0.02880   0.03848   0.05846
  Beta virt. eigenvalues --    0.06297   0.06914   0.07223   0.08940   0.10611

 Mulliken charges and spin densities:
               1          2
     1  S   -0.036882   0.034615
     2  S   -0.115110   0.244579
     3  C    0.437045   0.276970
     4  C   -0.285053   1.443836
 Sum of Mulliken charges =  -0.00000   2.00000

 Dipole moment (field-independent basis, Debye):
    X=             -0.4465    Y=              2.9991    Z=             -0.0000  Tot=              3.0321
 Quadrupole moment (field-independent basis, Debye-Ang):
   XX=            -34.8813   YY=            -43.0794   ZZ=            -37.7556
   XY=              2.5160   XZ=             -0.0000   YZ=              0.0000

  Exact polarizability:  65.258  26.747 120.650   0.000   0.000  44.329
 Approx polarizability: 127.049  73.084 303.644  -0.000  -0.000  68.073

                      1                      2                      3
                     A'                     A"                     A'
 Frequencies --    114.2279               238.1580               417.3583
 Red. masses --     14.4932                13.4046                13.7009
 Frc consts  --      0.1114                 0.4480                 1.4061
 IR Inten    --     12.8266                 3.9527                12.4089

                      4                      5                      6
                     A'                     A'                     A'
 Frequencies --    537.9150               634.0364              1447.6492
 Red. masses --     21.7809                16.8595                13.4311
 Frc consts  --      3.7132                 3.9932                16.5839
 IR Inten    --     14.8031                 3.3016               275.7337

 - Thermochemistry -
 -------------------
 Temperature   298.150 Kelvin.  Pressure   1.00000 Atm.
 Atom     1 has atomic number 16 and mass  31.97207

 Molecular mass:    87.94414 amu.
 Principal axes and moments of inertia in atomic units:
                           1         2         3
     Eigenvalues --    78.82639 753.28318 832.10958
           X            0.50776   0.86150   0.00000
           Y            0.86150  -0.50776   0.00000
           Z           -0.00000   0.00000   1.00000
 This molecule is an asymmetric top.
 Rotational symmetry number  1.
 Rotational temperatures (Kelvin)      1.09879     0.11498     0.10409
 Rotational constants (GHZ):          22.89514     2.39583     2.16887
 Zero-point vibrational energy      20272.8 (Joules/Mol)
                                    4.84531 (Kcal/Mol)
 Warning -- explicit consideration of   4 degrees of freedom as
           vibrations may cause significant error
 Vibrational temperatures:    164.35   342.66   600.48   773.94   912.24
          (Kelvin)           2082.84

 Zero-point correction=                           0.007721 (Hartree/Particle)
 Thermal correction to Energy=                    0.012404
 Thermal correction to Enthalpy=                  0.013348
 Thermal correction to Gibbs Free Energy=        -0.021724
 Sum of electronic and zero-point Energies=           -872.451784
 Sum of electronic and thermal Energies=              -872.447102
 Sum of electronic and thermal Enthalpies=            -872.446158
 Sum of electronic and thermal Free Energies=         -872.481230

                     E (Thermal)             CV                S
                      KCal/Mol        Cal/Mol-Kelvin    Cal/Mol-Kelvin
 Total                    7.783             13.331             73.816
 Electronic               0.000              0.000              2.183
 Translational            0.889              2.981             39.335
 Rotational               0.889              2.981             25.405
 Vibrational              6.006              7.369              6.893
 Vibration     1          0.607              1.938              3.196
 Vibration     2          0.656              1.782              1.817
 Vibration     3          0.780              1.433              0.901
 Vibration     4          0.893              1.166              0.570

 Optimization completed.
    -- Stationary point found.
 Normal termination of Gaussian 09 at Wed Aug  3 22:49:21 2016.
