 Gaussian 09, Revision E.01,
 Gaussian 09:  EM64L-G09RevE.01 30-Nov-2015

 ------------------------------
 #p b3lyp/6-311++G(3df,2p) freq
 ------------------------------

 ---------
 b3lyp opt
 ---------
 Symbolic Z-matrix:
 Charge =  2 Multiplicity = 1

                         Standard orientation:
 ---------------------------------------------------------------------
 Center     Atomic      Atomic             Coordinates (Angstroms)
 Number     Number       Type             X           Y           Z
 ---------------------------------------------------------------------
      1         16           0        0.970335   -0.790004   -0.000000
      2         16           0       -0.963645   -0.410582    0.000000
      3          6           0       -0.017839    2.292156   -0.000000
      4          6           0       -0.000000    0.909406   -0.000000
 ---------------------------------------------------------------------

 SCF Done:  E(RB3LYP) =  -871.529856600     A.U. after   16 cycles

 The electronic state is 1-A'.
 Alpha  occ. eigenvalues --  -89.52022 -89.46994 -10.79246 -10.76475  -8.59457
 Alpha  occ. eigenvalues --   -8.54546  -6.55676  -6.55397  -6.55291  -6.50855
 Alpha  occ. eigenvalues --   -6.50579  -6.50140  -1.45943  -1.24984  -1.18173
 Alpha  occ. eigenvalues --   -1.04290  -0.93028  -0.92637  -0.86795  -0.78213
 Alpha  occ. eigenvalues --   -0.76007
 Alpha virt. eigenvalues --   -0.69381  -0.63571  -0.55845  -0.51888  -0.49963
 Alpha virt. eigenvalues --   -0.39096  -0.37868  -0.32915  -0.31537  -0.27881
 Alpha virt. eigenvalues --   -0.26264  -0.26046  -0.25668  -0.24522  -0.21859

 Mulliken charges:
               1
     1  S    0.555289
     2  S    0.520391
     3  C    0.468304
     4  C    0.456017
 Sum of Mulliken charges =   2.00000

 Dipole moment (field-independent basis, Debye):
    X=             -0.4629    Y=             -0.4333    Z=              0.0000  Tot=              0.6341
 Quadrupole moment (field-independent basis, Debye-Ang):
   XX=            -18.0609   YY=            -17.2357   ZZ=            -29.5792
   XY=             -1.0952   XZ=              0.0000   YZ=             -0.0000

  Exact polarizability:  46.963  -6.986  72.523  -0.000   0.000  28.697
 Approx polarizability: 129.686 -65.623 280.855  -0.000   0.000  48.047

                      1                      2                      3
                     A'                     A"                     A'
 Frequencies --    169.3928               234.4373               411.6109
 Red. masses --     15.1534                12.2489                15.4268
 Frc consts  --      0.2562                 0.3966                 1.5399
 IR Inten    --      3.5726                 0.0729                 8.9246

                      4                      5                      6
                     A'                     A'                     A'
 Frequencies --    578.3976               813.7487              1422.2593
 Red. masses --     27.5520                15.6654                12.3095
 Frc consts  --      5.4307                 6.1118                14.6706
 IR Inten    --     34.5904                17.9004               736.7432

 - Thermochemistry -
 -------------------
 Temperature   298.150 Kelvin.  Pressure   1.00000 Atm.
 Atom     1 has atomic number 16 and mass  31.97207

 Molecular mass:    87.94414 amu.
 Principal axes and moments of inertia in atomic units:
                           1         2         3
     Eigenvalues --   200.61331 364.01645 564.62975
           X           -0.28124   0.95964   0.00000
           Y            0.95964   0.28124   0.00000
           Z           -0.00000   0.00000   1.00000
 This molecule is an asymmetric top.
 Rotational symmetry number  1.
 Rotational temperatures (Kelvin)      0.43175     0.23794     0.15340
 Rotational constants (GHZ):           8.99612     4.95786     3.19633
 Zero-point vibrational energy      21711.3 (Joules/Mol)
                                    5.18913 (Kcal/Mol)
 Warning -- explicit consideration of   4 degrees of freedom as
           vibrations may cause significant error
 Vibrational temperatures:    243.72   337.30   592.22   832.18  1170.80
          (Kelvin)           2046.31

 Zero-point correction=                           0.008269 (Hartree/Particle)
 Thermal correction to Energy=                    0.012773
 Thermal correction to Enthalpy=                  0.013717
 Thermal correction to Gibbs Free Energy=        -0.019765
 Sum of electronic and zero-point Energies=           -871.521587
 Sum of electronic and thermal Energies=              -871.517084
 Sum of electronic and thermal Enthalpies=            -871.516140
 Sum of electronic and thermal Free Energies=         -871.549622

                     E (Thermal)             CV                S
                      KCal/Mol        Cal/Mol-Kelvin    Cal/Mol-Kelvin
 Total                    8.015             12.879             70.470
 Electronic               0.000              0.000              0.000
 Translational            0.889              2.981             39.335
 Rotational               0.889              2.981             25.225
 Vibrational              6.238              6.918              5.909
 Vibration     1          0.625              1.880              2.442
 Vibration     2          0.654              1.788              1.845
 Vibration     3          0.776              1.445              0.921
 Vibration     4          0.935              1.078              0.488

 Optimization completed.
    -- Stationary point found.
 Normal termination of Gaussian 09 at Wed Aug  3 22:52:24 2016.
