 Gaussian 09, Revision E.01,
 Gaussian 09:  EM64L-G09RevE.01 30-Nov-2015

 ------------------------------
 #p b3lyp/6-311++G(3df,2p) freq
 ------------------------------

 ---------
 b3lyp opt
 ---------
 Symbolic Z-matrix:
 Charge =  1 Multiplicity = 2

                         Standard orientation:
 ---------------------------------------------------------------------
 Center     Atomic      Atomic             Coordinates (Angstroms)
 Number     Number       Type             X           Y           Z
 ---------------------------------------------------------------------
      1         16           0       -0.000000    1.100519   -0.540108
      2         16           0       -0.000000   -1.100519   -0.540108
      3          6           0        0.000000    0.000000    2.126035
      4          6           0        0.000000    0.000000    0.754543
 ---------------------------------------------------------------------

 SCF Done:  E(UB3LYP) =  -872.124575547     A.U. after   16 cycles

 The electronic state is 2-A2.
 Alpha  occ. eigenvalues --  -89.22086 -89.22086 -10.48573 -10.48187  -8.29880
 Alpha  occ. eigenvalues --   -8.29879  -6.26101  -6.26089  -6.25963  -6.25962
 Alpha  occ. eigenvalues --   -6.25782  -6.25781  -1.18854  -0.97634  -0.96097
 Alpha  occ. eigenvalues --   -0.77420  -0.68253  -0.66481  -0.65038  -0.55142
 Alpha  occ. eigenvalues --   -0.52151  -0.49279
 Alpha virt. eigenvalues --   -0.39301  -0.35763  -0.24525  -0.23727  -0.17092
 Alpha virt. eigenvalues --   -0.14826  -0.11209  -0.11001  -0.10649  -0.10544
 Alpha virt. eigenvalues --   -0.09011  -0.08919  -0.06873  -0.04894  -0.04668

  Beta  occ. eigenvalues --  -89.21708 -89.21708 -10.48694 -10.48150  -8.29541
  Beta  occ. eigenvalues --   -8.29539  -6.25910  -6.25898  -6.25563  -6.25562
  Beta  occ. eigenvalues --   -6.24784  -6.24783  -1.17765  -0.95988  -0.95060
  Beta  occ. eigenvalues --   -0.76327  -0.65761  -0.64798  -0.64340  -0.52296
  Beta  occ. eigenvalues --   -0.47786
  Beta virt. eigenvalues --   -0.44659  -0.38523  -0.35640  -0.24195  -0.23170
  Beta virt. eigenvalues --   -0.16870  -0.14169  -0.11106  -0.10456  -0.10326
  Beta virt. eigenvalues --   -0.10240  -0.08924  -0.07461  -0.06439  -0.04477

 Mulliken charges and spin densities:
               1          2
     1  S    0.255667   0.543358
     2  S    0.255667   0.543358
     3  C    0.059870  -0.115540
     4  C    0.428797   0.028824
 Sum of Mulliken charges =   1.00000   1.00000

 Dipole moment (field-independent basis, Debye):
    X=             -0.0000    Y=              0.0000    Z=             -2.3304  Tot=              2.3304
 Quadrupole moment (field-independent basis, Debye-Ang):
   XX=            -34.1898   YY=            -22.0547   ZZ=            -33.0519
   XY=              0.0000   XZ=             -0.0000   YZ=              0.0000

  Exact polarizability:  33.943  -0.000  40.771  -0.000   0.000  64.628
 Approx polarizability:  53.823   0.000 228.481   0.000   0.000 125.385

                      1                      2                      3
                     B2                     A1                     B1
 Frequencies --    300.5608               313.8908               348.6068
 Red. masses --     14.5065                26.3037                12.2967
 Frc consts  --      0.7721                 1.5269                 0.8805
 IR Inten    --     39.5584                 0.1492                 0.7345

                      4                      5                      6
                     A1                     B2                     A1
 Frequencies --    723.7868               913.2180              1493.4736
 Red. masses --     15.6202                15.7962                12.2398
 Frc consts  --      4.8212                 7.7616                16.0850
 IR Inten    --      7.8900               203.6021               107.0133

 - Thermochemistry -
 -------------------
 Temperature   298.150 Kelvin.  Pressure   1.00000 Atm.
 Atom     1 has atomic number 16 and mass  31.97207

 Molecular mass:    87.94414 amu.
 Principal axes and moments of inertia in atomic units:
                           1         2         3
     Eigenvalues --   276.56275 284.70631 561.26906
           X            0.00000  -0.00000   1.00000
           Y            0.00000   1.00000   0.00000
           Z            1.00000  -0.00000   0.00000
 This molecule is an asymmetric top.
 Rotational symmetry number  2.
 Rotational temperatures (Kelvin)      0.31318     0.30422     0.15432
 Rotational constants (GHZ):           6.52561     6.33896     3.21547
 Zero-point vibrational energy      24484.8 (Joules/Mol)
                                    5.85200 (Kcal/Mol)
 Warning -- explicit consideration of   3 degrees of freedom as
           vibrations may cause significant error
 Vibrational temperatures:    432.44   451.62   501.57  1041.37  1313.92
          (Kelvin)           2148.77

 Zero-point correction=                           0.009326 (Hartree/Particle)
 Thermal correction to Energy=                    0.013504
 Thermal correction to Enthalpy=                  0.014448
 Thermal correction to Gibbs Free Energy=        -0.018327
 Sum of electronic and zero-point Energies=           -872.115250
 Sum of electronic and thermal Energies=              -872.111072
 Sum of electronic and thermal Enthalpies=            -872.110128
 Sum of electronic and thermal Free Energies=         -872.142903

                     E (Thermal)             CV                S
                      KCal/Mol        Cal/Mol-Kelvin    Cal/Mol-Kelvin
 Total                    8.474             12.203             68.981
 Electronic               0.000              0.000              1.377
 Translational            0.889              2.981             39.335
 Rotational               0.889              2.981             23.917
 Vibrational              6.696              6.241              4.352
 Vibration     1          0.693              1.673              1.414
 Vibration     2          0.702              1.647              1.342
 Vibration     3          0.726              1.578              1.172

 Normal termination of Gaussian 09 at Wed Aug  3 22:48:57 2016.
