 Gaussian 09, Revision E.01,
 Gaussian 09:  EM64L-G09RevE.01 30-Nov-2015

 ------------------------------
 #p b3lyp/6-311++G(3df,2p) freq
 ------------------------------

 ---------
 b3lyp opt
 ---------
 Symbolic Z-matrix:
 Charge =  0 Multiplicity = 1

                         Standard orientation:
 ---------------------------------------------------------------------
 Center     Atomic      Atomic             Coordinates (Angstroms)
 Number     Number       Type             X           Y           Z
 ---------------------------------------------------------------------
      1         16           0        1.492372    0.885254   -0.000000
      2         16           0       -0.967048   -1.195421   -0.000000
      3          6           0       -1.400863    0.497278    0.000000
      4          6           0       -0.000000    0.329833    0.000000
 ---------------------------------------------------------------------

 SCF Done:  E(RB3LYP) =  -872.538382179     A.U. after   13 cycles

 The electronic state is 1-A'.
 Alpha  occ. eigenvalues --  -88.92957 -88.87572 -10.29950 -10.26858  -8.01368
 Alpha  occ. eigenvalues --   -7.96189  -5.97461  -5.97405  -5.97070  -5.92420
 Alpha  occ. eigenvalues --   -5.92300  -5.91648  -0.94061  -0.79518  -0.64048
 Alpha  occ. eigenvalues --   -0.50719  -0.43971  -0.42899  -0.39698  -0.30767
 Alpha  occ. eigenvalues --   -0.30395  -0.24922
 Alpha virt. eigenvalues --   -0.16502  -0.05182  -0.04799  -0.00019   0.00333
 Alpha virt. eigenvalues --    0.02730   0.03898   0.04562   0.05964   0.06558
 Alpha virt. eigenvalues --    0.07663   0.07828   0.08808   0.09645   0.11091

 Mulliken charges:
               1
     1  S   -0.250803
     2  S    0.084720
     3  C   -0.233132
     4  C    0.399216
 Sum of Mulliken charges =  -0.00000

 Dipole moment (field-independent basis, Debye):
    X=              0.4608    Y=             -1.7513    Z=             -0.0000  Tot=              1.8109
 Quadrupole moment (field-independent basis, Debye-Ang):
   XX=            -40.0279   YY=            -37.0581   ZZ=            -35.6637
   XY=              3.1060   XZ=              0.0000   YZ=             -0.0000

  Exact polarizability:  82.781  21.350  73.852  -0.000   0.000  40.964
 Approx polarizability: 170.881  69.718 177.274   0.000   0.000  68.776

                      1                      2                      3
                     A'                     A"                     A'
 Frequencies --    311.8179               394.8376               445.1690
 Red. masses --     20.7076                12.6031                14.5609
 Frc consts  --      1.1863                 1.1576                 1.7001
 IR Inten    --      1.6511                 1.3325               131.9413

                      4                      5                      6
                     A'                     A'                     A'
 Frequencies --    707.7189               819.6874              1419.8588
 Red. masses --     15.1649                15.1674                12.4835
 Frc consts  --      4.4752                 6.0042                14.8278
 IR Inten    --     83.5793                68.7216               112.4139

 - Thermochemistry -
 -------------------
 Temperature   298.150 Kelvin.  Pressure   1.00000 Atm.
 Atom     1 has atomic number 16 and mass  31.97207

 Molecular mass:    87.94414 amu.
 Principal axes and moments of inertia in atomic units:
                           1         2         3
     Eigenvalues --    88.47138 624.57676 713.04814
           X            0.81567  -0.57851   0.00000
           Y            0.57851   0.81567   0.00000
           Z           -0.00000  -0.00000   1.00000
 This molecule is an asymmetric top.
 Rotational symmetry number  1.
 Rotational temperatures (Kelvin)      0.97900     0.13868     0.12147
 Rotational constants (GHZ):          20.39915     2.88954     2.53102
 Zero-point vibrational energy      24518.0 (Joules/Mol)
                                    5.85994 (Kcal/Mol)
 Warning -- explicit consideration of   3 degrees of freedom as
           vibrations may cause significant error
 Vibrational temperatures:    448.64   568.08   640.50  1018.25  1179.35
          (Kelvin)           2042.86

 Zero-point correction=                           0.009338 (Hartree/Particle)
 Thermal correction to Energy=                    0.013348
 Thermal correction to Enthalpy=                  0.014292
 Thermal correction to Gibbs Free Energy=        -0.018095
 Sum of electronic and zero-point Energies=           -872.529044
 Sum of electronic and thermal Energies=              -872.525034
 Sum of electronic and thermal Enthalpies=            -872.524090
 Sum of electronic and thermal Free Energies=         -872.556478

                     E (Thermal)             CV                S
                      KCal/Mol        Cal/Mol-Kelvin    Cal/Mol-Kelvin
 Total                    8.376             11.998             68.166
 Electronic               0.000              0.000              0.000
 Translational            0.889              2.981             39.335
 Rotational               0.889              2.981             25.180
 Vibrational              6.599              6.036              3.650
 Vibration     1          0.700              1.651              1.353
 Vibration     2          0.762              1.481              0.982
 Vibration     3          0.805              1.372              0.811

 Optimization completed.
    -- Stationary point found.
 Normal termination of Gaussian 09 at Wed Aug  3 22:48:54 2016.
