 Gaussian 09, Revision E.01,
 Gaussian 09:  EM64L-G09RevE.01 30-Nov-2015

 ------------------------------
 #p b3lyp/6-311++G(3df,2p) freq
 ------------------------------

 ---------
 b3lyp opt
 ---------
 Symbolic Z-matrix:
 Charge =  2 Multiplicity = 1

                         Standard orientation:
 ---------------------------------------------------------------------
 Center     Atomic      Atomic             Coordinates (Angstroms)
 Number     Number       Type             X           Y           Z
 ---------------------------------------------------------------------
      1         16           0       -0.751202    1.617705    0.000000
      2         16           0        0.971782   -1.092817   -0.000000
      3          6           0       -0.588214   -1.731768    0.000000
      4          6           0       -0.000000    0.332066   -0.000000
 ---------------------------------------------------------------------

 SCF Done:  E(RB3LYP) =  -871.605033282     A.U. after   13 cycles

 The electronic state is 1-A'.
 Alpha  occ. eigenvalues --  -89.45099 -89.43242 -10.84165 -10.79493  -8.53100
 Alpha  occ. eigenvalues --   -8.51176  -6.49401  -6.48921  -6.48865  -6.47340
 Alpha  occ. eigenvalues --   -6.47078  -6.47006  -1.39909  -1.32372  -1.09494
 Alpha  occ. eigenvalues --   -1.01623  -0.93659  -0.89058  -0.85088  -0.80801
 Alpha  occ. eigenvalues --   -0.80448
 Alpha virt. eigenvalues --   -0.65220  -0.60412  -0.55859  -0.54834  -0.48709
 Alpha virt. eigenvalues --   -0.39944  -0.34888  -0.32643  -0.27390  -0.26305
 Alpha virt. eigenvalues --   -0.24787  -0.24726  -0.24587  -0.24199  -0.22632

 Mulliken charges:
               1
     1  S    0.512188
     2  S    0.335889
     3  C    0.476151
     4  C    0.675771
 Sum of Mulliken charges =   2.00000

 Dipole moment (field-independent basis, Debye):
    X=              0.2566    Y=             -0.3484    Z=              0.0000  Tot=              0.4327
 Quadrupole moment (field-independent basis, Debye-Ang):
   XX=            -21.7690   YY=             -4.3891   ZZ=            -29.6820
   XY=             -9.6523   XZ=              0.0000   YZ=              0.0000

  Exact polarizability:  43.401  -9.945  68.895  -0.000  -0.000  28.392
 Approx polarizability:  98.943 -26.622 164.132  -0.000   0.000  47.272

                      1                      2                      3
                     A'                     A'                     A"
 Frequencies --     79.7286               298.4677               337.7032
 Red. masses --     13.6104                12.8626                13.2440
 Frc consts  --      0.0510                 0.6751                 0.8899
 IR Inten    --      7.2502                19.3987                 4.2074

                      4                      5                      6
                     A'                     A'                     A'
 Frequencies --    508.2992               904.0197              1510.6055
 Red. masses --     28.1369                14.9357                13.8342
 Frc consts  --      4.2832                 7.1917                18.5997
 IR Inten    --      6.9262               148.4040                 3.8655

 - Thermochemistry -
 -------------------
 Temperature   298.150 Kelvin.  Pressure   1.00000 Atm.
 Atom     1 has atomic number 16 and mass  31.97207

 Molecular mass:    87.94414 amu.
 Principal axes and moments of inertia in atomic units:
                           1         2         3
     Eigenvalues --    89.36613 666.09639 755.46252
           X           -0.41161   0.91136   0.00000
           Y            0.91136   0.41161   0.00000
           Z            0.00000   0.00000   1.00000
 This molecule is an asymmetric top.
 Rotational symmetry number  1.
 Rotational temperatures (Kelvin)      0.96920     0.13003     0.11465
 Rotational constants (GHZ):          20.19491     2.70943     2.38892
 Zero-point vibrational energy      21765.0 (Joules/Mol)
                                    5.20196 (Kcal/Mol)
 Warning -- explicit consideration of   4 degrees of freedom as
           vibrations may cause significant error
 Vibrational temperatures:    114.71   429.43   485.88   731.33  1300.68
          (Kelvin)           2173.42

 Zero-point correction=                           0.008290 (Hartree/Particle)
 Thermal correction to Energy=                    0.012970
 Thermal correction to Enthalpy=                  0.013914
 Thermal correction to Gibbs Free Energy=        -0.020286
 Sum of electronic and zero-point Energies=           -871.596743
 Sum of electronic and thermal Energies=              -871.592064
 Sum of electronic and thermal Enthalpies=            -871.591119
 Sum of electronic and thermal Free Energies=         -871.625319

                     E (Thermal)             CV                S
                      KCal/Mol        Cal/Mol-Kelvin    Cal/Mol-Kelvin
 Total                    8.139             13.000             71.979
 Electronic               0.000              0.000              0.000
 Translational            0.889              2.981             39.335
 Rotational               0.889              2.981             25.312
 Vibrational              6.361              7.038              7.332
 Vibration     1          0.600              1.963              3.898
 Vibration     2          0.692              1.677              1.425
 Vibration     3          0.718              1.600              1.223
 Vibration     4          0.863              1.232              0.638

 Normal termination of Gaussian 09 at Wed Aug  3 22:52:17 2016.
