 Gaussian 09, Revision E.01,
 Gaussian 09:  EM64L-G09RevE.01 30-Nov-2015

 ------------------------------
 #p b3lyp/6-311++G(3df,2p) freq
 ------------------------------

 ---------
 b3lyp opt
 ---------
 Symbolic Z-matrix:
 Charge =  1 Multiplicity = 2

                         Standard orientation:
 ---------------------------------------------------------------------
 Center     Atomic      Atomic             Coordinates (Angstroms)
 Number     Number       Type             X           Y           Z
 ---------------------------------------------------------------------
      1         16           0        0.000000   -0.000000    2.179128
      2         16           0       -0.000000    0.000000   -2.179128
      3          6           0        0.000000   -0.000000    0.655413
      4          6           0       -0.000000    0.000000   -0.655413
 ---------------------------------------------------------------------

 SCF Done:  E(UB3LYP) =  -872.299112341     A.U. after   14 cycles

 Unable to determine electronic state:  partially filled degenerate orbitals.
 Alpha  occ. eigenvalues --  -89.14870 -89.14869 -10.50434 -10.50339  -8.23154
 Alpha  occ. eigenvalues --   -8.23151  -6.19256  -6.19255  -6.19125  -6.19125
 Alpha  occ. eigenvalues --   -6.19117  -6.19116  -1.10849  -1.06297  -0.95348
 Alpha  occ. eigenvalues --   -0.71979  -0.69026  -0.64800  -0.63754  -0.57063
 Alpha  occ. eigenvalues --   -0.55895  -0.45314
 Alpha virt. eigenvalues --   -0.39598  -0.23902  -0.22712  -0.16263  -0.15951
 Alpha virt. eigenvalues --   -0.12715  -0.11877  -0.09760  -0.09611  -0.05950
 Alpha virt. eigenvalues --   -0.05937  -0.05897  -0.04545  -0.02660  -0.02583

  Beta  occ. eigenvalues --  -89.14619 -89.14619 -10.50207 -10.50115  -8.22929
  Beta  occ. eigenvalues --   -8.22926  -6.19110  -6.19109  -6.19001  -6.19001
  Beta  occ. eigenvalues --   -6.18333  -6.18332  -1.09904  -1.05549  -0.93854
  Beta  occ. eigenvalues --   -0.70713  -0.68023  -0.63489  -0.62110  -0.55497
  Beta  occ. eigenvalues --   -0.53867
  Beta virt. eigenvalues --   -0.39010  -0.37145  -0.22455  -0.21119  -0.16203
  Beta virt. eigenvalues --   -0.15233  -0.12272  -0.11788  -0.09787  -0.09485
  Beta virt. eigenvalues --   -0.05905  -0.05694  -0.05637  -0.04346  -0.02581

 Mulliken charges and spin densities:
               1          2
     1  S    0.171380   0.406916
     2  S    0.171380   0.406916
     3  C    0.328620   0.093084
     4  C    0.328619   0.093084
 Sum of Mulliken charges =   1.00000   1.00000

 Dipole moment (field-independent basis, Debye):
    X=              0.0000    Y=              0.0000    Z=              0.0000  Tot=              0.0000
 Quadrupole moment (field-independent basis, Debye-Ang):
   XX=            -31.4674   YY=            -33.4480   ZZ=             -8.1984
   XY=             -0.0000   XZ=             -0.0000   YZ=             -0.0000

  Exact polarizability:  32.666  -0.000  33.428   0.000  -0.000 125.184
 Approx polarizability:  52.859  -0.000  51.053   0.000  -0.000 332.866

                      1                      2                      3
                     PI                     PI                     PI
 Frequencies --    172.7632               183.0564               388.4732
 Red. masses --     14.4661                14.4661                12.2513
 Frc consts  --      0.2544                 0.2856                 1.0893
 IR Inten    --      0.4105                 1.4243                 0.0000

                      4                      5                      6
                     PI                     SG                     SG
 Frequencies --    534.5799               580.3530              1336.3222
 Red. masses --     12.2513                29.9097                14.4661
 Frc consts  --      2.0628                 5.9353                15.2203
 IR Inten    --      0.0000                 0.0000                71.7121

                      7
                     SG
 Frequencies --   1887.9503
 Red. masses --     12.3188
 Frc consts  --     25.8702
 IR Inten    --      0.0000

 - Thermochemistry -
 -------------------
 Temperature   298.150 Kelvin.  Pressure   1.00000 Atm.
 Atom     1 has atomic number 16 and mass  31.97207

 Molecular mass:    87.94414 amu.
 Principal axes and moments of inertia in atomic units:
                           1         2         3
     Eigenvalues --     0.000001121.152261121.15226
           X            0.00000   0.94900  -0.31527
           Y           -0.00000   0.31527   0.94900
           Z            1.00000  -0.00000   0.00000
 This molecule is a prolate symmetric top.
 Rotational symmetry number  1.
 Warning -- assumption of classical behavior for rotation
           may cause significant error
 Rotational temperature (Kelvin)      0.07725
 Rotational constant (GHZ):           1.609720
 Zero-point vibrational energy      30406.1 (Joules/Mol)
                                    7.26723 (Kcal/Mol)
 Warning -- explicit consideration of   5 degrees of freedom as
           vibrations may cause significant error
 Vibrational temperatures:    248.57   263.38   558.93   769.14   835.00
          (Kelvin)           1922.67  2716.34

 Zero-point correction=                           0.011581 (Hartree/Particle)
 Thermal correction to Energy=                    0.015836
 Thermal correction to Enthalpy=                  0.016780
 Thermal correction to Gibbs Free Energy=        -0.014534
 Sum of electronic and zero-point Energies=           -872.287531
 Sum of electronic and thermal Energies=              -872.283276
 Sum of electronic and thermal Enthalpies=            -872.282332
 Sum of electronic and thermal Free Energies=         -872.313646

                     E (Thermal)             CV                S
                      KCal/Mol        Cal/Mol-Kelvin    Cal/Mol-Kelvin
 Total                    9.937             12.598             65.906
 Electronic               0.000              0.000              1.377
 Translational            0.889              2.981             39.335
 Rotational               0.592              1.987             18.398
 Vibrational              8.456              7.630              6.796
 Vibration     1          0.626              1.876              2.405
 Vibration     2          0.631              1.863              2.297
 Vibration     3          0.757              1.495              1.006
 Vibration     4          0.890              1.174              0.577
 Vibration     5          0.937              1.074              0.485

 Optimization completed.
    -- Stationary point found.
 Normal termination of Gaussian 09 at Wed Aug  3 22:52:33 2016.
