 Gaussian 09, Revision E.01,
 Gaussian 09:  EM64L-G09RevE.01 30-Nov-2015

 ------------------------------
 #p b3lyp/6-311++G(3df,2p) freq
 ------------------------------

 ---------
 b3lyp opt
 ---------
 Symbolic Z-matrix:
 Charge =  0 Multiplicity = 1

                         Standard orientation:
 ---------------------------------------------------------------------
 Center     Atomic      Atomic             Coordinates (Angstroms)
 Number     Number       Type             X           Y           Z
 ---------------------------------------------------------------------
      1         16           0        0.000000    1.055274   -0.559511
      2         16           0       -0.000000   -1.055274   -0.559511
      3          6           0        0.000000   -0.000000    2.141759
      4          6           0        0.000000   -0.000000    0.842300
 ---------------------------------------------------------------------

 SCF Done:  E(RB3LYP) =  -872.491231870     A.U. after   13 cycles

 The electronic state is 1-A1.
 Alpha  occ. eigenvalues --  -88.93192 -88.93192 -10.25536 -10.24992  -8.01414
 Alpha  occ. eigenvalues --   -8.01411  -5.97803  -5.97783  -5.97664  -5.97662
 Alpha  occ. eigenvalues --   -5.96637  -5.96635  -0.92746  -0.75842  -0.69051
 Alpha  occ. eigenvalues --   -0.52595  -0.42074  -0.40989  -0.40594  -0.31754
 Alpha  occ. eigenvalues --   -0.27715  -0.26317
 Alpha virt. eigenvalues --   -0.15458  -0.11522  -0.03199  -0.01879   0.00750
 Alpha virt. eigenvalues --    0.02941   0.04683   0.04867   0.05081   0.05096
 Alpha virt. eigenvalues --    0.07183   0.07909   0.08723   0.10816   0.11088

 Mulliken charges:
               1
     1  S   -0.120468
     2  S   -0.120468
     3  C   -0.373579
     4  C    0.614514
 Sum of Mulliken charges =  -0.00000

 Dipole moment (field-independent basis, Debye):
    X=             -0.0000    Y=             -0.0000    Z=             -2.6268  Tot=              2.6268
 Quadrupole moment (field-independent basis, Debye-Ang):
   XX=            -39.8458   YY=            -32.9701   ZZ=            -42.5455
   XY=             -0.0000   XZ=             -0.0000   YZ=             -0.0000

  Exact polarizability:  43.407  -0.000  64.313  -0.000  -0.000  75.132
 Approx polarizability:  65.265   0.000 130.165   0.000   0.000 144.832

                      1                      2                      3
                     B2                     B1                     A1
 Frequencies --    124.5797               308.1826               458.2128
 Red. masses --     14.1973                12.2532                23.6684
 Frc consts  --      0.1298                 0.6857                 2.9279
 IR Inten    --     21.6560                 0.0504                 2.6896

                      4                      5                      6
                     B2                     A1                     A1
 Frequencies --    583.8561               697.4254              1715.8684
 Red. masses --     16.4860                17.0803                12.0569
 Frc consts  --      3.3111                 4.8949                20.9148
 IR Inten    --      8.9747                 0.1939               127.7994

 - Thermochemistry -
 -------------------
 Temperature   298.150 Kelvin.  Pressure   1.00000 Atm.
 Atom     1 has atomic number 16 and mass  31.97207

 Molecular mass:    87.94414 amu.
 Principal axes and moments of inertia in atomic units:
                           1         2         3
     Eigenvalues --   254.29001 298.45910 552.74911
           X            0.00000  -0.00000   1.00000
           Y            0.00000   1.00000   0.00000
           Z            1.00000  -0.00000  -0.00000
 This molecule is an asymmetric top.
 Rotational symmetry number  2.
 Rotational temperatures (Kelvin)      0.34061     0.29020     0.15670
 Rotational constants (GHZ):           7.09718     6.04686     3.26503
 Zero-point vibrational energy      23256.2 (Joules/Mol)
                                    5.55835 (Kcal/Mol)
 Warning -- explicit consideration of   4 degrees of freedom as
           vibrations may cause significant error
 Vibrational temperatures:    179.24   443.41   659.27   840.04  1003.44
          (Kelvin)           2468.75

 Zero-point correction=                           0.008858 (Hartree/Particle)
 Thermal correction to Energy=                    0.013331
 Thermal correction to Enthalpy=                  0.014275
 Thermal correction to Gibbs Free Energy=        -0.018587
 Sum of electronic and zero-point Energies=           -872.482374
 Sum of electronic and thermal Energies=              -872.477901
 Sum of electronic and thermal Enthalpies=            -872.476957
 Sum of electronic and thermal Free Energies=         -872.509819

                     E (Thermal)             CV                S
                      KCal/Mol        Cal/Mol-Kelvin    Cal/Mol-Kelvin
 Total                    8.365             12.826             69.164
 Electronic               0.000              0.000              0.000
 Translational            0.889              2.981             39.335
 Rotational               0.889              2.981             23.865
 Vibrational              6.588              6.864              5.964
 Vibration     1          0.610              1.928              3.028
 Vibration     2          0.698              1.658              1.372
 Vibration     3          0.816              1.343              0.771
 Vibration     4          0.941              1.066              0.478

 Optimization completed.
    -- Stationary point found.
 Normal termination of Gaussian 09 at Wed Aug  3 22:48:08 2016.
