 Gaussian 09, Revision E.01,
 Gaussian 09:  EM64L-G09RevE.01 30-Nov-2015

 ------------------------------
 #p b3lyp/6-311++G(3df,2p) freq
 ------------------------------

 ---------
 b3lyp opt
 ---------
 Symbolic Z-matrix:
 Charge =  0 Multiplicity = 3

                         Standard orientation:
 ---------------------------------------------------------------------
 Center     Atomic      Atomic             Coordinates (Angstroms)
 Number     Number       Type             X           Y           Z
 ---------------------------------------------------------------------
      1         16           0        0.000000    0.891045    0.000000
      2         16           0       -1.383829   -0.559129   -0.000000
      3          6           0        1.288059   -0.134723    0.000000
      4          6           0        2.402153   -0.750385    0.000000
 ---------------------------------------------------------------------

 SCF Done:  E(UB3LYP) =  -872.476130136     A.U. after   24 cycles

 The electronic state is 3-A".
 Alpha  occ. eigenvalues --  -88.97575 -88.92454 -10.23251 -10.22972  -8.05594
 Alpha  occ. eigenvalues --   -8.00734  -6.01799  -6.01668  -6.01451  -5.97205
 Alpha  occ. eigenvalues --   -5.96721  -5.96554  -0.90940  -0.78469  -0.71014
 Alpha  occ. eigenvalues --   -0.53313  -0.45409  -0.43175  -0.34311  -0.32655
 Alpha  occ. eigenvalues --   -0.31527  -0.30994  -0.26833
 Alpha virt. eigenvalues --   -0.08990  -0.03286  -0.01046   0.00281   0.00879
 Alpha virt. eigenvalues --    0.03226   0.03611   0.04135   0.04722   0.07042
 Alpha virt. eigenvalues --    0.07081   0.08217   0.08332   0.10603   0.11836

  Beta  occ. eigenvalues --  -88.97289 -88.91870 -10.22883 -10.22121  -8.05338
  Beta  occ. eigenvalues --   -8.00209  -6.01642  -6.01318  -6.00758  -5.96617
  Beta  occ. eigenvalues --   -5.95756  -5.95644  -0.89362  -0.75575  -0.67804
  Beta  occ. eigenvalues --   -0.51708  -0.43408  -0.40166  -0.30477  -0.29186
  Beta  occ. eigenvalues --   -0.28930
  Beta virt. eigenvalues --   -0.21240  -0.18309  -0.07533  -0.02357   0.00895
  Beta virt. eigenvalues --    0.00941   0.01767   0.03511   0.04014   0.04657
  Beta virt. eigenvalues --    0.05056   0.07204   0.07415   0.08631   0.08908

 Mulliken charges and spin densities:
               1          2
     1  S   -0.301062   0.423371
     2  S    0.000217   0.887858
     3  C    0.478356   0.207541
     4  C   -0.177511   0.481229
 Sum of Mulliken charges =  -0.00000   2.00000

 Dipole moment (field-independent basis, Debye):
    X=             -3.2057    Y=              1.7794    Z=             -0.0000  Tot=              3.6665
 Quadrupole moment (field-independent basis, Debye-Ang):
   XX=            -44.9633   YY=            -36.0709   ZZ=            -37.7409
   XY=              3.7159   XZ=             -0.0000   YZ=             -0.0000

  Exact polarizability: 147.370 -14.529  62.812   0.000  -0.000  43.056
 Approx polarizability: 394.546 -13.419 108.193   0.000   0.000  66.959

                      1                      2                      3
                     A'                     A"                     A'
 Frequencies --     97.4596               245.9756               319.8812
 Red. masses --     16.6728                12.2908                13.6913
 Frc consts  --      0.0933                 0.4381                 0.8254
 IR Inten    --     17.1003                 0.4258                 7.9963

                      4                      5                      6
                     A'                     A'                     A'
 Frequencies --    495.2968               721.9919              1697.3550
 Red. masses --     28.7922                16.7585                12.0734
 Frc consts  --      4.1616                 5.1469                20.4940
 IR Inten    --     25.7777                 5.9415                57.7048

 - Thermochemistry -
 -------------------
 Temperature   298.150 Kelvin.  Pressure   1.00000 Atm.
 Atom     1 has atomic number 16 and mass  31.97207

 Molecular mass:    87.94414 amu.
 Principal axes and moments of inertia in atomic units:
                           1         2         3
     Eigenvalues --   151.21632 537.04859 688.26491
           X            0.99995  -0.00949  -0.00000
           Y            0.00949   0.99995  -0.00000
           Z            0.00000   0.00000   1.00000
 This molecule is an asymmetric top.
 Rotational symmetry number  1.
 Rotational temperatures (Kelvin)      0.57278     0.16128     0.12584
 Rotational constants (GHZ):          11.93483     3.36048     2.62216
 Zero-point vibrational energy      21401.0 (Joules/Mol)
                                    5.11495 (Kcal/Mol)
 Warning -- explicit consideration of   4 degrees of freedom as
           vibrations may cause significant error
 Vibrational temperatures:    140.22   353.90   460.24   712.62  1038.78
          (Kelvin)           2442.11

 Zero-point correction=                           0.008151 (Hartree/Particle)
 Thermal correction to Energy=                    0.012945
 Thermal correction to Enthalpy=                  0.013889
 Thermal correction to Gibbs Free Energy=        -0.021544
 Sum of electronic and zero-point Energies=           -872.467979
 Sum of electronic and thermal Energies=              -872.463185
 Sum of electronic and thermal Enthalpies=            -872.462241
 Sum of electronic and thermal Free Energies=         -872.497675

                     E (Thermal)             CV                S
                      KCal/Mol        Cal/Mol-Kelvin    Cal/Mol-Kelvin
 Total                    8.123             13.403             74.577
 Electronic               0.000              0.000              2.183
 Translational            0.889              2.981             39.335
 Rotational               0.889              2.981             25.528
 Vibrational              6.346              7.441              7.531
 Vibration     1          0.603              1.951              3.505
 Vibration     2          0.660              1.769              1.759
 Vibration     3          0.706              1.636              1.311
 Vibration     4          0.851              1.260              0.670

 Normal termination of Gaussian 09 at Wed Aug  3 22:49:40 2016.
