 Gaussian 09, Revision E.01,
 Gaussian 09:  EM64L-G09RevE.01 30-Nov-2015

 ------------------------------
 #p b3lyp/6-311++G(3df,2p) freq
 ------------------------------

 ---------
 b3lyp opt
 ---------
 Symbolic Z-matrix:
 Charge =  0 Multiplicity = 1

                         Standard orientation:
 ---------------------------------------------------------------------
 Center     Atomic      Atomic             Coordinates (Angstroms)
 Number     Number       Type             X           Y           Z
 ---------------------------------------------------------------------
      1         16           0        0.000000    0.672117    0.000000
      2         16           0       -1.530165   -0.495001    0.000000
      3          6           0        1.424329   -0.070919    0.000000
      4          6           0        2.656111   -0.401389    0.000000
 ---------------------------------------------------------------------

 SCF Done:  E(RB3LYP) =  -872.500793897     A.U. after   16 cycles

 The electronic state is 1-A'.
 Alpha  occ. eigenvalues --  -89.00006 -88.90978 -10.23259 -10.21402  -8.07765
 Alpha  occ. eigenvalues --   -7.99463  -6.03901  -6.03901  -6.03488  -5.95771
 Alpha  occ. eigenvalues --   -5.95603  -5.94822  -0.91617  -0.78365  -0.70067
 Alpha  occ. eigenvalues --   -0.52837  -0.44511  -0.43251  -0.31482  -0.31348
 Alpha  occ. eigenvalues --   -0.30668  -0.29335
 Alpha virt. eigenvalues --   -0.19982  -0.06980  -0.02580  -0.00159   0.00456
 Alpha virt. eigenvalues --    0.01895   0.03123   0.03228   0.04576   0.05879
 Alpha virt. eigenvalues --    0.06887   0.07260   0.08249   0.08514   0.09857

 Mulliken charges:
               1
     1  S   -0.155692
     2  S   -0.047147
     3  C    0.429765
     4  C   -0.226927
 Sum of Mulliken charges =  -0.00000

 Dipole moment (field-independent basis, Debye):
    X=             -3.2593    Y=              1.2777    Z=              0.0000  Tot=              3.5008
 Quadrupole moment (field-independent basis, Debye-Ang):
   XX=            -48.0635   YY=            -37.2854   ZZ=            -35.5306
   XY=              3.1923   XZ=              0.0000   YZ=             -0.0000

  Exact polarizability: 125.887   1.955  51.225   0.000   0.000  42.563
 Approx polarizability: 362.552  16.670  91.531  -0.000  -0.000  70.124

                      1                      2                      3
                     A'                     A"                     A'
 Frequencies --    135.7280               166.8027               386.5414
 Red. masses --     15.8828                12.2242                14.6003
 Frc consts  --      0.1724                 0.2004                 1.2853
 IR Inten    --      3.9839                 6.8168                 3.7578

                      4                      5                      6
                     A'                     A'                     A'
 Frequencies --    634.0633               821.2118              1904.9333
 Red. masses --     28.4933                16.8886                12.0936
 Frc consts  --      6.7493                 6.7105                25.8562
 IR Inten    --     36.2235                40.6993               802.7996

 - Thermochemistry -
 -------------------
 Temperature   298.150 Kelvin.  Pressure   1.00000 Atm.
 Atom     1 has atomic number 16 and mass  31.97207

 Molecular mass:    87.94414 amu.
 Principal axes and moments of inertia in atomic units:
                           1         2         3
     Eigenvalues --    84.34904 658.91112 743.26016
           X            0.99798  -0.06359   0.00000
           Y            0.06359   0.99798   0.00000
           Z            0.00000   0.00000   1.00000
 This molecule is an asymmetric top.
 Rotational symmetry number  1.
 Rotational temperatures (Kelvin)      1.02685     0.13145     0.11653
 Rotational constants (GHZ):          21.39611     2.73898     2.42814
 Zero-point vibrational energy      24220.1 (Joules/Mol)
                                    5.78874 (Kcal/Mol)
 Warning -- explicit consideration of   3 degrees of freedom as
           vibrations may cause significant error
 Vibrational temperatures:    195.28   239.99   556.15   912.27  1181.54
          (Kelvin)           2740.77

 Zero-point correction=                           0.009225 (Hartree/Particle)
 Thermal correction to Energy=                    0.013879
 Thermal correction to Enthalpy=                  0.014823
 Thermal correction to Gibbs Free Energy=        -0.019148
 Sum of electronic and zero-point Energies=           -872.491569
 Sum of electronic and thermal Energies=              -872.486915
 Sum of electronic and thermal Enthalpies=            -872.485971
 Sum of electronic and thermal Free Energies=         -872.519942

                     E (Thermal)             CV                S
                      KCal/Mol        Cal/Mol-Kelvin    Cal/Mol-Kelvin
 Total                    8.709             12.856             71.498
 Electronic               0.000              0.000              0.000
 Translational            0.889              2.981             39.335
 Rotational               0.889              2.981             25.227
 Vibrational              6.932              6.894              6.935
 Vibration     1          0.614              1.918              2.863
 Vibration     2          0.624              1.883              2.471
 Vibration     3          0.755              1.499              1.013

 Optimization completed.
    -- Stationary point found.
 Normal termination of Gaussian 09 at Wed Aug  3 22:48:52 2016.
