 Gaussian 09, Revision E.01,
 Gaussian 09:  EM64L-G09RevE.01 30-Nov-2015

 ------------------------------
 #p b3lyp/6-311++G(3df,2p) freq
 ------------------------------

 ---------
 b3lyp opt
 ---------
 Symbolic Z-matrix:
 Charge =  0 Multiplicity = 3

                         Standard orientation:
 ---------------------------------------------------------------------
 Center     Atomic      Atomic             Coordinates (Angstroms)
 Number     Number       Type             X           Y           Z
 ---------------------------------------------------------------------
      1         16           0        0.000000    0.000000    0.427520
      2          6           0        0.000000    0.000000   -1.140052
 ---------------------------------------------------------------------

 SCF Done:  E(UB3LYP) =  -436.136105457     A.U. after   13 cycles

 Unable to determine electronic state:  partially filled degenerate orbitals.
 Alpha  occ. eigenvalues --  -88.90012 -10.29359  -7.98388  -5.94823  -5.94320
 Alpha  occ. eigenvalues --   -5.94094  -0.83592  -0.55521  -0.39470  -0.37268
 Alpha  occ. eigenvalues --   -0.35643  -0.19405
 Alpha virt. eigenvalues --   -0.11844   0.01450   0.02283   0.04841   0.04925
 Alpha virt. eigenvalues --    0.07121   0.09679   0.10139   0.12650   0.15555
 Alpha virt. eigenvalues --    0.19777   0.19852   0.27143   0.27289   0.28731

  Beta  occ. eigenvalues --  -88.89757 -10.26451  -7.98156  -5.94391  -5.94244
  Beta  occ. eigenvalues --   -5.93481  -0.80404  -0.48746  -0.34499  -0.32043
  Beta virt. eigenvalues --   -0.21503  -0.08506  -0.05761   0.02121   0.02741
  Beta virt. eigenvalues --    0.04821   0.05111   0.07857   0.10528   0.10934
  Beta virt. eigenvalues --    0.14630   0.16305   0.20321   0.20355   0.28190

 Mulliken charges and spin densities:
               1          2
     1  S   -0.040933   0.382771
     2  C    0.040933   1.617229
 Sum of Mulliken charges =  -0.00000   2.00000

 Dipole moment (field-independent basis, Debye):
    X=              0.0000    Y=              0.0000    Z=             -0.0013  Tot=              0.0013
 Quadrupole moment (field-independent basis, Debye-Ang):
   XX=            -20.3781   YY=            -18.1599   ZZ=            -16.8865
   XY=              0.0000   XZ=              0.0000   YZ=              0.0000

  Exact polarizability:  29.884  -0.000  24.700   0.000  -0.000  40.716
 Approx polarizability:  35.907  -0.000  35.922  -0.000  -0.000  85.699

                      1
                     SG
 Frequencies --   1144.1650
 Red. masses --     14.4661
 Frc consts  --     11.1578
 IR Inten    --      0.3921

 - Thermochemistry -
 -------------------
 Temperature   298.150 Kelvin.  Pressure   1.00000 Atm.
 Atom     1 has atomic number 16 and mass  31.97207

 Molecular mass:    43.97207 amu.
 Principal axes and moments of inertia in atomic units:
                           1         2         3
     Eigenvalues --     0.00000  76.56457  76.56457
           X            0.00000  -0.00000   1.00000
           Y            0.00000   1.00000   0.00000
           Z            1.00000   0.00000   0.00000
 This molecule is a prolate symmetric top.
 Rotational symmetry number  1.
 Rotational temperature (Kelvin)      1.13125
 Rotational constant (GHZ):          23.571494
 Zero-point vibrational energy       6843.6 (Joules/Mol)
                                    1.63567 (Kcal/Mol)
 Vibrational temperatures:   1646.20
          (Kelvin)

 Zero-point correction=                           0.002607 (Hartree/Particle)
 Thermal correction to Energy=                    0.004988
 Thermal correction to Enthalpy=                  0.005932
 Thermal correction to Gibbs Free Energy=        -0.019045
 Sum of electronic and zero-point Energies=           -436.133499
 Sum of electronic and thermal Energies=              -436.131117
 Sum of electronic and thermal Enthalpies=            -436.130173
 Sum of electronic and thermal Free Energies=         -436.155150

                     E (Thermal)             CV                S
                      KCal/Mol        Cal/Mol-Kelvin    Cal/Mol-Kelvin
 Total                    3.130              5.212             52.569
 Electronic               0.000              0.000              2.183
 Translational            0.889              2.981             37.269
 Rotational               0.592              1.987             13.064
 Vibrational              1.649              0.244              0.052

 Optimization completed.
    -- Stationary point found.
 Normal termination of Gaussian 09 at Wed Aug  3 20:49:42 2016.
