 Gaussian 09, Revision E.01,
 Gaussian 09:  EM64L-G09RevE.01 30-Nov-2015

 ------------------------------
 #p b3lyp/6-311++G(3df,2p) freq
 ------------------------------

 ---------
 b3lyp opt
 ---------
 Symbolic Z-matrix:
 Charge =  2 Multiplicity = 1

                         Standard orientation:
 ---------------------------------------------------------------------
 Center     Atomic      Atomic             Coordinates (Angstroms)
 Number     Number       Type             X           Y           Z
 ---------------------------------------------------------------------
      1         16           0        0.000000    0.000000    0.407394
      2          6           0        0.000000    0.000000   -1.086384
 ---------------------------------------------------------------------

 SCF Done:  E(RB3LYP) =  -435.001818677     A.U. after   10 cycles

 The electronic state is 1-SG.
 Alpha  occ. eigenvalues --  -89.66361 -11.08350  -8.73395  -6.69852  -6.69207
 Alpha  occ. eigenvalues --   -6.69207  -1.52790  -1.17993  -1.01478  -1.01478
 Alpha virt. eigenvalues --   -0.94957  -0.74160  -0.74160  -0.50125  -0.37211
 Alpha virt. eigenvalues --   -0.35345  -0.35345  -0.31140  -0.31140  -0.29019
 Alpha virt. eigenvalues --   -0.26078  -0.26078  -0.25481  -0.21407  -0.21407

 Mulliken charges:
               1
     1  S    1.114055
     2  C    0.885945
 Sum of Mulliken charges =   2.00000

 Dipole moment (field-independent basis, Debye):
    X=              0.0000    Y=              0.0000    Z=             -2.1088  Tot=              2.1088
 Quadrupole moment (field-independent basis, Debye-Ang):
   XX=            -12.7128   YY=            -12.7128   ZZ=             -0.4771
   XY=              0.0000   XZ=              0.0000   YZ=              0.0000

  Exact polarizability:  32.043   0.000  32.043  -0.000   0.000  25.706
 Approx polarizability:  23.781  -0.000  23.781  -0.000  -0.000  99.531

                      1
                     SG
 Frequencies --   1326.8371
 Red. masses --     14.4661
 Frc consts  --     15.0050
 IR Inten    --      4.3945

 - Thermochemistry -
 -------------------
 Temperature   298.150 Kelvin.  Pressure   1.00000 Atm.
 Atom     1 has atomic number 16 and mass  31.97207

 Molecular mass:    43.97207 amu.
 Principal axes and moments of inertia in atomic units:
                           1         2         3
     Eigenvalues --     0.00000  69.52563  69.52563
           X            0.00000  -0.00000   1.00000
           Y            0.00000   1.00000   0.00000
           Z            1.00000   0.00000   0.00000
 This molecule is a prolate symmetric top.
 Rotational symmetry number  1.
 Rotational temperature (Kelvin)      1.24578
 Rotational constant (GHZ):          25.957925
 Zero-point vibrational energy       7936.2 (Joules/Mol)
                                    1.89681 (Kcal/Mol)
 Vibrational temperatures:   1909.02
          (Kelvin)

 Zero-point correction=                           0.003023 (Hartree/Particle)
 Thermal correction to Energy=                    0.005393
 Thermal correction to Enthalpy=                  0.006337
 Thermal correction to Gibbs Free Energy=        -0.017498
 Sum of electronic and zero-point Energies=           -434.998796
 Sum of electronic and thermal Energies=              -434.996425
 Sum of electronic and thermal Enthalpies=            -434.995481
 Sum of electronic and thermal Free Energies=         -435.019317

                     E (Thermal)             CV                S
                      KCal/Mol        Cal/Mol-Kelvin    Cal/Mol-Kelvin
 Total                    3.384              5.103             50.166
 Electronic               0.000              0.000              0.000
 Translational            0.889              2.981             37.269
 Rotational               0.592              1.987             12.873
 Vibrational              1.903              0.135              0.024

 Optimization completed.
    -- Stationary point found.
 Normal termination of Gaussian 09 at Wed Aug  3 20:49:40 2016.
