 Gaussian 09, Revision E.01,
 Gaussian 09:  EM64L-G09RevE.01 30-Nov-2015

 ------------------------------
 #p b3lyp/6-311++G(3df,2p) freq
 ------------------------------

 ---------
 b3lyp opt
 ---------
 Symbolic Z-matrix:
 Charge =  1 Multiplicity = 4

                         Standard orientation:
 ---------------------------------------------------------------------
 Center     Atomic      Atomic             Coordinates (Angstroms)
 Number     Number       Type             X           Y           Z
 ---------------------------------------------------------------------
      1         16           0        0.000000    0.000000    0.454922
      2          6           0        0.000000    0.000000   -1.213126
 ---------------------------------------------------------------------

 SCF Done:  E(UB3LYP) =  -435.712824921     A.U. after   14 cycles

 Unable to determine electronic state:  partially filled degenerate orbitals.
 Alpha  occ. eigenvalues --  -89.26861 -10.63768  -8.34581  -6.31405  -6.30834
 Alpha  occ. eigenvalues --   -6.30024  -1.15631  -0.88208  -0.70512  -0.69654
 Alpha  occ. eigenvalues --   -0.65374  -0.53692
 Alpha virt. eigenvalues --   -0.42787  -0.24709  -0.17039  -0.11673  -0.11321
 Alpha virt. eigenvalues --   -0.10256  -0.08247  -0.08088  -0.07865  -0.06474
 Alpha virt. eigenvalues --   -0.05659  -0.01055  -0.00059   0.00966   0.09317

  Beta  occ. eigenvalues --  -89.26099 -10.60242  -8.33881  -6.29961  -6.29827
  Beta  occ. eigenvalues --   -6.29188  -1.09147  -0.79342  -0.63430
  Beta virt. eigenvalues --   -0.52643  -0.50062  -0.38244  -0.33140  -0.20780
  Beta virt. eigenvalues --   -0.15822  -0.11249  -0.10689  -0.08330  -0.06769
  Beta virt. eigenvalues --   -0.05491  -0.05195  -0.05106  -0.04516   0.00476

 Mulliken charges and spin densities:
               1          2
     1  S    0.543585   1.147887
     2  C    0.456415   1.852113
 Sum of Mulliken charges =   1.00000   3.00000

 Dipole moment (field-independent basis, Debye):
    X=              0.0000    Y=              0.0000    Z=             -0.7052  Tot=              0.7052
 Quadrupole moment (field-independent basis, Debye-Ang):
   XX=            -15.4594   YY=            -14.9936   ZZ=             -9.8265
   XY=              0.0000   XZ=              0.0000   YZ=              0.0000

  Exact polarizability:  18.441   0.000  16.088   0.000  -0.000  31.205
 Approx polarizability:  25.897  -0.000  22.476  -0.000  -0.000  68.029

                      1
                     SG
 Frequencies --    930.8594
 Red. masses --     14.4661
 Frc consts  --      7.3853
 IR Inten    --      3.3911

 - Thermochemistry -
 -------------------
 Temperature   298.150 Kelvin.  Pressure   1.00000 Atm.
 Atom     1 has atomic number 16 and mass  31.97207

 Molecular mass:    43.97207 amu.
 Principal axes and moments of inertia in atomic units:
                           1         2         3
     Eigenvalues --     0.00000  86.69418  86.69418
           X            0.00000  -0.00000   1.00000
           Y            0.00000   1.00000   0.00000
           Z            1.00000   0.00000   0.00000
 This molecule is a prolate symmetric top.
 Rotational symmetry number  1.
 Rotational temperature (Kelvin)      0.99907
 Rotational constant (GHZ):          20.817329
 Zero-point vibrational energy       5567.8 (Joules/Mol)
                                    1.33073 (Kcal/Mol)
 Vibrational temperatures:   1339.30
          (Kelvin)

 Zero-point correction=                           0.002121 (Hartree/Particle)
 Thermal correction to Energy=                    0.004529
 Thermal correction to Enthalpy=                  0.005473
 Thermal correction to Gibbs Free Energy=        -0.019927
 Sum of electronic and zero-point Energies=           -435.710704
 Sum of electronic and thermal Energies=              -435.708296
 Sum of electronic and thermal Enthalpies=            -435.707352
 Sum of electronic and thermal Free Energies=         -435.732752

                     E (Thermal)             CV                S
                      KCal/Mol        Cal/Mol-Kelvin    Cal/Mol-Kelvin
 Total                    2.842              5.427             53.459
 Electronic               0.000              0.000              2.755
 Translational            0.889              2.981             37.269
 Rotational               0.592              1.987             13.311
 Vibrational              1.361              0.459              0.123

 Optimization completed.
    -- Stationary point found.
 Normal termination of Gaussian 09 at Wed Aug  3 20:49:42 2016.
