 Gaussian 09, Revision E.01,
 Gaussian 09:  EM64L-G09RevE.01 30-Nov-2015

 ------------------------------
 #p b3lyp/6-311++G(3df,2p) freq
 ------------------------------

 ---------
 b3lyp opt
 ---------
 Symbolic Z-matrix:
 Charge =  1 Multiplicity = 4

                         Standard orientation:
 ---------------------------------------------------------------------
 Center     Atomic      Atomic             Coordinates (Angstroms)
 Number     Number       Type             X           Y           Z
 ---------------------------------------------------------------------
      1         16           0        0.000000    0.000000    0.455044
      2          6           0        0.000000    0.000000   -1.213450
 ---------------------------------------------------------------------

 SCF Done:  E(UB3LYP) =  -435.712825021     A.U. after   14 cycles

 Unable to determine electronic state:  partially filled degenerate orbitals.
 Alpha  occ. eigenvalues --  -89.26861 -10.63773  -8.34581  -6.31405  -6.30834
 Alpha  occ. eigenvalues --   -6.30024  -1.15617  -0.88211  -0.70504  -0.69652
 Alpha  occ. eigenvalues --   -0.65366  -0.53696
 Alpha virt. eigenvalues --   -0.42791  -0.24720  -0.17040  -0.11672  -0.11320
 Alpha virt. eigenvalues --   -0.10257  -0.08245  -0.08085  -0.07867  -0.06475
 Alpha virt. eigenvalues --   -0.05660  -0.01059  -0.00059   0.00961   0.09316

  Beta  occ. eigenvalues --  -89.26099 -10.60247  -8.33881  -6.29961  -6.29826
  Beta  occ. eigenvalues --   -6.29187  -1.09134  -0.79343  -0.63423
  Beta virt. eigenvalues --   -0.52637  -0.50065  -0.38247  -0.33144  -0.20786
  Beta virt. eigenvalues --   -0.15823  -0.11248  -0.10688  -0.08330  -0.06773
  Beta virt. eigenvalues --   -0.05489  -0.05193  -0.05107  -0.04517   0.00476

 Mulliken charges and spin densities:
               1          2
     1  S    0.543553   1.148033
     2  C    0.456447   1.851967
 Sum of Mulliken charges =   1.00000   3.00000

 Dipole moment (field-independent basis, Debye):
    X=              0.0000    Y=              0.0000    Z=             -0.7056  Tot=              0.7056
 Quadrupole moment (field-independent basis, Debye-Ang):
   XX=            -15.4606   YY=            -14.9944   ZZ=             -9.8233
   XY=              0.0000   XZ=              0.0000   YZ=              0.0000

  Exact polarizability:  18.445   0.000  16.090   0.000   0.000  31.218
 Approx polarizability:  25.901  -0.000  22.479  -0.000  -0.000  68.079

                      1
                     SG
 Frequencies --    929.5445
 Red. masses --     14.4661
 Frc consts  --      7.3645
 IR Inten    --      3.3989

 - Thermochemistry -
 -------------------
 Temperature   298.150 Kelvin.  Pressure   1.00000 Atm.
 Atom     1 has atomic number 16 and mass  31.97207

 Molecular mass:    43.97207 amu.
 Principal axes and moments of inertia in atomic units:
                           1         2         3
     Eigenvalues --     0.00000  86.74054  86.74054
           X            0.00000  -0.00000   1.00000
           Y            0.00000   1.00000   0.00000
           Z            1.00000   0.00000   0.00000
 This molecule is a prolate symmetric top.
 Rotational symmetry number  1.
 Rotational temperature (Kelvin)      0.99854
 Rotational constant (GHZ):          20.806202
 Zero-point vibrational energy       5559.9 (Joules/Mol)
                                    1.32885 (Kcal/Mol)
 Vibrational temperatures:   1337.41
          (Kelvin)

 Zero-point correction=                           0.002118 (Hartree/Particle)
 Thermal correction to Energy=                    0.004526
 Thermal correction to Enthalpy=                  0.005471
 Thermal correction to Gibbs Free Energy=        -0.019930
 Sum of electronic and zero-point Energies=           -435.710707
 Sum of electronic and thermal Energies=              -435.708299
 Sum of electronic and thermal Enthalpies=            -435.707354
 Sum of electronic and thermal Free Energies=         -435.732755

                     E (Thermal)             CV                S
                      KCal/Mol        Cal/Mol-Kelvin    Cal/Mol-Kelvin
 Total                    2.840              5.429             53.460
 Electronic               0.000              0.000              2.755
 Translational            0.889              2.981             37.269
 Rotational               0.592              1.987             13.312
 Vibrational              1.359              0.461              0.124

 Optimization completed.
    -- Stationary point found.
 Normal termination of Gaussian 09 at Wed Aug  3 20:49:42 2016.
