 Gaussian 09, Revision E.01,
 Gaussian 09:  EM64L-G09RevE.01 30-Nov-2015

 ------------------------------
 #p b3lyp/6-311++G(3df,2p) freq
 ------------------------------

 ---------
 b3lyp opt
 ---------
 Symbolic Z-matrix:
 Charge =  0 Multiplicity = 1

                         Standard orientation:
 ---------------------------------------------------------------------
 Center     Atomic      Atomic             Coordinates (Angstroms)
 Number     Number       Type             X           Y           Z
 ---------------------------------------------------------------------
      1         16           0        0.000000    0.000000    0.417784
      2          6           0        0.000000    0.000000   -1.114092
 ---------------------------------------------------------------------

 SCF Done:  E(RB3LYP) =  -436.257435267     A.U. after   10 cycles

 The electronic state is 1-SG.
 Alpha  occ. eigenvalues --  -88.90051 -10.27234  -7.99011  -5.94950  -5.94950
 Alpha  occ. eigenvalues --   -5.94861  -0.84293  -0.52923  -0.36213  -0.36213
 Alpha  occ. eigenvalues --   -0.31875
 Alpha virt. eigenvalues --   -0.09614  -0.09614   0.01224   0.01921   0.04498
 Alpha virt. eigenvalues --    0.04498   0.08034   0.10677   0.10677   0.13309
 Alpha virt. eigenvalues --    0.16074   0.18425   0.18426   0.27561   0.27561

 Mulliken charges:
               1
     1  S    0.141966
     2  C   -0.141966
 Sum of Mulliken charges =  -0.00000

 Dipole moment (field-independent basis, Debye):
    X=              0.0000    Y=              0.0000    Z=              1.9901  Tot=              1.9901
 Quadrupole moment (field-independent basis, Debye-Ang):
   XX=            -18.3824   YY=            -18.3824   ZZ=            -20.7321
   XY=              0.0000   XZ=              0.0000   YZ=              0.0000

  Exact polarizability:  23.221   0.000  23.221  -0.000   0.000  37.653
 Approx polarizability:  35.402  -0.000  35.402  -0.000  -0.000  82.091

                      1
                     SG
 Frequencies --   1312.2994
 Red. masses --     14.4661
 Frc consts  --     14.6780
 IR Inten    --     87.2124

 - Thermochemistry -
 -------------------
 Temperature   298.150 Kelvin.  Pressure   1.00000 Atm.
 Atom     1 has atomic number 16 and mass  31.97207

 Molecular mass:    43.97207 amu.
 Principal axes and moments of inertia in atomic units:
                           1         2         3
     Eigenvalues --     0.00000  73.11729  73.11729
           X            0.00000  -0.00000   1.00000
           Y            0.00000   1.00000   0.00000
           Z            1.00000   0.00000   0.00000
 This molecule is a prolate symmetric top.
 Rotational symmetry number  1.
 Rotational temperature (Kelvin)      1.18459
 Rotational constant (GHZ):          24.682826
 Zero-point vibrational energy       7849.3 (Joules/Mol)
                                    1.87603 (Kcal/Mol)
 Vibrational temperatures:   1888.10
          (Kelvin)

 Zero-point correction=                           0.002990 (Hartree/Particle)
 Thermal correction to Energy=                    0.005361
 Thermal correction to Enthalpy=                  0.006305
 Thermal correction to Gibbs Free Energy=        -0.017579
 Sum of electronic and zero-point Energies=           -436.254446
 Sum of electronic and thermal Energies=              -436.252075
 Sum of electronic and thermal Enthalpies=            -436.251130
 Sum of electronic and thermal Free Energies=         -436.275014

                     E (Thermal)             CV                S
                      KCal/Mol        Cal/Mol-Kelvin    Cal/Mol-Kelvin
 Total                    3.364              5.110             50.268
 Electronic               0.000              0.000              0.000
 Translational            0.889              2.981             37.269
 Rotational               0.592              1.987             12.973
 Vibrational              1.883              0.142              0.026

 Optimization completed.
    -- Stationary point found.
 Normal termination of Gaussian 09 at Wed Aug  3 20:48:34 2016.
