 Gaussian 09, Revision E.01,
 Gaussian 09:  EM64L-G09RevE.01 30-Nov-2015

 ------------------------------
 #p b3lyp/6-311++G(3df,2p) freq
 ------------------------------

 ---------
 b3lyp opt
 ---------
 Symbolic Z-matrix:
 Charge =  2 Multiplicity = 1

                         Standard orientation:
 ---------------------------------------------------------------------
 Center     Atomic      Atomic             Coordinates (Angstroms)
 Number     Number       Type             X           Y           Z
 ---------------------------------------------------------------------
      1         16           0        0.000000    0.966465   -0.249830
      2         16           0       -0.000000   -0.966465   -0.249830
      3          6           0       -0.000000    0.000000    1.332429
 ---------------------------------------------------------------------

 SCF Done:  E(RB3LYP) =  -833.461618611     A.U. after   12 cycles

 The electronic state is 1-A1.
 Alpha  occ. eigenvalues --  -89.54022 -89.54022 -10.85986  -8.61483  -8.61471
 Alpha  occ. eigenvalues --   -6.57867  -6.57862  -6.57481  -6.57418  -6.57084
 Alpha  occ. eigenvalues --   -6.57078  -1.48745  -1.21203  -1.13605  -0.96655
 Alpha  occ. eigenvalues --   -0.95131  -0.88686  -0.83422
 Alpha virt. eigenvalues --   -0.73772  -0.64850  -0.59433  -0.53667  -0.49070
 Alpha virt. eigenvalues --   -0.39509  -0.34947  -0.34452  -0.29680  -0.28951
 Alpha virt. eigenvalues --   -0.27466  -0.25364  -0.24993  -0.24041  -0.23674

 Mulliken charges:
               1
     1  S    0.732186
     2  S    0.732186
     3  C    0.535629
 Sum of Mulliken charges =   2.00000

 Dipole moment (field-independent basis, Debye):
    X=             -0.0000    Y=              0.0000    Z=             -0.5869  Tot=              0.5869
 Quadrupole moment (field-independent basis, Debye-Ang):
   XX=            -22.2769   YY=            -12.3272   ZZ=            -21.6839
   XY=              0.0000   XZ=              0.0000   YZ=             -0.0000

  Exact polarizability:  22.533   0.000  41.272   0.000   0.000  36.429
 Approx polarizability:  41.501   0.000 116.594   0.000  -0.000  83.358

                      1                      2                      3
                     B2                     A1                     A1
 Frequencies --    505.7007               607.6957               754.7763
 Red. masses --     16.1114                17.7924                19.9277
 Frc consts  --      2.4276                 3.8713                 6.6887
 IR Inten    --      0.2079                60.4503                52.0222

 - Thermochemistry -
 -------------------
 Temperature   298.150 Kelvin.  Pressure   1.00000 Atm.
 Atom     1 has atomic number 16 and mass  31.97207

 Molecular mass:    75.94414 amu.
 Principal axes and moments of inertia in atomic units:
                           1         2         3
     Eigenvalues --    90.33183 213.29030 303.62212
           X            0.00000   0.00000   1.00000
           Y            1.00000   0.00000  -0.00000
           Z           -0.00000   1.00000  -0.00000
 This molecule is an asymmetric top.
 Rotational symmetry number  2.
 Rotational temperatures (Kelvin)      0.95884     0.40608     0.28527
 Rotational constants (GHZ):          19.97902     8.46143     5.94404
 Zero-point vibrational energy      11174.2 (Joules/Mol)
                                    2.67069 (Kcal/Mol)
 Warning -- explicit consideration of   2 degrees of freedom as
           vibrations may cause significant error
 Vibrational temperatures:    727.59   874.34  1085.95
          (Kelvin)

 Zero-point correction=                           0.004256 (Hartree/Particle)
 Thermal correction to Energy=                    0.007557
 Thermal correction to Enthalpy=                  0.008501
 Thermal correction to Gibbs Free Energy=        -0.021021
 Sum of electronic and zero-point Energies=           -833.457363
 Sum of electronic and thermal Energies=              -833.454062
 Sum of electronic and thermal Enthalpies=            -833.453118
 Sum of electronic and thermal Free Energies=         -833.482639

                     E (Thermal)             CV                S
                      KCal/Mol        Cal/Mol-Kelvin    Cal/Mol-Kelvin
 Total                    4.742              8.943             62.134
 Electronic               0.000              0.000              0.000
 Translational            0.889              2.981             38.898
 Rotational               0.889              2.981             21.908
 Vibrational              2.964              2.981              1.328
 Vibration     1          0.861              1.237              0.644
 Vibration     2          0.966              1.016              0.437

 Optimization completed.
    -- Stationary point found.
 Normal termination of Gaussian 09 at Wed Aug  3 22:57:37 2016.
