 Gaussian 09, Revision E.01,
 Gaussian 09:  EM64L-G09RevE.01 30-Nov-2015

 ------------------------------
 #p b3lyp/6-311++G(3df,2p) freq
 ------------------------------

 ---------
 b3lyp opt
 ---------
 Symbolic Z-matrix:
 Charge =  1 Multiplicity = 4

                         Standard orientation:
 ---------------------------------------------------------------------
 Center     Atomic      Atomic             Coordinates (Angstroms)
 Number     Number       Type             X           Y           Z
 ---------------------------------------------------------------------
      1         16           0        0.000000    1.407308   -0.130460
      2         16           0       -0.000000   -1.407308   -0.130460
      3          6           0        0.000000   -0.000000    0.695787
 ---------------------------------------------------------------------

 SCF Done:  E(UB3LYP) =  -834.105513755     A.U. after   12 cycles

 The electronic state is 4-B1.
 Alpha  occ. eigenvalues --  -89.19588 -89.19588 -10.52336  -8.27625  -8.27621
 Alpha  occ. eigenvalues --   -6.24069  -6.24069  -6.23900  -6.23899  -6.23468
 Alpha  occ. eigenvalues --   -6.23467  -1.14202  -1.03207  -0.80162  -0.68900
 Alpha  occ. eigenvalues --   -0.66913  -0.65640  -0.57148  -0.55375  -0.48647
 Alpha virt. eigenvalues --   -0.34617  -0.21408  -0.15983  -0.15378  -0.11073
 Alpha virt. eigenvalues --   -0.10800  -0.10614  -0.09605  -0.08836  -0.07154
 Alpha virt. eigenvalues --   -0.05860  -0.05388  -0.04785  -0.03213  -0.02191

  Beta  occ. eigenvalues --  -89.18659 -89.18659 -10.51547  -8.26779  -8.26776
  Beta  occ. eigenvalues --   -6.22813  -6.22813  -6.22544  -6.22544  -6.22159
  Beta  occ. eigenvalues --   -6.22158  -1.10839  -0.97611  -0.75438  -0.66065
  Beta  occ. eigenvalues --   -0.61327  -0.59437
  Beta virt. eigenvalues --   -0.45412  -0.42637  -0.35153  -0.31519  -0.19612
  Beta virt. eigenvalues --   -0.14547  -0.13748  -0.10468  -0.10390  -0.10291
  Beta virt. eigenvalues --   -0.08069  -0.06653  -0.06540  -0.04951  -0.04323

 Mulliken charges and spin densities:
               1          2
     1  S    0.440749   1.360141
     2  S    0.440749   1.360141
     3  C    0.118502   0.279717
 Sum of Mulliken charges =   1.00000   3.00000

 Dipole moment (field-independent basis, Debye):
    X=             -0.0000    Y=              0.0000    Z=             -0.6803  Tot=              0.6803
 Quadrupole moment (field-independent basis, Debye-Ang):
   XX=            -26.3933   YY=            -14.8370   ZZ=            -27.7594
   XY=              0.0000   XZ=              0.0000   YZ=              0.0000

  Exact polarizability:  28.351  -0.000  71.308  -0.000  -0.000  33.503
 Approx polarizability:  46.148   0.000 164.706   0.000  -0.000  59.160

                      1                      2                      3
                     A1                     A1                     B2
 Frequencies --    264.1654               831.4346               950.6544
 Red. masses --     22.5743                16.1064                13.7280
 Frc consts  --      0.9281                 6.5600                 7.3097
 IR Inten    --      0.0151                 0.5347                96.9611

 - Thermochemistry -
 -------------------
 Temperature   298.150 Kelvin.  Pressure   1.00000 Atm.
 Atom     1 has atomic number 16 and mass  31.97207

 Molecular mass:    75.94414 amu.
 Principal axes and moments of inertia in atomic units:
                           1         2         3
     Eigenvalues --    24.63230 452.24836 476.88066
           X            0.00000   0.00000   1.00000
           Y            1.00000   0.00000   0.00000
           Z           -0.00000   1.00000   0.00000
 This molecule is an asymmetric top.
 Rotational symmetry number  2.
 Rotational temperatures (Kelvin)      3.51627     0.19152     0.18163
 Rotational constants (GHZ):          73.26726     3.99060     3.78447
 Zero-point vibrational energy      12239.3 (Joules/Mol)
                                    2.92527 (Kcal/Mol)
 Warning -- explicit consideration of   1 degrees of freedom as
           vibrations may cause significant error
 Vibrational temperatures:    380.07  1196.25  1367.78
          (Kelvin)

 Zero-point correction=                           0.004662 (Hartree/Particle)
 Thermal correction to Energy=                    0.008076
 Thermal correction to Enthalpy=                  0.009020
 Thermal correction to Gibbs Free Energy=        -0.022052
 Sum of electronic and zero-point Energies=           -834.100852
 Sum of electronic and thermal Energies=              -834.097438
 Sum of electronic and thermal Enthalpies=            -834.096494
 Sum of electronic and thermal Free Energies=         -834.127566

                     E (Thermal)             CV                S
                      KCal/Mol        Cal/Mol-Kelvin    Cal/Mol-Kelvin
 Total                    5.067              8.735             65.396
 Electronic               0.000              0.000              2.755
 Translational            0.889              2.981             38.898
 Rotational               0.889              2.981             21.812
 Vibrational              3.290              2.773              1.931
 Vibration     1          0.671              1.739              1.634

 Optimization completed.
    -- Stationary point found.
 Normal termination of Gaussian 09 at Wed Aug  3 22:57:54 2016.
