 Gaussian 09, Revision E.01,
 Gaussian 09:  EM64L-G09RevE.01 30-Nov-2015

 ------------------------------
 #p b3lyp/6-311++G(3df,2p) freq
 ------------------------------

 ---------
 b3lyp opt
 ---------
 Symbolic Z-matrix:
 Charge =  0 Multiplicity = 3

                         Standard orientation:
 ---------------------------------------------------------------------
 Center     Atomic      Atomic             Coordinates (Angstroms)
 Number     Number       Type             X           Y           Z
 ---------------------------------------------------------------------
      1         16           0       -0.000000    1.451051   -0.115561
      2         16           0       -0.000000   -1.451051   -0.115561
      3          6           0        0.000000   -0.000000    0.616324
 ---------------------------------------------------------------------

 SCF Done:  E(UB3LYP) =  -834.470183014     A.U. after   12 cycles

 The electronic state is 3-B2.
 Alpha  occ. eigenvalues --  -88.90125 -88.90125 -10.27123  -7.98570  -7.98566
 Alpha  occ. eigenvalues --   -5.95105  -5.95105  -5.94626  -5.94625  -5.94171
 Alpha  occ. eigenvalues --   -5.94171  -0.86886  -0.76062  -0.53852  -0.43229
 Alpha  occ. eigenvalues --   -0.41449  -0.38551  -0.30288  -0.28621  -0.22873
 Alpha virt. eigenvalues --   -0.09403   0.00505   0.01086   0.02266   0.04039
 Alpha virt. eigenvalues --    0.04507   0.05651   0.07085   0.09389   0.10208
 Alpha virt. eigenvalues --    0.10285   0.10544   0.12745   0.14397   0.15173

  Beta  occ. eigenvalues --  -88.89629 -88.89629 -10.26181  -7.98113  -7.98110
  Beta  occ. eigenvalues --   -5.94236  -5.94236  -5.93899  -5.93899  -5.93671
  Beta  occ. eigenvalues --   -5.93670  -0.84557  -0.73053  -0.50487  -0.41280
  Beta  occ. eigenvalues --   -0.37609  -0.34706  -0.27618
  Beta virt. eigenvalues --   -0.18878  -0.10595  -0.08117   0.01028   0.01832
  Beta virt. eigenvalues --    0.02563   0.04459   0.04549   0.06090   0.07066
  Beta virt. eigenvalues --    0.09773   0.10548   0.10793   0.11417   0.13773

 Mulliken charges and spin densities:
               1          2
     1  S   -0.008950   0.784101
     2  S   -0.008950   0.784101
     3  C    0.017899   0.431798
 Sum of Mulliken charges =  -0.00000   2.00000

 Dipole moment (field-independent basis, Debye):
    X=             -0.0000    Y=             -0.0000    Z=             -0.4611  Tot=              0.4611
 Quadrupole moment (field-independent basis, Debye-Ang):
   XX=            -32.1105   YY=            -29.0575   ZZ=            -31.9810
   XY=              0.0000   XZ=             -0.0000   YZ=              0.0000

  Exact polarizability:  37.136  -0.000  87.619   0.000  -0.000  41.762
 Approx polarizability:  57.357   0.000 186.750   0.000   0.000  70.315

                      1                      2                      3
                     A1                     A1                     B2
 Frequencies --    277.9545               800.4055              1047.3971
 Red. masses --     21.2797                16.8372                13.6214
 Frc consts  --      0.9686                 6.3554                 8.8043
 IR Inten    --      0.4767                 2.5781                10.8585

 - Thermochemistry -
 -------------------
 Temperature   298.150 Kelvin.  Pressure   1.00000 Atm.
 Atom     1 has atomic number 16 and mass  31.97207

 Molecular mass:    75.94414 amu.
 Principal axes and moments of inertia in atomic units:
                           1         2         3
     Eigenvalues --    19.32726 480.79939 500.12666
           X            0.00000   0.00000   1.00000
           Y            1.00000   0.00000  -0.00000
           Z           -0.00000   1.00000  -0.00000
 This molecule is an asymmetric top.
 Rotational symmetry number  2.
 Rotational temperatures (Kelvin)      4.48143     0.18015     0.17318
 Rotational constants (GHZ):          93.37799     3.75363     3.60857
 Zero-point vibrational energy      12714.9 (Joules/Mol)
                                    3.03892 (Kcal/Mol)
 Warning -- explicit consideration of   1 degrees of freedom as
           vibrations may cause significant error
 Vibrational temperatures:    399.91  1151.60  1506.97
          (Kelvin)

 Zero-point correction=                           0.004843 (Hartree/Particle)
 Thermal correction to Energy=                    0.008233
 Thermal correction to Enthalpy=                  0.009177
 Thermal correction to Gibbs Free Energy=        -0.021512
 Sum of electronic and zero-point Energies=           -834.465340
 Sum of electronic and thermal Energies=              -834.461950
 Sum of electronic and thermal Enthalpies=            -834.461006
 Sum of electronic and thermal Free Energies=         -834.491695

                     E (Thermal)             CV                S
                      KCal/Mol        Cal/Mol-Kelvin    Cal/Mol-Kelvin
 Total                    5.166              8.654             64.591
 Electronic               0.000              0.000              2.183
 Translational            0.889              2.981             38.898
 Rotational               0.889              2.981             21.679
 Vibrational              3.389              2.692              1.830
 Vibration     1          0.679              1.714              1.546

 Optimization completed.
    -- Stationary point found.
 Normal termination of Gaussian 09 at Wed Aug  3 22:57:54 2016.
