 Gaussian 09, Revision E.01,
 Gaussian 09:  EM64L-G09RevE.01 30-Nov-2015

 ------------------------------
 #p b3lyp/6-311++G(3df,2p) freq
 ------------------------------

 ---------
 b3lyp opt
 ---------
 Symbolic Z-matrix:
 Charge =  2 Multiplicity = 1

                         Standard orientation:
 ---------------------------------------------------------------------
 Center     Atomic      Atomic             Coordinates (Angstroms)
 Number     Number       Type             X           Y           Z
 ---------------------------------------------------------------------
      1         16           0       -0.000000   -0.000000    1.561871
      2         16           0        0.000000    0.000000   -1.561871
      3          6           0        0.000000   -0.000000    0.000000
 ---------------------------------------------------------------------

 SCF Done:  E(RB3LYP) =  -833.534911876     A.U. after    9 cycles

 Unable to determine electronic state:  partially filled degenerate orbitals.
 Alpha  occ. eigenvalues --  -89.49796 -89.49795 -10.81703  -8.57327  -8.57322
 Alpha  occ. eigenvalues --   -6.54068  -6.54067  -6.53222  -6.53221  -6.52640
 Alpha  occ. eigenvalues --   -6.52639  -1.40139  -1.32096  -1.04148  -0.96334
 Alpha  occ. eigenvalues --   -0.91078  -0.90762  -0.79886
 Alpha virt. eigenvalues --   -0.76201  -0.58895  -0.58275  -0.45699  -0.36932
 Alpha virt. eigenvalues --   -0.36745  -0.28667  -0.28518  -0.27368  -0.26958
 Alpha virt. eigenvalues --   -0.26304  -0.25374  -0.24538  -0.23125  -0.22949

 Mulliken charges:
               1
     1  S    0.645335
     2  S    0.645335
     3  C    0.709329
 Sum of Mulliken charges =   2.00000

 Dipole moment (field-independent basis, Debye):
    X=              0.0000    Y=             -0.0000    Z=             -0.0000  Tot=              0.0000
 Quadrupole moment (field-independent basis, Debye-Ang):
   XX=            -21.3902   YY=            -25.4145   ZZ=              3.1472
   XY=             -0.0000   XZ=             -0.0000   YZ=              0.0000

  Exact polarizability:  23.006   0.000  22.924   0.000   0.000  69.173
 Approx polarizability:  39.765   0.000  34.663  -0.000  -0.000 219.563

                      1                      2                      3
                     PIU                    PIU                    SGG
 Frequencies --    245.9333               364.3020               649.6536
 Red. masses --     13.3142                13.3142                31.9721
 Frc consts  --      0.4745                 1.0411                 7.9503
 IR Inten    --      0.3157                 3.8596                 0.0000

                      4
                     SGU
 Frequencies --   1255.0204
 Red. masses --     13.3142
 Frc consts  --     12.3557
 IR Inten    --     29.3859

 - Thermochemistry -
 -------------------
 Temperature   298.150 Kelvin.  Pressure   1.00000 Atm.
 Atom     1 has atomic number 16 and mass  31.97207

 Molecular mass:    75.94414 amu.
 Principal axes and moments of inertia in atomic units:
                           1         2         3
     Eigenvalues --     0.00000 557.04336 557.04336
           X           -0.00000   0.71705   0.69702
           Y           -0.00000  -0.69702   0.71705
           Z            1.00000   0.00000   0.00000
 This molecule is a prolate symmetric top.
 Rotational symmetry number  2.
 Warning -- assumption of classical behavior for rotation
           may cause significant error
 Rotational temperature (Kelvin)      0.15549
 Rotational constant (GHZ):           3.239858
 Zero-point vibrational energy      15042.5 (Joules/Mol)
                                    3.59524 (Kcal/Mol)
 Warning -- explicit consideration of   2 degrees of freedom as
           vibrations may cause significant error
 Vibrational temperatures:    353.84   524.15   934.71  1805.69
          (Kelvin)

 Zero-point correction=                           0.005729 (Hartree/Particle)
 Thermal correction to Energy=                    0.009076
 Thermal correction to Enthalpy=                  0.010020
 Thermal correction to Gibbs Free Energy=        -0.017441
 Sum of electronic and zero-point Energies=           -833.529182
 Sum of electronic and thermal Energies=              -833.525836
 Sum of electronic and thermal Enthalpies=            -833.524892
 Sum of electronic and thermal Free Energies=         -833.552353

                     E (Thermal)             CV                S
                      KCal/Mol        Cal/Mol-Kelvin    Cal/Mol-Kelvin
 Total                    5.695              9.383             57.796
 Electronic               0.000              0.000              0.000
 Translational            0.889              2.981             38.898
 Rotational               0.592              1.987             15.631
 Vibrational              4.214              4.415              3.268
 Vibration     1          0.660              1.770              1.760
 Vibration     2          0.738              1.546              1.104

 Optimization completed.
    -- Stationary point found.
 Normal termination of Gaussian 09 at Wed Aug  3 22:58:40 2016.
