 Gaussian 09, Revision E.01,
 Gaussian 09:  EM64L-G09RevE.01 30-Nov-2015

 ------------------------------
 #p b3lyp/6-311++G(3df,2p) freq
 ------------------------------

 ---------
 b3lyp opt
 ---------
 Symbolic Z-matrix:
 Charge =  2 Multiplicity = 3

                         Standard orientation:
 ---------------------------------------------------------------------
 Center     Atomic      Atomic             Coordinates (Angstroms)
 Number     Number       Type             X           Y           Z
 ---------------------------------------------------------------------
      1         16           0       -0.000000    0.000000    1.566705
      2         16           0        0.000000   -0.000000   -1.566705
      3          6           0        0.000000    0.000000    0.000000
 ---------------------------------------------------------------------

 SCF Done:  E(UB3LYP) =  -833.577528899     A.U. after   11 cycles

 The electronic state is 3-SGG.
 Alpha  occ. eigenvalues --  -89.49712 -89.49712 -10.80855  -8.57260  -8.57256
 Alpha  occ. eigenvalues --   -6.53675  -6.53675  -6.53674  -6.53674  -6.53019
 Alpha  occ. eigenvalues --   -6.53018  -1.40805  -1.34053  -1.05138  -0.97007
 Alpha  occ. eigenvalues --   -0.92381  -0.92381  -0.83787  -0.83787
 Alpha virt. eigenvalues --   -0.59262  -0.59262  -0.46388  -0.37507  -0.36898
 Alpha virt. eigenvalues --   -0.29874  -0.29874  -0.27503  -0.26732  -0.26732
 Alpha virt. eigenvalues --   -0.25619  -0.25619  -0.24991  -0.24990  -0.22581

  Beta  occ. eigenvalues --  -89.48855 -89.48855 -10.81644  -8.56479  -8.56474
  Beta  occ. eigenvalues --   -6.52540  -6.52539  -6.52095  -6.52095  -6.52094
  Beta  occ. eigenvalues --   -6.52094  -1.38768  -1.29416  -1.02451  -0.94940
  Beta  occ. eigenvalues --   -0.89247  -0.89247
  Beta virt. eigenvalues --   -0.71681  -0.71681  -0.56918  -0.56918  -0.44917
  Beta virt. eigenvalues --   -0.36565  -0.35512  -0.26983  -0.26934  -0.26933
  Beta virt. eigenvalues --   -0.26315  -0.26315  -0.23985  -0.23985  -0.22557

 Mulliken charges and spin densities:
               1          2
     1  S    0.637367   1.225448
     2  S    0.637367   1.225448
     3  C    0.725266  -0.450896
 Sum of Mulliken charges =   2.00000   2.00000

 Dipole moment (field-independent basis, Debye):
    X=              0.0000    Y=             -0.0000    Z=             -0.0000  Tot=              0.0000
 Quadrupole moment (field-independent basis, Debye-Ang):
   XX=            -23.3106   YY=            -23.3106   ZZ=              3.2970
   XY=             -0.0000   XZ=             -0.0000   YZ=              0.0000

  Exact polarizability:  22.875   0.000  22.875   0.000   0.000  66.329
 Approx polarizability:  36.099  -0.000  36.099  -0.000   0.000 163.819

                      1                      2                      3
                     PIU                    PIU                    SGG
 Frequencies --    299.8555               299.8555               632.7724
 Red. masses --     13.3142                13.3142                31.9721
 Frc consts  --      0.7053                 0.7053                 7.5425
 IR Inten    --      1.5128                 1.5128                 0.0000

                      4
                     SGU
 Frequencies --   1021.5799
 Red. masses --     13.3142
 Frc consts  --      8.1867
 IR Inten    --     96.4315

 - Thermochemistry -
 -------------------
 Temperature   298.150 Kelvin.  Pressure   1.00000 Atm.
 Atom     1 has atomic number 16 and mass  31.97207

 Molecular mass:    75.94414 amu.
 Principal axes and moments of inertia in atomic units:
                           1         2         3
     Eigenvalues --     0.00000 560.49692 560.49692
           X           -0.00000   0.71705  -0.69702
           Y            0.00000   0.69702   0.71705
           Z            1.00000   0.00000  -0.00000
 This molecule is a prolate symmetric top.
 Rotational symmetry number  2.
 Warning -- assumption of classical behavior for rotation
           may cause significant error
 Rotational temperature (Kelvin)      0.15453
 Rotational constant (GHZ):           3.219895
 Zero-point vibrational energy      13482.3 (Joules/Mol)
                                    3.22235 (Kcal/Mol)
 Warning -- explicit consideration of   2 degrees of freedom as
           vibrations may cause significant error
 Vibrational temperatures:    431.42   431.42   910.42  1469.82
          (Kelvin)

 Zero-point correction=                           0.005135 (Hartree/Particle)
 Thermal correction to Energy=                    0.008513
 Thermal correction to Enthalpy=                  0.009457
 Thermal correction to Gibbs Free Energy=        -0.019071
 Sum of electronic and zero-point Energies=           -833.572394
 Sum of electronic and thermal Energies=              -833.569016
 Sum of electronic and thermal Enthalpies=            -833.568072
 Sum of electronic and thermal Free Energies=         -833.596600

                     E (Thermal)             CV                S
                      KCal/Mol        Cal/Mol-Kelvin    Cal/Mol-Kelvin
 Total                    5.342              9.633             60.042
 Electronic               0.000              0.000              2.183
 Translational            0.889              2.981             38.898
 Rotational               0.592              1.987             15.643
 Vibrational              3.861              4.665              3.318
 Vibration     1          0.692              1.674              1.418
 Vibration     2          0.692              1.674              1.418

 Optimization completed.
    -- Stationary point found.
 Normal termination of Gaussian 09 at Wed Aug  3 22:58:55 2016.
