 Gaussian 09, Revision E.01,
 Gaussian 09:  EM64L-G09RevE.01 30-Nov-2015

 ------------------------------
 #p b3lyp/6-311++G(3df,2p) freq
 ------------------------------

 ---------
 b3lyp opt
 ---------
 Symbolic Z-matrix:
 Charge =  1 Multiplicity = 2

                         Standard orientation:
 ---------------------------------------------------------------------
 Center     Atomic      Atomic             Coordinates (Angstroms)
 Number     Number       Type             X           Y           Z
 ---------------------------------------------------------------------
      1         16           0       -0.000000    0.000000    1.552390
      2         16           0        0.000000    0.000000   -1.552390
      3          6           0        0.000000    0.000000    0.000000
 ---------------------------------------------------------------------

 SCF Done:  E(UB3LYP) =  -834.198952062     A.U. after   12 cycles

 Unable to determine electronic state:  an orbital has unidentified symmetry.
 Alpha  occ. eigenvalues --  -89.17713 -89.17713 -10.54311  -8.25965  -8.25961
 Alpha  occ. eigenvalues --   -6.22615  -6.22614  -6.21939  -6.21939  -6.21476
 Alpha  occ. eigenvalues --   -6.21475  -1.13004  -1.05139  -0.77567  -0.69657
 Alpha  occ. eigenvalues --   -0.66143  -0.64515  -0.56532  -0.53608
 Alpha virt. eigenvalues --   -0.33517  -0.32229  -0.20091  -0.17320  -0.13286
 Alpha virt. eigenvalues --   -0.11288  -0.10371  -0.09961  -0.07435  -0.07027
 Alpha virt. eigenvalues --   -0.06669  -0.05617  -0.05569  -0.01560  -0.01342

  Beta  occ. eigenvalues --  -89.17316 -89.17316 -10.54672  -8.25602  -8.25597
  Beta  occ. eigenvalues --   -6.21718  -6.21717  -6.21391  -6.21390  -6.21232
  Beta  occ. eigenvalues --   -6.21231  -1.12071  -1.02921  -0.76221  -0.68664
  Beta  occ. eigenvalues --   -0.64355  -0.63411  -0.52568
  Beta virt. eigenvalues --   -0.45994  -0.32223  -0.31195  -0.19362  -0.17180
  Beta virt. eigenvalues --   -0.12513  -0.11063  -0.10013  -0.09940  -0.06988
  Beta virt. eigenvalues --   -0.06879  -0.06654  -0.04312  -0.04212  -0.01659

 Mulliken charges and spin densities:
               1          2
     1  S    0.236871   0.607699
     2  S    0.236871   0.607699
     3  C    0.526258  -0.215398
 Sum of Mulliken charges =   1.00000   1.00000

 Dipole moment (field-independent basis, Debye):
    X=              0.0000    Y=              0.0000    Z=             -0.0000  Tot=              0.0000
 Quadrupole moment (field-independent basis, Debye-Ang):
   XX=            -25.8710   YY=            -28.1221   ZZ=            -12.1674
   XY=             -0.0000   XZ=             -0.0000   YZ=              0.0000

  Exact polarizability:  27.344   0.000  27.891  -0.000  -0.000  76.560
 Approx polarizability:  44.301   0.000  43.090  -0.000  -0.000 192.572

                      1                      2                      3
                     PIU                    PIU                    SGG
 Frequencies --    321.0431               383.4536               670.3697
 Red. masses --     13.3142                13.3142                31.9721
 Frc consts  --      0.8085                 1.1534                 8.4654
 IR Inten    --      0.9564                 3.6778                 0.0000

                      4
                     SGU
 Frequencies --   1249.1103
 Red. masses --     13.3142
 Frc consts  --     12.2396
 IR Inten    --     61.1192

 - Thermochemistry -
 -------------------
 Temperature   298.150 Kelvin.  Pressure   1.00000 Atm.
 Atom     1 has atomic number 16 and mass  31.97207

 Molecular mass:    75.94414 amu.
 Principal axes and moments of inertia in atomic units:
                           1         2         3
     Eigenvalues --     0.00000 550.30084 550.30084
           X           -0.00000   0.69702   0.71705
           Y           -0.00000   0.71705  -0.69702
           Z            1.00000   0.00000   0.00000
 This molecule is a prolate symmetric top.
 Rotational symmetry number  2.
 Warning -- assumption of classical behavior for rotation
           may cause significant error
 Rotational temperature (Kelvin)      0.15739
 Rotational constant (GHZ):           3.279554
 Zero-point vibrational energy      15694.9 (Joules/Mol)
                                    3.75116 (Kcal/Mol)
 Warning -- explicit consideration of   2 degrees of freedom as
           vibrations may cause significant error
 Vibrational temperatures:    461.91   551.70   964.51  1797.19
          (Kelvin)

 Zero-point correction=                           0.005978 (Hartree/Particle)
 Thermal correction to Energy=                    0.009198
 Thermal correction to Enthalpy=                  0.010142
 Thermal correction to Gibbs Free Energy=        -0.017696
 Sum of electronic and zero-point Energies=           -834.192974
 Sum of electronic and thermal Energies=              -834.189755
 Sum of electronic and thermal Enthalpies=            -834.188810
 Sum of electronic and thermal Free Energies=         -834.216648

                     E (Thermal)             CV                S
                      KCal/Mol        Cal/Mol-Kelvin    Cal/Mol-Kelvin
 Total                    5.772              9.169             58.589
 Electronic               0.000              0.000              1.377
 Translational            0.889              2.981             38.898
 Rotational               0.592              1.987             15.606
 Vibrational              4.290              4.201              2.707
 Vibration     1          0.707              1.633              1.305
 Vibration     2          0.753              1.505              1.026

 Optimization completed.
    -- Stationary point found.
 Normal termination of Gaussian 09 at Wed Aug  3 22:57:52 2016.
