 Gaussian 09, Revision E.01,
 Gaussian 09:  EM64L-G09RevE.01 30-Nov-2015

 ------------------------------
 #p b3lyp/6-311++G(3df,2p) freq
 ------------------------------

 ---------
 b3lyp opt
 ---------
 Symbolic Z-matrix:
 Charge =  0 Multiplicity = 3

                         Standard orientation:
 ---------------------------------------------------------------------
 Center     Atomic      Atomic             Coordinates (Angstroms)
 Number     Number       Type             X           Y           Z
 ---------------------------------------------------------------------
      1         16           0        0.000000    1.237203   -0.192077
      2         16           0       -0.000000   -1.237203   -0.192077
      3          6           0        0.000000    0.000000    1.024410
 ---------------------------------------------------------------------

 SCF Done:  E(UB3LYP) =  -834.403665004     A.U. after   13 cycles

 The electronic state is 3-B1.
 Alpha  occ. eigenvalues --  -88.92084 -88.92084 -10.25963  -8.00384  -8.00381
 Alpha  occ. eigenvalues --   -5.96885  -5.96885  -5.96556  -5.96554  -5.96095
 Alpha  occ. eigenvalues --   -5.96095  -0.87997  -0.73424  -0.55302  -0.40840
 Alpha  occ. eigenvalues --   -0.40322  -0.40118  -0.31484  -0.25279  -0.25220
 Alpha virt. eigenvalues --   -0.10646  -0.00893   0.01031   0.01474   0.03918
 Alpha virt. eigenvalues --    0.04599   0.05590   0.07020   0.08192   0.08197
 Alpha virt. eigenvalues --    0.09032   0.09741   0.11835   0.14566   0.14961

  Beta  occ. eigenvalues --  -88.91344 -88.91344 -10.26203  -7.99708  -7.99708
  Beta  occ. eigenvalues --   -5.95765  -5.95764  -5.95501  -5.95501  -5.95151
  Beta  occ. eigenvalues --   -5.95150  -0.85687  -0.68591  -0.52829  -0.38684
  Beta  occ. eigenvalues --   -0.36901  -0.36213  -0.23821
  Beta virt. eigenvalues --   -0.20304  -0.14829  -0.09736  -0.00193   0.01265
  Beta virt. eigenvalues --    0.01966   0.04202   0.04928   0.06301   0.07395
  Beta virt. eigenvalues --    0.08600   0.08814   0.09303   0.10028   0.12396

 Mulliken charges and spin densities:
               1          2
     1  S    0.072019   1.114081
     2  S    0.072019   1.114081
     3  C   -0.144038  -0.228162
 Sum of Mulliken charges =  -0.00000   2.00000

 Dipole moment (field-independent basis, Debye):
    X=             -0.0000    Y=              0.0000    Z=             -1.5774  Tot=              1.5774
 Quadrupole moment (field-independent basis, Debye-Ang):
   XX=            -30.2925   YY=            -29.4565   ZZ=            -36.0235
   XY=              0.0000   XZ=             -0.0000   YZ=             -0.0000

  Exact polarizability:  35.938  -0.000  85.652  -0.000   0.000  48.970
 Approx polarizability:  60.089   0.000 195.732   0.000  -0.000  85.406

                      1                      2                      3
                     B2                     A1                     A1
 Frequencies --    301.5448               345.8192               808.4231
 Red. masses --     14.4301                27.4841                14.2856
 Frc consts  --      0.7731                 1.9366                 5.5008
 IR Inten    --     34.5184                 0.8433                 6.3893

 - Thermochemistry -
 -------------------
 Temperature   298.150 Kelvin.  Pressure   1.00000 Atm.
 Atom     1 has atomic number 16 and mass  31.97207

 Molecular mass:    75.94414 amu.
 Principal axes and moments of inertia in atomic units:
                           1         2         3
     Eigenvalues --    53.39492 349.52673 402.92165
           X            0.00000   0.00000   1.00000
           Y            1.00000   0.00000  -0.00000
           Z            0.00000   1.00000   0.00000
 This molecule is an asymmetric top.
 Rotational symmetry number  2.
 Rotational temperatures (Kelvin)      1.62214     0.24780     0.21496
 Rotational constants (GHZ):          33.79987     5.16339     4.47914
 Zero-point vibrational energy       8707.5 (Joules/Mol)
                                    2.08115 (Kcal/Mol)
 Warning -- explicit consideration of   2 degrees of freedom as
           vibrations may cause significant error
 Vibrational temperatures:    433.86   497.56  1163.14
          (Kelvin)

 Zero-point correction=                           0.003317 (Hartree/Particle)
 Thermal correction to Energy=                    0.007009
 Thermal correction to Enthalpy=                  0.007953
 Thermal correction to Gibbs Free Energy=        -0.023421
 Sum of electronic and zero-point Energies=           -834.400348
 Sum of electronic and thermal Energies=              -834.396656
 Sum of electronic and thermal Enthalpies=            -834.395712
 Sum of electronic and thermal Free Energies=         -834.427086

                     E (Thermal)             CV                S
                      KCal/Mol        Cal/Mol-Kelvin    Cal/Mol-Kelvin
 Total                    4.398              9.853             66.032
 Electronic               0.000              0.000              2.183
 Translational            0.889              2.981             38.898
 Rotational               0.889              2.981             22.157
 Vibrational              2.621              3.892              2.794
 Vibration     1          0.694              1.671              1.408
 Vibration     2          0.724              1.584              1.185

 Optimization completed.
    -- Stationary point found.
 Normal termination of Gaussian 09 at Wed Aug  3 22:57:56 2016.
