 Gaussian 09, Revision E.01,
 Gaussian 09:  EM64L-G09RevE.01 30-Nov-2015

 ------------------------------
 #p b3lyp/6-311++G(3df,2p) freq
 ------------------------------

 ---------
 b3lyp opt
 ---------
 Symbolic Z-matrix:
 Charge =  1 Multiplicity = 4

                         Standard orientation:
 ---------------------------------------------------------------------
 Center     Atomic      Atomic             Coordinates (Angstroms)
 Number     Number       Type             X           Y           Z
 ---------------------------------------------------------------------
      1         16           0       -0.000000    1.031911   -0.216871
      2         16           0       -0.000000   -1.031911   -0.216871
      3          6           0        0.000000    0.000000    1.156647
 ---------------------------------------------------------------------

 SCF Done:  E(UB3LYP) =  -834.043305287     A.U. after   13 cycles

 The electronic state is 4-B2.
 Alpha  occ. eigenvalues --  -89.21506 -89.21506 -10.53475  -8.29379  -8.29376
 Alpha  occ. eigenvalues --   -6.25580  -6.25571  -6.25570  -6.25557  -6.25273
 Alpha  occ. eigenvalues --   -6.25266  -1.20291  -0.95989  -0.85279  -0.69611
 Alpha  occ. eigenvalues --   -0.69543  -0.64514  -0.59255  -0.54409  -0.46936
 Alpha virt. eigenvalues --   -0.36082  -0.24024  -0.20409  -0.16237  -0.12053
 Alpha virt. eigenvalues --   -0.11363  -0.10101  -0.09855  -0.08650  -0.07532
 Alpha virt. eigenvalues --   -0.07401  -0.06425  -0.04433  -0.03976  -0.01908

  Beta  occ. eigenvalues --  -89.21001 -89.21001 -10.50459  -8.28916  -8.28911
  Beta  occ. eigenvalues --   -6.25281  -6.25253  -6.24857  -6.24855  -6.24153
  Beta  occ. eigenvalues --   -6.24151  -1.17458  -0.92311  -0.79409  -0.66553
  Beta  occ. eigenvalues --   -0.62468  -0.61960
  Beta virt. eigenvalues --   -0.42548  -0.42146  -0.34078  -0.30284  -0.21987
  Beta virt. eigenvalues --   -0.17137  -0.15365  -0.11415  -0.10900  -0.09288
  Beta virt. eigenvalues --   -0.09123  -0.07324  -0.06341  -0.05957  -0.05887

 Mulliken charges and spin densities:
               1          2
     1  S    0.336177   0.728699
     2  S    0.336177   0.728699
     3  C    0.327646   1.542603
 Sum of Mulliken charges =   1.00000   3.00000

 Dipole moment (field-independent basis, Debye):
    X=             -0.0000    Y=              0.0000    Z=             -0.2487  Tot=              0.2487
 Quadrupole moment (field-independent basis, Debye-Ang):
   XX=            -28.0138   YY=            -18.9134   ZZ=            -24.9476
   XY=              0.0000   XZ=              0.0000   YZ=              0.0000

  Exact polarizability:  27.295  -0.000  49.734  -0.000   0.000  36.028
 Approx polarizability:  41.884   0.000 112.881   0.000   0.000  69.256

                      1                      2                      3
                     A1                     B2                     A1
 Frequencies --    511.4160               762.9518               928.8421
 Red. masses --     27.3582                15.2622                14.3199
 Frc consts  --      4.2159                 5.2343                 7.2790
 IR Inten    --      1.0638                 2.8356                 0.7885

 - Thermochemistry -
 -------------------
 Temperature   298.150 Kelvin.  Pressure   1.00000 Atm.
 Atom     1 has atomic number 16 and mass  31.97207

 Molecular mass:    75.94414 amu.
 Principal axes and moments of inertia in atomic units:
                           1         2         3
     Eigenvalues --    68.06976 243.15466 311.22443
           X            0.00000   0.00000   1.00000
           Y            1.00000   0.00000  -0.00000
           Z           -0.00000   1.00000   0.00000
 This molecule is an asymmetric top.
 Rotational symmetry number  2.
 Rotational temperatures (Kelvin)      1.27243     0.35621     0.27830
 Rotational constants (GHZ):          26.51311     7.42219     5.79884
 Zero-point vibrational energy      13178.1 (Joules/Mol)
                                    3.14965 (Kcal/Mol)
 Warning -- explicit consideration of   1 degrees of freedom as
           vibrations may cause significant error
 Vibrational temperatures:    735.81  1097.72  1336.39
          (Kelvin)

 Zero-point correction=                           0.005019 (Hartree/Particle)
 Thermal correction to Energy=                    0.008206
 Thermal correction to Enthalpy=                  0.009150
 Thermal correction to Gibbs Free Energy=        -0.021462
 Sum of electronic and zero-point Energies=           -834.038286
 Sum of electronic and thermal Energies=              -834.035099
 Sum of electronic and thermal Enthalpies=            -834.034155
 Sum of electronic and thermal Free Energies=         -834.064767

                     E (Thermal)             CV                S
                      KCal/Mol        Cal/Mol-Kelvin    Cal/Mol-Kelvin
 Total                    5.149              8.362             64.428
 Electronic               0.000              0.000              2.755
 Translational            0.889              2.981             38.898
 Rotational               0.889              2.981             21.781
 Vibrational              3.372              2.400              0.994
 Vibration     1          0.867              1.225              0.630

 Optimization completed.
    -- Stationary point found.
 Normal termination of Gaussian 09 at Wed Aug  3 22:57:55 2016.
