 Gaussian 09, Revision E.01,
 Gaussian 09:  EM64L-G09RevE.01 30-Nov-2015

 ------------------------------
 #p b3lyp/6-311++G(3df,2p) freq
 ------------------------------

 ---------
 b3lyp opt
 ---------
 Symbolic Z-matrix:
 Charge =  2 Multiplicity = 3

                         Standard orientation:
 ---------------------------------------------------------------------
 Center     Atomic      Atomic             Coordinates (Angstroms)
 Number     Number       Type             X           Y           Z
 ---------------------------------------------------------------------
      1         16           0       -0.000000   -1.110639   -0.194142
      2         16           0        0.000000    1.110639   -0.194142
      3          6           0        0.000000    0.000000    1.035423
 ---------------------------------------------------------------------

 SCF Done:  E(UB3LYP) =  -833.483514476     A.U. after   14 cycles

 The electronic state is 3-A2.
 Alpha  occ. eigenvalues --  -89.52458 -89.52458 -10.86838  -8.59913  -8.59912
 Alpha  occ. eigenvalues --   -6.56216  -6.56215  -6.56117  -6.56109  -6.55758
 Alpha  occ. eigenvalues --   -6.55754  -1.49165  -1.26930  -1.10996  -0.97110
 Alpha  occ. eigenvalues --   -0.96291  -0.94958  -0.84279  -0.82681
 Alpha virt. eigenvalues --   -0.67207  -0.64698  -0.48592  -0.44923  -0.36951
 Alpha virt. eigenvalues --   -0.34561  -0.32573  -0.29626  -0.28394  -0.28127
 Alpha virt. eigenvalues --   -0.25941  -0.24614  -0.23867  -0.22947  -0.21772

  Beta  occ. eigenvalues --  -89.51935 -89.51935 -10.85400  -8.59435  -8.59434
  Beta  occ. eigenvalues --   -6.55763  -6.55752  -6.55268  -6.55268  -6.54853
  Beta  occ. eigenvalues --   -6.54853  -1.47230  -1.23401  -1.07396  -0.93465
  Beta  occ. eigenvalues --   -0.93078  -0.92123
  Beta virt. eigenvalues --   -0.71175  -0.69299  -0.65026  -0.61281  -0.47242
  Beta virt. eigenvalues --   -0.42049  -0.35729  -0.32389  -0.31225  -0.28819
  Beta virt. eigenvalues --   -0.27983  -0.27320  -0.24070  -0.23609  -0.22311

 Mulliken charges and spin densities:
               1          2
     1  S    0.717459   0.702561
     2  S    0.717459   0.702561
     3  C    0.565081   0.594878
 Sum of Mulliken charges =   2.00000   2.00000

 Dipole moment (field-independent basis, Debye):
    X=              0.0000    Y=              0.0000    Z=              0.0640  Tot=              0.0640
 Quadrupole moment (field-independent basis, Debye-Ang):
   XX=            -23.6438   YY=             -8.9494   ZZ=            -20.4038
   XY=              0.0000   XZ=             -0.0000   YZ=              0.0000

  Exact polarizability:  22.405   0.000  47.443   0.000   0.000  29.351
 Approx polarizability:  36.490   0.000 130.012  -0.000   0.000  62.547

                      1                      2                      3
                     A1                     B2                     A1
 Frequencies --    393.7758               634.9543              1008.5447
 Red. masses --     26.9475                14.7066                14.4350
 Frc consts  --      2.4619                 3.4934                 8.6508
 IR Inten    --      4.2465                 2.6849                 9.7600

 - Thermochemistry -
 -------------------
 Temperature   298.150 Kelvin.  Pressure   1.00000 Atm.
 Atom     1 has atomic number 16 and mass  31.97207

 Molecular mass:    75.94414 amu.
 Principal axes and moments of inertia in atomic units:
                           1         2         3
     Eigenvalues --    54.54914 281.67237 336.22151
           X            0.00000   0.00000   1.00000
           Y            1.00000   0.00000   0.00000
           Z            0.00000   1.00000   0.00000
 This molecule is an asymmetric top.
 Rotational symmetry number  2.
 Rotational temperatures (Kelvin)      1.58781     0.30750     0.25761
 Rotational constants (GHZ):          33.08469     6.40724     5.36771
 Zero-point vibrational energy      12185.6 (Joules/Mol)
                                    2.91243 (Kcal/Mol)
 Warning -- explicit consideration of   1 degrees of freedom as
           vibrations may cause significant error
 Vibrational temperatures:    566.55   913.56  1451.07
          (Kelvin)

 Zero-point correction=                           0.004641 (Hartree/Particle)
 Thermal correction to Energy=                    0.007967
 Thermal correction to Enthalpy=                  0.008911
 Thermal correction to Gibbs Free Energy=        -0.021657
 Sum of electronic and zero-point Energies=           -833.478873
 Sum of electronic and thermal Energies=              -833.475548
 Sum of electronic and thermal Enthalpies=            -833.474604
 Sum of electronic and thermal Free Energies=         -833.505171

                     E (Thermal)             CV                S
                      KCal/Mol        Cal/Mol-Kelvin    Cal/Mol-Kelvin
 Total                    4.999              8.772             64.335
 Electronic               0.000              0.000              2.183
 Translational            0.889              2.981             38.898
 Rotational               0.889              2.981             21.784
 Vibrational              3.222              2.810              1.469
 Vibration     1          0.761              1.483              0.986

 Optimization completed.
    -- Stationary point found.
 Normal termination of Gaussian 09 at Wed Aug  3 22:59:02 2016.
