 Gaussian 09, Revision E.01,
 Gaussian 09:  EM64L-G09RevE.01 30-Nov-2015

 ------------------------------
 #p b3lyp/6-311++G(3df,2p) freq
 ------------------------------

 ---------
 b3lyp opt
 ---------
 Symbolic Z-matrix:
 Charge =  0 Multiplicity = 1

                         Standard orientation:
 ---------------------------------------------------------------------
 Center     Atomic      Atomic             Coordinates (Angstroms)
 Number     Number       Type             X           Y           Z
 ---------------------------------------------------------------------
      1         16           0       -0.000000    1.064959   -0.215418
      2         16           0       -0.000000   -1.064959   -0.215418
      3          6           0       -0.000000    0.000000    1.148895
 ---------------------------------------------------------------------

 SCF Done:  E(RB3LYP) =  -834.449999170     A.U. after   10 cycles

 The electronic state is 1-A1.
 Alpha  occ. eigenvalues --  -88.91386 -88.91386 -10.27990  -7.99776  -7.99774
 Alpha  occ. eigenvalues --   -5.96165  -5.96146  -5.95729  -5.95727  -5.95271
 Alpha  occ. eigenvalues --   -5.95270  -0.91377  -0.68124  -0.56275  -0.41456
 Alpha  occ. eigenvalues --   -0.39922  -0.37890  -0.28145  -0.25733
 Alpha virt. eigenvalues --   -0.11516  -0.11299  -0.01368   0.01389   0.01659
 Alpha virt. eigenvalues --    0.04053   0.05252   0.06791   0.07549   0.07995
 Alpha virt. eigenvalues --    0.08176   0.08718   0.10091   0.13122   0.15013

 Mulliken charges:
               1
     1  S    0.004136
     2  S    0.004136
     3  C   -0.008273
 Sum of Mulliken charges =  -0.00000

 Dipole moment (field-independent basis, Debye):
    X=             -0.0000    Y=             -0.0000    Z=             -1.4627  Tot=              1.4627
 Quadrupole moment (field-independent basis, Debye-Ang):
   XX=            -32.3015   YY=            -28.3627   ZZ=            -34.1927
   XY=              0.0000   XZ=             -0.0000   YZ=             -0.0000

  Exact polarizability:  36.387   0.000  63.926  -0.000   0.000  46.827
 Approx polarizability:  57.707   0.000 157.490   0.000   0.000  89.963

                      1                      2                      3
                     A1                     B2                     A1
 Frequencies --    501.0105               516.8210               897.1500
 Red. masses --     27.5938                15.1327                14.2561
 Frc consts  --      4.0809                 2.3815                 6.7606
 IR Inten    --      0.0189                92.0263                19.6434

 - Thermochemistry -
 -------------------
 Temperature   298.150 Kelvin.  Pressure   1.00000 Atm.
 Atom     1 has atomic number 16 and mass  31.97207

 Molecular mass:    75.94414 amu.
 Principal axes and moments of inertia in atomic units:
                           1         2         3
     Eigenvalues --    67.16047 258.97901 326.13948
           X           -0.00000   0.00000   1.00000
           Y            1.00000  -0.00000   0.00000
           Z            0.00000   1.00000  -0.00000
 This molecule is an asymmetric top.
 Rotational symmetry number  2.
 Rotational temperatures (Kelvin)      1.28965     0.33444     0.26557
 Rotational constants (GHZ):          26.87207     6.96868     5.53365
 Zero-point vibrational energy      11454.1 (Joules/Mol)
                                    2.73760 (Kcal/Mol)
 Warning -- explicit consideration of   2 degrees of freedom as
           vibrations may cause significant error
 Vibrational temperatures:    720.84   743.59  1290.80
          (Kelvin)

 Zero-point correction=                           0.004363 (Hartree/Particle)
 Thermal correction to Energy=                    0.007685
 Thermal correction to Enthalpy=                  0.008629
 Thermal correction to Gibbs Free Energy=        -0.020919
 Sum of electronic and zero-point Energies=           -834.445637
 Sum of electronic and thermal Energies=              -834.442314
 Sum of electronic and thermal Enthalpies=            -834.441370
 Sum of electronic and thermal Free Energies=         -834.470918

                     E (Thermal)             CV                S
                      KCal/Mol        Cal/Mol-Kelvin    Cal/Mol-Kelvin
 Total                    4.822              8.926             62.189
 Electronic               0.000              0.000              0.000
 Translational            0.889              2.981             38.898
 Rotational               0.889              2.981             21.877
 Vibrational              3.045              2.964              1.414
 Vibration     1          0.856              1.248              0.656
 Vibration     2          0.872              1.213              0.617

 Optimization completed.
    -- Stationary point found.
 Normal termination of Gaussian 09 at Wed Aug  3 22:56:38 2016.
