 Gaussian 09, Revision E.01,
 Gaussian 09:  EM64L-G09RevE.01 30-Nov-2015

 ------------------------------
 #p b3lyp/6-311++G(3df,2p) freq
 ------------------------------

 ---------
 b3lyp opt
 ---------
 Symbolic Z-matrix:
 Charge =  0 Multiplicity = 1

                         Standard orientation:
 ---------------------------------------------------------------------
 Center     Atomic      Atomic             Coordinates (Angstroms)
 Number     Number       Type             X           Y           Z
 ---------------------------------------------------------------------
      1         16           0        0.000000   -0.000000    1.553499
      2         16           0        0.000000   -0.000000   -1.553499
      3          6           0        0.000000    0.000000    0.000000
 ---------------------------------------------------------------------

 SCF Done:  E(RB3LYP) =  -834.568610352     A.U. after    9 cycles

 The electronic state is 1-SGG.
 Alpha  occ. eigenvalues --  -88.88234 -88.88234 -10.29570  -7.96926  -7.96922
 Alpha  occ. eigenvalues --   -5.93112  -5.93111  -5.92728  -5.92728  -5.92727
 Alpha  occ. eigenvalues --   -5.92727  -0.86357  -0.77543  -0.51402  -0.43645
 Alpha  occ. eigenvalues --   -0.39479  -0.39479  -0.28001  -0.28001
 Alpha virt. eigenvalues --   -0.08226  -0.08226  -0.00178   0.01900   0.02486
 Alpha virt. eigenvalues --    0.04638   0.04638   0.06845   0.06845   0.07153
 Alpha virt. eigenvalues --    0.09581   0.13476   0.13476   0.14907   0.15200

 Mulliken charges:
               1
     1  S   -0.165340
     2  S   -0.165340
     3  C    0.330680
 Sum of Mulliken charges =   0.00000

 Dipole moment (field-independent basis, Debye):
    X=              0.0000    Y=             -0.0000    Z=              0.0000  Tot=              0.0000
 Quadrupole moment (field-independent basis, Debye-Ang):
   XX=            -31.5643   YY=            -31.5643   ZZ=            -28.6427
   XY=              0.0000   XZ=              0.0000   YZ=              0.0000

  Exact polarizability:  35.030  -0.000  35.030  -0.000  -0.000  93.284
 Approx polarizability:  55.193  -0.000  55.193  -0.000   0.000 233.408

                      1                      2                      3
                     PIU                    PIU                    SGG
 Frequencies --    408.7169               408.7169               677.8215
 Red. masses --     13.3142                13.3142                31.9721
 Frc consts  --      1.3104                 1.3104                 8.6547
 IR Inten    --      3.6378                 3.6378                 0.0000

                      4
                     SGU
 Frequencies --   1557.8976
 Red. masses --     13.3142
 Frc consts  --     19.0389
 IR Inten    --    693.5689

 - Thermochemistry -
 -------------------
 Temperature   298.150 Kelvin.  Pressure   1.00000 Atm.
 Atom     1 has atomic number 16 and mass  31.97207

 Molecular mass:    75.94414 amu.
 Principal axes and moments of inertia in atomic units:
                           1         2         3
     Eigenvalues --     0.00000 551.08705 551.08705
           X           -0.00000   0.91976   0.39248
           Y            0.00000  -0.39248   0.91976
           Z            1.00000   0.00000   0.00000
 This molecule is a prolate symmetric top.
 Rotational symmetry number  2.
 Warning -- assumption of classical behavior for rotation
           may cause significant error
 Rotational temperature (Kelvin)      0.15717
 Rotational constant (GHZ):           3.274875
 Zero-point vibrational energy      18261.9 (Joules/Mol)
                                    4.36470 (Kcal/Mol)
 Warning -- explicit consideration of   2 degrees of freedom as
           vibrations may cause significant error
 Vibrational temperatures:    588.05   588.05   975.23  2241.46
          (Kelvin)

 Zero-point correction=                           0.006956 (Hartree/Particle)
 Thermal correction to Energy=                    0.010044
 Thermal correction to Enthalpy=                  0.010988
 Thermal correction to Gibbs Free Energy=        -0.015958
 Sum of electronic and zero-point Energies=           -834.561655
 Sum of electronic and thermal Energies=              -834.558567
 Sum of electronic and thermal Enthalpies=            -834.557622
 Sum of electronic and thermal Free Energies=         -834.584568

                     E (Thermal)             CV                S
                      KCal/Mol        Cal/Mol-Kelvin    Cal/Mol-Kelvin
 Total                    6.303              8.804             56.712
 Electronic               0.000              0.000              0.000
 Translational            0.889              2.981             38.898
 Rotational               0.592              1.987             15.609
 Vibrational              4.821              3.836              2.205
 Vibration     1          0.773              1.451              0.931
 Vibration     2          0.773              1.451              0.931

 Optimization completed.
    -- Stationary point found.
 Normal termination of Gaussian 09 at Wed Aug  3 22:56:35 2016.
