 Gaussian 09, Revision E.01,
 Gaussian 09:  EM64L-G09RevE.01 30-Nov-2015

 ------------------------------
 #p b3lyp/6-311++G(3df,2p) freq
 ------------------------------

 ---------
 b3lyp opt
 ---------
 Symbolic Z-matrix:
 Charge =  1 Multiplicity = 2

                         Standard orientation:
 ---------------------------------------------------------------------
 Center     Atomic      Atomic             Coordinates (Angstroms)
 Number     Number       Type             X           Y           Z
 ---------------------------------------------------------------------
      1         16           0        0.000000   -1.009147   -0.229060
      2         16           0        0.000000    1.009147   -0.229060
      3          6           0        0.000000   -0.000000    1.221651
 ---------------------------------------------------------------------

 SCF Done:  E(UB3LYP) =  -834.104069053     A.U. after   14 cycles

 The electronic state is 2-A2.
 Alpha  occ. eigenvalues --  -89.21671 -89.21671 -10.55012  -8.29702  -8.29697
 Alpha  occ. eigenvalues --   -6.26029  -6.26027  -6.25822  -6.25784  -6.25435
 Alpha  occ. eigenvalues --   -6.25432  -1.20392  -0.95430  -0.84474  -0.68991
 Alpha  occ. eigenvalues --   -0.68904  -0.63180  -0.54550  -0.54507
 Alpha virt. eigenvalues --   -0.37195  -0.34789  -0.25425  -0.20898  -0.16996
 Alpha virt. eigenvalues --   -0.12554  -0.11458  -0.10130  -0.09987  -0.08900
 Alpha virt. eigenvalues --   -0.07426  -0.06850  -0.06658  -0.04381  -0.04079

  Beta  occ. eigenvalues --  -89.21275 -89.21275 -10.55180  -8.29345  -8.29338
  Beta  occ. eigenvalues --   -6.25622  -6.25584  -6.25194  -6.25192  -6.24798
  Beta  occ. eigenvalues --   -6.24795  -1.19366  -0.92578  -0.83846  -0.67883
  Beta  occ. eigenvalues --   -0.65039  -0.62562  -0.54451
  Beta virt. eigenvalues --   -0.43545  -0.36686  -0.33985  -0.25057  -0.20038
  Beta virt. eigenvalues --   -0.16619  -0.12079  -0.11106  -0.09788  -0.09637
  Beta virt. eigenvalues --   -0.07411  -0.07125  -0.06767  -0.06231  -0.04270

 Mulliken charges and spin densities:
               1          2
     1  S    0.379341   0.563068
     2  S    0.379341   0.563068
     3  C    0.241318  -0.126136
 Sum of Mulliken charges =   1.00000   1.00000

 Dipole moment (field-independent basis, Debye):
    X=              0.0000    Y=              0.0000    Z=             -1.3247  Tot=              1.3247
 Quadrupole moment (field-independent basis, Debye-Ang):
   XX=            -26.6230   YY=            -19.2428   ZZ=            -28.1756
   XY=              0.0000   XZ=             -0.0000   YZ=             -0.0000

  Exact polarizability:  27.075   0.000  49.350   0.000  -0.000  39.322
 Approx polarizability:  45.985   0.000 121.423  -0.000   0.000  81.452

                      1                      2                      3
                     B2                     A1                     A1
 Frequencies --    419.1989               581.4462               838.2211
 Red. masses --     15.5476                25.8974                14.7555
 Frc consts  --      1.6097                 5.1585                 6.1083
 IR Inten    --      5.0373                 3.9353                47.1164

 - Thermochemistry -
 -------------------
 Temperature   298.150 Kelvin.  Pressure   1.00000 Atm.
 Atom     1 has atomic number 16 and mass  31.97207

 Molecular mass:    75.94414 amu.
 Principal axes and moments of inertia in atomic units:
                           1         2         3
     Eigenvalues --    75.93592 232.54498 308.48089
           X            0.00000   0.00000   1.00000
           Y            1.00000   0.00000  -0.00000
           Z           -0.00000   1.00000  -0.00000
 This molecule is an asymmetric top.
 Rotational symmetry number  2.
 Rotational temperatures (Kelvin)      1.14062     0.37246     0.28078
 Rotational constants (GHZ):          23.76663     7.76083     5.85041
 Zero-point vibrational energy      10998.9 (Joules/Mol)
                                    2.62879 (Kcal/Mol)
 Warning -- explicit consideration of   2 degrees of freedom as
           vibrations may cause significant error
 Vibrational temperatures:    603.13   836.57  1206.01
          (Kelvin)

 Zero-point correction=                           0.004189 (Hartree/Particle)
 Thermal correction to Energy=                    0.007551
 Thermal correction to Enthalpy=                  0.008496
 Thermal correction to Gibbs Free Energy=        -0.021755
 Sum of electronic and zero-point Energies=           -834.099880
 Sum of electronic and thermal Energies=              -834.096518
 Sum of electronic and thermal Enthalpies=            -834.095573
 Sum of electronic and thermal Free Energies=         -834.125824

                     E (Thermal)             CV                S
                      KCal/Mol        Cal/Mol-Kelvin    Cal/Mol-Kelvin
 Total                    4.739              9.051             63.668
 Electronic               0.000              0.000              1.377
 Translational            0.889              2.981             38.898
 Rotational               0.889              2.981             21.837
 Vibrational              2.961              3.090              1.556
 Vibration     1          0.782              1.429              0.895
 Vibration     2          0.938              1.071              0.483

 Optimization completed.
    -- Stationary point found.
 Normal termination of Gaussian 09 at Wed Aug  3 22:57:56 2016.
