 Gaussian 09, Revision E.01,
 Gaussian 09:  EM64L-G09RevE.01 30-Nov-2015

 ------------------------------
 #p b3lyp/6-311++G(3df,2p) freq
 ------------------------------

 ---------
 b3lyp opt
 ---------
 Symbolic Z-matrix:
 Charge =  0 Multiplicity = 3

                         Standard orientation:
 ---------------------------------------------------------------------
 Center     Atomic      Atomic             Coordinates (Angstroms)
 Number     Number       Type             X           Y           Z
 ---------------------------------------------------------------------
      1         16           0        0.000000   -0.982956   -0.252493
      2         16           0        0.000000    0.982956   -0.252493
      3          6           0       -0.000000    0.000000    1.346632
 ---------------------------------------------------------------------

 SCF Done:  E(UB3LYP) =  -834.394286693     A.U. after   14 cycles

 The electronic state is 3-B2.
 Alpha  occ. eigenvalues --  -88.93695 -88.93695 -10.23556  -8.01899  -8.01891
 Alpha  occ. eigenvalues --   -5.98159  -5.98156  -5.98087  -5.98035  -5.97615
 Alpha  occ. eigenvalues --   -5.97611  -0.91359  -0.67671  -0.58658  -0.43176
 Alpha  occ. eigenvalues --   -0.42883  -0.34253  -0.30474  -0.28516  -0.20678
 Alpha virt. eigenvalues --   -0.08336  -0.03532  -0.00201   0.01176   0.03644
 Alpha virt. eigenvalues --    0.04955   0.06423   0.07228   0.07324   0.07465
 Alpha virt. eigenvalues --    0.08661   0.09771   0.13397   0.14592   0.15134

  Beta  occ. eigenvalues --  -88.93324 -88.93324 -10.22248  -8.01561  -8.01552
  Beta  occ. eigenvalues --   -5.97898  -5.97845  -5.97424  -5.97420  -5.96966
  Beta  occ. eigenvalues --   -5.96961  -0.89517  -0.64728  -0.55343  -0.41979
  Beta  occ. eigenvalues --   -0.37174  -0.33047  -0.28337
  Beta virt. eigenvalues --   -0.17720  -0.07417  -0.06236  -0.02629   0.00598
  Beta virt. eigenvalues --    0.01367   0.03878   0.05232   0.06786   0.07573
  Beta virt. eigenvalues --    0.07759   0.07792   0.08782   0.11277   0.13686

 Mulliken charges and spin densities:
               1          2
     1  S    0.078365   0.576746
     2  S    0.078365   0.576746
     3  C   -0.156729   0.846509
 Sum of Mulliken charges =  -0.00000   2.00000

 Dipole moment (field-independent basis, Debye):
    X=              0.0000    Y=              0.0000    Z=             -2.2548  Tot=              2.2548
 Quadrupole moment (field-independent basis, Debye-Ang):
   XX=            -31.9874   YY=            -27.6195   ZZ=            -36.1694
   XY=              0.0000   XZ=              0.0000   YZ=              0.0000

  Exact polarizability:  36.567  -0.000  58.616  -0.000   0.000  55.426
 Approx polarizability:  55.912   0.000 131.809  -0.000   0.000 105.788

                      1                      2                      3
                     B2                     A1                     A1
 Frequencies --    432.8779               596.1459               686.8234
 Red. masses --     16.0815                17.2299                20.6840
 Frc consts  --      1.7755                 3.6078                 5.7488
 IR Inten    --      0.7931                 7.5031                17.3167

 - Thermochemistry -
 -------------------
 Temperature   298.150 Kelvin.  Pressure   1.00000 Atm.
 Atom     1 has atomic number 16 and mass  31.97207

 Molecular mass:    75.94414 amu.
 Principal axes and moments of inertia in atomic units:
                           1         2         3
     Eigenvalues --    92.26784 220.63108 312.89892
           X            0.00000   0.00000   1.00000
           Y            1.00000   0.00000  -0.00000
           Z            0.00000   1.00000   0.00000
 This molecule is an asymmetric top.
 Rotational symmetry number  2.
 Rotational temperatures (Kelvin)      0.93872     0.39257     0.27681
 Rotational constants (GHZ):          19.55981     8.17990     5.76781
 Zero-point vibrational energy      10263.0 (Joules/Mol)
                                    2.45293 (Kcal/Mol)
 Warning -- explicit consideration of   2 degrees of freedom as
           vibrations may cause significant error
 Vibrational temperatures:    622.81   857.72   988.18
          (Kelvin)

 Zero-point correction=                           0.003909 (Hartree/Particle)
 Thermal correction to Energy=                    0.007300
 Thermal correction to Enthalpy=                  0.008245
 Thermal correction to Gibbs Free Energy=        -0.022497
 Sum of electronic and zero-point Energies=           -834.390378
 Sum of electronic and thermal Energies=              -834.386986
 Sum of electronic and thermal Enthalpies=            -834.386042
 Sum of electronic and thermal Free Energies=         -834.416784

                     E (Thermal)             CV                S
                      KCal/Mol        Cal/Mol-Kelvin    Cal/Mol-Kelvin
 Total                    4.581              9.255             64.701
 Electronic               0.000              0.000              2.183
 Translational            0.889              2.981             38.898
 Rotational               0.889              2.981             21.992
 Vibrational              2.804              3.293              1.628
 Vibration     1          0.794              1.399              0.849
 Vibration     2          0.954              1.040              0.456

 Optimization completed.
    -- Stationary point found.
 Normal termination of Gaussian 09 at Wed Aug  3 22:57:56 2016.
