 Gaussian 09, Revision E.01,
 Gaussian 09:  EM64L-G09RevE.01 30-Nov-2015

 ------------------------------
 #p b3lyp/6-311++G(3df,2p) freq
 ------------------------------

 ---------
 b3lyp opt
 ---------
 Symbolic Z-matrix:
 Charge =  0 Multiplicity = 1

                         Standard orientation:
 ---------------------------------------------------------------------
 Center     Atomic      Atomic             Coordinates (Angstroms)
 Number     Number       Type             X           Y           Z
 ---------------------------------------------------------------------
      1         16           0       -0.002770   -1.110831    0.000000
      2          6           0       -0.000000    0.445086   -0.000000
      3          6           0        0.005006    1.749465   -0.000000
      4          1           0        0.936654    2.299420   -0.000000
      5          1           0       -0.922372    2.306567   -0.000000
 ---------------------------------------------------------------------

 SCF Done:  E(RB3LYP) =  -475.617580143     A.U. after   12 cycles

 The electronic state is 1-A'.
 Alpha  occ. eigenvalues --  -88.86892 -10.26024 -10.18610  -7.95555  -5.91734
 Alpha  occ. eigenvalues --   -5.91643  -5.91093  -0.83661  -0.74366  -0.53095
 Alpha  occ. eigenvalues --   -0.46987  -0.44131  -0.36781  -0.32663  -0.23673
 Alpha virt. eigenvalues --   -0.08933  -0.01160  -0.00711   0.02308   0.02728
 Alpha virt. eigenvalues --    0.03905   0.05965   0.06268   0.08436   0.08725
 Alpha virt. eigenvalues --    0.10510   0.13212   0.13721   0.14042   0.14574

 Mulliken charges:
               1
     1  S   -0.182778
     2  C    0.181805
     3  C   -0.336192
     4  H    0.168606
     5  H    0.168560
 Sum of Mulliken charges =  -0.00000

 Dipole moment (field-independent basis, Debye):
    X=              0.0041    Y=              1.0723    Z=             -0.0000  Tot=              1.0723
 Quadrupole moment (field-independent basis, Debye-Ang):
   XX=            -23.6440   YY=            -21.8281   ZZ=            -27.6855
   XY=              0.0037   XZ=              0.0000   YZ=              0.0000

  Exact polarizability:  32.019   0.116  78.919   0.000  -0.001  33.082
 Approx polarizability:  48.792   0.255 152.903   0.000  -0.000  47.129

                      1                      2                      3
                     A'                     A"                     A"
 Frequencies --    365.4987               425.4625               722.2270
 Red. masses --      2.5070                 5.9150                 1.3251
 Frc consts  --      0.1973                 0.6308                 0.4072
 IR Inten    --      2.4912                 8.0299                78.2433

                      4                      5                      6
                     A'                     A'                     A'
 Frequencies --    862.0669               933.3656              1379.3689
 Red. masses --      5.9530                 1.6566                 1.1347
 Frc consts  --      2.6066                 0.8503                 1.2721
 IR Inten    --     14.3420                 0.2672                 0.6911

                      7                      8                      9
                     A'                     A'                     A'
 Frequencies --   1814.4879              3139.3298              3216.8367
 Red. masses --      9.8921                 1.0572                 1.1138
 Frc consts  --     19.1888                 6.1390                 6.7909
 IR Inten    --    426.8750                25.0071                 3.9792

 - Thermochemistry -
 -------------------
 Temperature   298.150 Kelvin.  Pressure   1.00000 Atm.
 Atom     1 has atomic number 16 and mass  31.97207

 Molecular mass:    57.98772 amu.
 Principal axes and moments of inertia in atomic units:
                           1         2         3
     Eigenvalues --     6.21921 317.44057 323.65978
           X            0.00263   1.00000  -0.00000
           Y            1.00000  -0.00263   0.00000
           Z           -0.00000   0.00000   1.00000
 This molecule is an asymmetric top.
 Rotational symmetry number  1.
 Rotational temperatures (Kelvin)     13.92683     0.27285     0.26761
 Rotational constants (GHZ):         290.18833     5.68529     5.57604
 Zero-point vibrational energy      76911.8 (Joules/Mol)
                                   18.38235 (Kcal/Mol)
 Warning -- explicit consideration of   2 degrees of freedom as
           vibrations may cause significant error
 Vibrational temperatures:    525.87   612.14  1039.12  1240.32  1342.90
          (Kelvin)           1984.60  2610.64  4516.79  4628.30

 Zero-point correction=                           0.029294 (Hartree/Particle)
 Thermal correction to Energy=                    0.032980
 Thermal correction to Enthalpy=                  0.033924
 Thermal correction to Gibbs Free Energy=         0.004590
 Sum of electronic and zero-point Energies=           -475.588286
 Sum of electronic and thermal Energies=              -475.584600
 Sum of electronic and thermal Enthalpies=            -475.583656
 Sum of electronic and thermal Free Energies=         -475.612990

                     E (Thermal)             CV                S
                      KCal/Mol        Cal/Mol-Kelvin    Cal/Mol-Kelvin
 Total                   20.695             10.855             61.739
 Electronic               0.000              0.000              0.000
 Translational            0.889              2.981             38.094
 Rotational               0.889              2.981             21.085
 Vibrational             18.918              4.893              2.560
 Vibration     1          0.739              1.543              1.099
 Vibration     2          0.787              1.415              0.874

 Optimization completed.
    -- Stationary point found.
 Normal termination of Gaussian 09 at Wed Aug  3 22:58:14 2016.
