 Gaussian 09, Revision E.01,
 Gaussian 09:  EM64L-G09RevE.01 30-Nov-2015

 ------------------------------
 #p b3lyp/6-311++G(3df,2p) freq
 ------------------------------

 ---------
 b3lyp opt
 ---------
 Symbolic Z-matrix:
 Charge =  0 Multiplicity = 1

                         Standard orientation:
 ---------------------------------------------------------------------
 Center     Atomic      Atomic             Coordinates (Angstroms)
 Number     Number       Type             X           Y           Z
 ---------------------------------------------------------------------
      1         16           0        0.000000    0.775718    0.000000
      2          6           0       -0.896555   -0.670205   -0.000000
      3          6           0        0.558097   -0.957972    0.000000
      4          1           0        1.015375   -1.321211    0.914121
      5          1           0        1.015375   -1.321211   -0.914121
 ---------------------------------------------------------------------

 SCF Done:  E(RB3LYP) =  -475.538128474     A.U. after   12 cycles

 The electronic state is 1-A'.
 Alpha  occ. eigenvalues --  -88.89169 -10.24518 -10.23224  -7.97714  -5.93889
 Alpha  occ. eigenvalues --   -5.93565  -5.93499  -0.90407  -0.65609  -0.56101
 Alpha  occ. eigenvalues --   -0.48675  -0.41227  -0.35387  -0.30399  -0.25575
 Alpha virt. eigenvalues --   -0.10135  -0.02993  -0.00166   0.01252   0.02047
 Alpha virt. eigenvalues --    0.04120   0.06101   0.07005   0.08191   0.08599
 Alpha virt. eigenvalues --    0.09849   0.10262   0.12697   0.13346   0.13491

 Mulliken charges:
               1
     1  S    0.032068
     2  C   -0.316043
     3  C    0.025089
     4  H    0.129443
     5  H    0.129443
 Sum of Mulliken charges =  -0.00000

 Dipole moment (field-independent basis, Debye):
    X=              2.3239    Y=              0.0081    Z=              0.0000  Tot=              2.3239
 Quadrupole moment (field-independent basis, Debye-Ang):
   XX=            -28.2146   YY=            -24.4295   ZZ=            -24.3333
   XY=             -3.1020   XZ=              0.0000   YZ=             -0.0000

  Exact polarizability:  41.451   0.957  52.213   0.000  -0.000  33.228
 Approx polarizability:  65.961   8.792 106.964   0.000  -0.000  51.889

                      1                      2                      3
                     A'                     A'                     A"
 Frequencies --    596.1589               790.2442               893.2616
 Red. masses --      8.8896                10.1216                 1.0951
 Frc consts  --      1.8615                 3.7241                 0.5148
 IR Inten    --     39.8149                28.3033                10.0708

                      4                      5                      6
                     A"                     A'                     A'
 Frequencies --    956.1058               991.1587              1132.7431
 Red. masses --      1.2224                 1.5080                 3.3555
 Frc consts  --      0.6584                 0.8728                 2.5367
 IR Inten    --      0.7927                11.9586                29.2836

                      7                      8                      9
                     A'                     A'                     A"
 Frequencies --   1462.6480              3084.1053              3165.6876
 Red. masses --      1.1017                 1.0492                 1.1166
 Frc consts  --      1.3886                 5.8799                 6.5930
 IR Inten    --      5.5628                 3.7302                 0.3586

 - Thermochemistry -
 -------------------
 Temperature   298.150 Kelvin.  Pressure   1.00000 Atm.
 Atom     1 has atomic number 16 and mass  31.97207

 Molecular mass:    57.98772 amu.
 Principal axes and moments of inertia in atomic units:
                           1         2         3
     Eigenvalues --    60.48221 145.93781 194.39046
           X           -0.07623   0.99709   0.00000
           Y            0.99709   0.07623   0.00000
           Z           -0.00000   0.00000   1.00000
 This molecule is an asymmetric top.
 Rotational symmetry number  1.
 Rotational temperatures (Kelvin)      1.43205     0.59350     0.44557
 Rotational constants (GHZ):          29.83921    12.36651     9.28410
 Zero-point vibrational energy      78188.6 (Joules/Mol)
                                   18.68752 (Kcal/Mol)
 Warning -- explicit consideration of   1 degrees of freedom as
           vibrations may cause significant error
 Vibrational temperatures:    857.74  1136.98  1285.20  1375.62  1426.05
          (Kelvin)           1629.76  2104.42  4437.33  4554.71

 Zero-point correction=                           0.029780 (Hartree/Particle)
 Thermal correction to Energy=                    0.033021
 Thermal correction to Enthalpy=                  0.033965
 Thermal correction to Gibbs Free Energy=         0.004862
 Sum of electronic and zero-point Energies=           -475.508348
 Sum of electronic and thermal Energies=              -475.505107
 Sum of electronic and thermal Enthalpies=            -475.504163
 Sum of electronic and thermal Free Energies=         -475.533266

                     E (Thermal)             CV                S
                      KCal/Mol        Cal/Mol-Kelvin    Cal/Mol-Kelvin
 Total                   20.721              9.331             61.252
 Electronic               0.000              0.000              0.000
 Translational            0.889              2.981             38.094
 Rotational               0.889              2.981             22.066
 Vibrational             18.944              3.370              1.092
 Vibration     1          0.954              1.040              0.456

 Optimization completed.
    -- Stationary point found.
 Normal termination of Gaussian 09 at Wed Aug  3 22:58:09 2016.
