 Gaussian 09, Revision E.01,
 Gaussian 09:  EM64L-G09RevE.01 30-Nov-2015

 ------------------------------
 #p b3lyp/6-311++G(3df,2p) freq
 ------------------------------

 ---------
 b3lyp opt
 ---------
 Symbolic Z-matrix:
 Charge =  2 Multiplicity = 3

                         Standard orientation:
 ---------------------------------------------------------------------
 Center     Atomic      Atomic             Coordinates (Angstroms)
 Number     Number       Type             X           Y           Z
 ---------------------------------------------------------------------
      1         16           0       -1.779809   -0.119141   -0.091498
      2         16           0        1.530362   -0.512358   -0.007094
      3          6           0       -0.108368    0.269857    0.037466
      4          6           0        0.897745    1.111873    0.015520
      5          1           0        1.251418    2.142891    0.007278
      6          1           0       -1.996542   -0.329293    1.252278
 ---------------------------------------------------------------------

 SCF Done:  E(UB3LYP) =  -872.931776883     A.U. after   16 cycles

 The electronic state is 3-A.
 Alpha  occ. eigenvalues --  -89.42781 -89.39543 -10.73606 -10.71572  -8.50584
 Alpha  occ. eigenvalues --   -8.47284  -6.47310  -6.46622  -6.46165  -6.43638
 Alpha  occ. eigenvalues --   -6.43526  -6.43086  -1.39700  -1.29085  -1.11334
 Alpha  occ. eigenvalues --   -1.02628  -0.96763  -0.90167  -0.86973  -0.84652
 Alpha  occ. eigenvalues --   -0.82513  -0.77493  -0.69508
 Alpha virt. eigenvalues --   -0.50954  -0.48867  -0.42213  -0.40780  -0.39595
 Alpha virt. eigenvalues --   -0.31987  -0.28385  -0.28110  -0.26948  -0.26019
 Alpha virt. eigenvalues --   -0.24954  -0.23497  -0.22614  -0.21905  -0.20730

  Beta  occ. eigenvalues --  -89.42192 -89.38900 -10.73273 -10.71439  -8.50040
  Beta  occ. eigenvalues --   -8.46704  -6.46307  -6.45839  -6.45452  -6.42966
  Beta  occ. eigenvalues --   -6.42634  -6.41932  -1.38155  -1.26025  -1.07997
  Beta  occ. eigenvalues --   -1.01652  -0.95708  -0.88026  -0.83994  -0.81629
  Beta  occ. eigenvalues --   -0.80509
  Beta virt. eigenvalues --   -0.65486  -0.57991  -0.49497  -0.47050  -0.41440
  Beta virt. eigenvalues --   -0.38890  -0.37926  -0.30860  -0.27837  -0.27331
  Beta virt. eigenvalues --   -0.25858  -0.25314  -0.23953  -0.22705  -0.22017

 Mulliken charges and spin densities:
               1          2
     1  S    0.317530   0.893036
     2  S    0.534618   0.919275
     3  C   -0.063329   0.122215
     4  C    0.517511   0.058748
     5  H    0.402351   0.003243
     6  H    0.291319   0.003483
 Sum of Mulliken charges =   2.00000   2.00000

 Dipole moment (field-independent basis, Debye):
    X=             -1.3250    Y=              1.0745    Z=              1.1073  Tot=              2.0338
 Quadrupole moment (field-independent basis, Debye-Ang):
   XX=             -2.3393   YY=            -22.0300   ZZ=            -28.9695
   XY=              2.7910   XZ=             -2.7157   YZ=             -0.5138

  Exact polarizability:  75.465   0.856  42.189  -1.972  -0.533  32.223
 Approx polarizability: 141.291  -3.146  76.321  -2.720  -1.097  52.599

                      1                      2                      3
                      A                      A                      A
 Frequencies --    216.7362               253.5596               295.1443
 Red. masses --     10.8051                 1.1208                 3.9708
 Frc consts  --      0.2990                 0.0425                 0.2038
 IR Inten    --      3.7906                32.7626                12.0145

                      4                      5                      6
                      A                      A                      A
 Frequencies --    439.3440               630.0238               725.6519
 Red. masses --      9.0150                 8.7588                 9.0902
 Frc consts  --      1.0252                 2.0484                 2.8202
 IR Inten    --      9.5027                45.5203                 0.2184

                      7                      8                      9
                      A                      A                      A
 Frequencies --    831.2144               926.6924               994.1490
 Red. masses --      1.2743                 1.1836                 1.2054
 Frc consts  --      0.5187                 0.5989                 0.7019
 IR Inten    --     34.6758                 7.4621                19.0477

                     10                     11                     12
                      A                      A                      A
 Frequencies --   1629.2995              2449.6078              3153.1955
 Red. masses --      7.2015                 1.0394                 1.1202
 Frc consts  --     11.2635                 3.6747                 6.5620
 IR Inten    --     69.9158               174.3333               230.5321

 - Thermochemistry -
 -------------------
 Temperature   298.150 Kelvin.  Pressure   1.00000 Atm.
 Atom     1 has atomic number 16 and mass  31.97207

 Molecular mass:    89.95979 amu.
 Principal axes and moments of inertia in atomic units:
                           1         2         3
     Eigenvalues --   110.74415 690.89885 788.68922
           X            0.99971   0.01998  -0.01332
           Y           -0.02018   0.99968  -0.01502
           Z            0.01301   0.01528   0.99980
 This molecule is an asymmetric top.
 Rotational symmetry number  1.
 Rotational temperatures (Kelvin)      0.78211     0.12536     0.10982
 Rotational constants (GHZ):          16.29649     2.61216     2.28828
 Zero-point vibrational energy      75033.5 (Joules/Mol)
                                   17.93343 (Kcal/Mol)
 Warning -- explicit consideration of   4 degrees of freedom as
           vibrations may cause significant error
 Vibrational temperatures:    311.83   364.82   424.65   632.12   906.46
          (Kelvin)           1044.05  1195.93  1333.30  1430.36  2344.20
                             3524.43  4536.74

 Zero-point correction=                           0.028579 (Hartree/Particle)
 Thermal correction to Energy=                    0.033533
 Thermal correction to Enthalpy=                  0.034477
 Thermal correction to Gibbs Free Energy=        -0.000798
 Sum of electronic and zero-point Energies=           -872.903198
 Sum of electronic and thermal Energies=              -872.898244
 Sum of electronic and thermal Enthalpies=            -872.897299
 Sum of electronic and thermal Free Energies=         -872.932575

                     E (Thermal)             CV                S
                      KCal/Mol        Cal/Mol-Kelvin    Cal/Mol-Kelvin
 Total                   21.042             15.849             74.244
 Electronic               0.000              0.000              2.183
 Translational            0.889              2.981             39.403
 Rotational               0.889              2.981             25.604
 Vibrational             19.265              9.888              7.054
 Vibration     1          0.646              1.816              1.986
 Vibration     2          0.665              1.757              1.706
 Vibration     3          0.689              1.683              1.444
 Vibration     4          0.799              1.384              0.829

 Normal termination of Gaussian 09 at Wed Aug  3 20:24:35 2016.
