 Gaussian 09, Revision E.01,
 Gaussian 09:  EM64L-G09RevE.01 30-Nov-2015

 ------------------------------
 #p b3lyp/6-311++G(3df,2p) freq
 ------------------------------

 ---------
 b3lyp opt
 ---------
 Symbolic Z-matrix:
 Charge =  1 Multiplicity = 4

                         Standard orientation:
 ---------------------------------------------------------------------
 Center     Atomic      Atomic             Coordinates (Angstroms)
 Number     Number       Type             X           Y           Z
 ---------------------------------------------------------------------
      1         16           0       -0.000000    0.833633    0.000000
      2          6           0       -0.860508   -0.747516   -0.000000
      3          6           0        0.508254   -1.043818   -0.000000
      4          1           0        1.056764   -1.295063    0.920119
      5          1           0        1.056764   -1.295063   -0.920119
 ---------------------------------------------------------------------

 SCF Done:  E(UB3LYP) =  -475.114368161     A.U. after   14 cycles

 The electronic state is 4-A'.
 Alpha  occ. eigenvalues --  -89.21922 -10.51726 -10.50608  -8.29725  -6.26502
 Alpha  occ. eigenvalues --   -6.25677  -6.25526  -1.16974  -0.94766  -0.84619
 Alpha  occ. eigenvalues --   -0.74965  -0.68266  -0.64777  -0.60833  -0.56484
 Alpha  occ. eigenvalues --   -0.47923
 Alpha virt. eigenvalues --   -0.29497  -0.24238  -0.17365  -0.13334  -0.12872
 Alpha virt. eigenvalues --   -0.10750  -0.10255  -0.07886  -0.07815  -0.06984
 Alpha virt. eigenvalues --   -0.06509  -0.03955  -0.02800  -0.02351  -0.01818

  Beta  occ. eigenvalues --  -89.21088 -10.50598 -10.48718  -8.28961  -6.25186
  Beta  occ. eigenvalues --   -6.24617  -6.24362  -1.13403  -0.90845  -0.80066
  Beta  occ. eigenvalues --   -0.71411  -0.63429  -0.61830
  Beta virt. eigenvalues --   -0.46244  -0.40494  -0.29768  -0.27786  -0.20622
  Beta virt. eigenvalues --   -0.16735  -0.12783  -0.12177  -0.10302  -0.09615
  Beta virt. eigenvalues --   -0.07393  -0.07064  -0.05683  -0.05160  -0.02357

 Mulliken charges and spin densities:
               1          2
     1  S    0.458762   1.255643
     2  C    0.146387   1.745787
     3  C   -0.036767  -0.174859
     4  H    0.215809   0.086715
     5  H    0.215809   0.086715
 Sum of Mulliken charges =   1.00000   3.00000

 Dipole moment (field-independent basis, Debye):
    X=              1.3342    Y=             -0.7488    Z=             -0.0000  Tot=              1.5300
 Quadrupole moment (field-independent basis, Debye-Ang):
   XX=            -19.7806   YY=            -15.4833   ZZ=            -20.2598
   XY=             -2.2611   XZ=             -0.0000   YZ=              0.0000

  Exact polarizability:  33.410  -0.664  42.598   0.000   0.000  25.819
 Approx polarizability:  55.322   1.996  78.948  -0.000   0.000  37.774

                      1                      2                      3
                     A'                     A"                     A'
 Frequencies --    370.0412               606.3912               741.6625
 Red. masses --      7.8778                 1.0779                13.8474
 Frc consts  --      0.6356                 0.2335                 4.4878
 IR Inten    --      4.1806                 0.4393                 1.0682

                      4                      5                      6
                     A"                     A'                     A'
 Frequencies --    834.5019              1041.6124              1262.9382
 Red. masses --      1.2785                 1.1950                 4.1971
 Frc consts  --      0.5246                 0.7639                 3.9443
 IR Inten    --      5.6430                27.7982                 2.4463

                      7                      8                      9
                     A'                     A'                     A"
 Frequencies --   1361.5210              2942.1720              3000.5804
 Red. masses --      1.2292                 1.0477                 1.1057
 Frc consts  --      1.3426                 5.3435                 5.8654
 IR Inten    --     34.3207                72.9900                39.8663

 - Thermochemistry -
 -------------------
 Temperature   298.150 Kelvin.  Pressure   1.00000 Atm.
 Atom     1 has atomic number 16 and mass  31.97207

 Molecular mass:    57.98772 amu.
 Principal axes and moments of inertia in atomic units:
                           1         2         3
     Eigenvalues --    56.46496 167.94543 212.22242
           X           -0.04212   0.99911   0.00000
           Y            0.99911   0.04212   0.00000
           Z           -0.00000   0.00000   1.00000
 This molecule is an asymmetric top.
 Rotational symmetry number  1.
 Rotational temperatures (Kelvin)      1.53394     0.51573     0.40813
 Rotational constants (GHZ):          31.96215    10.74600     8.50401
 Zero-point vibrational energy      72741.4 (Joules/Mol)
                                   17.38562 (Kcal/Mol)
 Warning -- explicit consideration of   2 degrees of freedom as
           vibrations may cause significant error
 Vibrational temperatures:    532.41   872.46  1067.09  1200.66  1498.65
          (Kelvin)           1817.08  1958.92  4233.12  4317.16

 Zero-point correction=                           0.027706 (Hartree/Particle)
 Thermal correction to Energy=                    0.031254
 Thermal correction to Enthalpy=                  0.032198
 Thermal correction to Gibbs Free Energy=         0.001236
 Sum of electronic and zero-point Energies=           -475.086662
 Sum of electronic and thermal Energies=              -475.083115
 Sum of electronic and thermal Enthalpies=            -475.082170
 Sum of electronic and thermal Free Energies=         -475.113133

                     E (Thermal)             CV                S
                      KCal/Mol        Cal/Mol-Kelvin    Cal/Mol-Kelvin
 Total                   19.612             10.483             65.165
 Electronic               0.000              0.000              2.755
 Translational            0.889              2.981             38.094
 Rotational               0.889              2.981             22.225
 Vibrational             17.834              4.521              2.092
 Vibration     1          0.742              1.534              1.080
 Vibration     2          0.965              1.018              0.439

 Optimization completed.
    -- Stationary point found.
 Normal termination of Gaussian 09 at Wed Aug  3 23:03:13 2016.
