 Gaussian 09, Revision E.01,
 Gaussian 09:  EM64L-G09RevE.01 30-Nov-2015

 ------------------------------
 #p b3lyp/6-311++G(3df,2p) freq
 ------------------------------

 ---------
 b3lyp opt
 ---------
 Symbolic Z-matrix:
 Charge =  2 Multiplicity = 3

                         Standard orientation:
 ---------------------------------------------------------------------
 Center     Atomic      Atomic             Coordinates (Angstroms)
 Number     Number       Type             X           Y           Z
 ---------------------------------------------------------------------
      1         16           0        1.029395   -0.094097    0.000030
      2          6           0       -0.590826    0.040099   -0.000149
      3          6           0       -1.870677   -0.001274   -0.000008
      4          1           0        1.267538    1.287852    0.000067
      5          1           0       -2.968832   -0.015245    0.000401
 ---------------------------------------------------------------------

 SCF Done:  E(UB3LYP) =  -474.602653799     A.U. after   15 cycles

 The electronic state is 3-A.
 Alpha  occ. eigenvalues --  -89.47970 -10.82661 -10.82078  -8.55782  -6.52183
 Alpha  occ. eigenvalues --   -6.51874  -6.51588  -1.40115  -1.31729  -1.08123
 Alpha  occ. eigenvalues --   -1.03143  -0.95656  -0.91618  -0.86513  -0.80961
 Alpha virt. eigenvalues --   -0.57563  -0.53364  -0.47779  -0.45286  -0.34545
 Alpha virt. eigenvalues --   -0.34236  -0.29982  -0.28705  -0.27286  -0.26542
 Alpha virt. eigenvalues --   -0.24949  -0.23471  -0.23189  -0.18818  -0.17674

  Beta  occ. eigenvalues --  -89.47457 -10.81618 -10.81047  -8.55307  -6.51606
  Beta  occ. eigenvalues --   -6.51162  -6.50734  -1.37151  -1.26957  -1.05919
  Beta  occ. eigenvalues --   -1.01673  -0.92146  -0.87346
  Beta virt. eigenvalues --   -0.73781  -0.69035  -0.52291  -0.49119  -0.45799
  Beta virt. eigenvalues --   -0.42824  -0.33608  -0.32584  -0.28060  -0.27893
  Beta virt. eigenvalues --   -0.26689  -0.25964  -0.24176  -0.23040  -0.22266

 Mulliken charges and spin densities:
               1          2
     1  S    0.314969   0.754636
     2  C    0.088207   0.306302
     3  C    0.773553   0.900192
     4  H    0.337206   0.062823
     5  H    0.486065  -0.023953
 Sum of Mulliken charges =   2.00000   2.00000

 Dipole moment (field-independent basis, Debye):
    X=             -3.0446    Y=              1.3086    Z=              0.0005  Tot=              3.3139
 Quadrupole moment (field-independent basis, Debye-Ang):
   XX=             10.3402   YY=            -16.0165   ZZ=            -20.0826
   XY=              2.1692   XZ=             -0.0012   YZ=              0.0001

  Exact polarizability:  59.494   1.633  22.698  -0.001   0.000  19.795
 Approx polarizability: 119.089   1.040  35.975   0.003  -0.000  28.793

                      1                      2                      3
                      A                      A                      A
 Frequencies --    298.3483               318.1182               642.9742
 Red. masses --      3.0535                 4.4896                 1.2938
 Frc consts  --      0.1601                 0.2677                 0.3151
 IR Inten    --     16.8127                22.4403                26.6219

                      4                      5                      6
                      A                      A                      A
 Frequencies --    708.1271               735.9146               798.9670
 Red. masses --      1.4153                 5.0077                 1.2802
 Frc consts  --      0.4181                 1.5979                 0.4815
 IR Inten    --     34.2160                 6.7591                32.2216

                      7                      8                      9
                      A                      A                      A
 Frequencies --   1725.2534              2239.2952              3104.9347
 Red. masses --      6.6000                 1.0388                 1.1403
 Frc consts  --     11.5745                 3.0691                 6.4772
 IR Inten    --    163.2010               411.2633               439.7321

 - Thermochemistry -
 -------------------
 Temperature   298.150 Kelvin.  Pressure   1.00000 Atm.
 Atom     1 has atomic number 16 and mass  31.97207

 Molecular mass:    57.98772 amu.
 Principal axes and moments of inertia in atomic units:
                           1         2         3
     Eigenvalues --     6.84561 323.34548 330.19109
           X            0.99983   0.01835  -0.00001
           Y           -0.01835   0.99983   0.00004
           Z            0.00001  -0.00004   1.00000
 This molecule is an asymmetric top.
 Rotational symmetry number  1.
 Rotational temperatures (Kelvin)     12.65245     0.26787     0.26231
 Rotational constants (GHZ):         263.63468     5.58146     5.46575
 Zero-point vibrational energy      63234.2 (Joules/Mol)
                                   15.11334 (Kcal/Mol)
 Warning -- explicit consideration of   2 degrees of freedom as
           vibrations may cause significant error
 Vibrational temperatures:    429.26   457.70   925.10  1018.84  1058.82
          (Kelvin)           1149.53  2482.25  3221.84  4467.30

 Zero-point correction=                           0.024085 (Hartree/Particle)
 Thermal correction to Energy=                    0.028164
 Thermal correction to Enthalpy=                  0.029109
 Thermal correction to Gibbs Free Energy=        -0.001964
 Sum of electronic and zero-point Energies=           -474.578569
 Sum of electronic and thermal Energies=              -474.574489
 Sum of electronic and thermal Enthalpies=            -474.573545
 Sum of electronic and thermal Free Energies=         -474.604618

                     E (Thermal)             CV                S
                      KCal/Mol        Cal/Mol-Kelvin    Cal/Mol-Kelvin
 Total                   17.673             12.486             65.399
 Electronic               0.000              0.000              2.183
 Translational            0.889              2.981             38.094
 Rotational               0.889              2.981             21.219
 Vibrational             15.896              6.524              3.903
 Vibration     1          0.691              1.677              1.426
 Vibration     2          0.705              1.639              1.320

 Optimization completed.
    -- Stationary point found.
 Normal termination of Gaussian 09 at Wed Aug  3 20:35:23 2016.
