 Gaussian 09, Revision E.01,
 Gaussian 09:  EM64L-G09RevE.01 30-Nov-2015

 ------------------------------
 #p b3lyp/6-311++G(3df,2p) freq
 ------------------------------

 ---------
 b3lyp opt
 ---------
 Symbolic Z-matrix:
 Charge =  2 Multiplicity = 3

                         Standard orientation:
 ---------------------------------------------------------------------
 Center     Atomic      Atomic             Coordinates (Angstroms)
 Number     Number       Type             X           Y           Z
 ---------------------------------------------------------------------
      1         16           0        0.079783    0.905525   -0.000487
      2         16           0       -1.570251   -0.574243   -0.000785
      3          6           0        1.363147   -0.088778   -0.000172
      4          6           0        2.465016   -0.664692    0.000616
      5          1           0        3.421909   -1.175014    0.003051
      6          1           0       -2.543407    0.395319    0.014647
 ---------------------------------------------------------------------

 SCF Done:  E(UB3LYP) =  -872.915965468     A.U. after   22 cycles

 The electronic state is 3-A.
 Alpha  occ. eigenvalues --  -89.41385 -89.40270 -10.69837 -10.68650  -8.49189
 Alpha  occ. eigenvalues --   -8.48056  -6.45957  -6.45209  -6.44782  -6.44311
 Alpha  occ. eigenvalues --   -6.44060  -6.43922  -1.31913  -1.24468  -1.18621
 Alpha  occ. eigenvalues --   -0.98195  -0.93266  -0.90324  -0.84861  -0.83096
 Alpha  occ. eigenvalues --   -0.79255  -0.75224  -0.71498
 Alpha virt. eigenvalues --   -0.55612  -0.44646  -0.43925  -0.39570  -0.38654
 Alpha virt. eigenvalues --   -0.31862  -0.27838  -0.27322  -0.26528  -0.25306
 Alpha virt. eigenvalues --   -0.24972  -0.24290  -0.23853  -0.21850  -0.20167

  Beta  occ. eigenvalues --  -89.40742 -89.39981 -10.68958 -10.68425  -8.48600
  Beta  occ. eigenvalues --   -8.47794  -6.44828  -6.44422  -6.44180  -6.43967
  Beta  occ. eigenvalues --   -6.43790  -6.43112  -1.30179  -1.21117  -1.15618
  Beta  occ. eigenvalues --   -0.96986  -0.92409  -0.89403  -0.82013  -0.79479
  Beta  occ. eigenvalues --   -0.74258
  Beta virt. eigenvalues --   -0.65864  -0.59654  -0.54268  -0.44044  -0.39436
  Beta virt. eigenvalues --   -0.38711  -0.37592  -0.31053  -0.26459  -0.25877
  Beta virt. eigenvalues --   -0.25697  -0.24664  -0.23816  -0.23536  -0.22739

 Mulliken charges and spin densities:
               1          2
     1  S   -0.093597   0.463456
     2  S    0.532698   0.955391
     3  C   -0.001488   0.154963
     4  C    0.821511   0.459107
     5  H    0.449367  -0.014350
     6  H    0.291509  -0.018567
 Sum of Mulliken charges =   2.00000   2.00000

 Dipole moment (field-independent basis, Debye):
    X=              0.9359    Y=             -1.2543    Z=              0.0151  Tot=              1.5650
 Quadrupole moment (field-independent basis, Debye-Ang):
   XX=             11.9477   YY=            -24.3660   ZZ=            -31.2825
   XY=             -5.8434   XZ=             -0.0272   YZ=             -0.0004

  Exact polarizability:  98.580  -6.119  45.706  -0.045   0.013  30.693
 Approx polarizability: 194.241 -12.836  88.649  -0.049   0.033  48.011

                      1                      2                      3
                      A                      A                      A
 Frequencies --     28.8691               132.3646               277.7798
 Red. masses --      1.0563                 6.3200                10.7749
 Frc consts  --      0.0005                 0.0652                 0.4899
 IR Inten    --     39.0938                 7.1598                14.8320

                      4                      5                      6
                      A                      A                      A
 Frequencies --    330.5102               409.3033               703.4976
 Red. masses --      4.1952                 7.1276                 1.3637
 Frc consts  --      0.2700                 0.7035                 0.3976
 IR Inten    --      9.9595                13.0188                16.7671

                      7                      8                      9
                      A                      A                      A
 Frequencies --    746.5385               784.1833               833.3012
 Red. masses --      4.2645                 1.2904                 1.3014
 Frc consts  --      1.4003                 0.4675                 0.5324
 IR Inten    --      6.2363                25.0727                24.4963

                     10                     11                     12
                      A                      A                      A
 Frequencies --   1941.4599              2483.8031              3246.3074
 Red. masses --      6.2258                 1.0394                 1.1528
 Frc consts  --     13.8263                 3.7780                 7.1578
 IR Inten    --    257.8289               213.2508               311.3558

 - Thermochemistry -
 -------------------
 Temperature   298.150 Kelvin.  Pressure   1.00000 Atm.
 Atom     1 has atomic number 16 and mass  31.97207

 Molecular mass:    89.95979 amu.
 Principal axes and moments of inertia in atomic units:
                           1         2         3
     Eigenvalues --   155.45843 688.24805 843.70470
           X            0.99945  -0.03331  -0.00014
           Y            0.03331   0.99945   0.00006
           Z            0.00014  -0.00007   1.00000
 This molecule is an asymmetric top.
 Rotational symmetry number  1.
 Rotational temperatures (Kelvin)      0.55715     0.12585     0.10266
 Rotational constants (GHZ):          11.60916     2.62222     2.13907
 Zero-point vibrational energy      71285.0 (Joules/Mol)
                                   17.03752 (Kcal/Mol)
 Warning -- explicit consideration of   5 degrees of freedom as
           vibrations may cause significant error
 Vibrational temperatures:     41.54   190.44   399.66   475.53   588.90
          (Kelvin)           1012.17  1074.10  1128.26  1198.93  2793.32
                             3573.63  4670.71

 Zero-point correction=                           0.027151 (Hartree/Particle)
 Thermal correction to Energy=                    0.033030
 Thermal correction to Enthalpy=                  0.033974
 Thermal correction to Gibbs Free Energy=        -0.004560
 Sum of electronic and zero-point Energies=           -872.888814
 Sum of electronic and thermal Energies=              -872.882935
 Sum of electronic and thermal Enthalpies=            -872.881991
 Sum of electronic and thermal Free Energies=         -872.920526

                     E (Thermal)             CV                S
                      KCal/Mol        Cal/Mol-Kelvin    Cal/Mol-Kelvin
 Total                   20.727             17.503             81.103
 Electronic               0.000              0.000              2.183
 Translational            0.889              2.981             39.403
 Rotational               0.889              2.981             26.004
 Vibrational             18.949             11.541             13.513
 Vibration     1          0.593              1.984              5.906
 Vibration     2          0.612              1.921              2.911
 Vibration     3          0.679              1.715              1.547
 Vibration     4          0.713              1.615              1.258
 Vibration     5          0.774              1.450              0.929

 Normal termination of Gaussian 09 at Wed Aug  3 20:24:24 2016.
