 Gaussian 09, Revision E.01,
 Gaussian 09:  EM64L-G09RevE.01 30-Nov-2015

 ------------------------------
 #p b3lyp/6-311++G(3df,2p) freq
 ------------------------------

 ---------
 b3lyp opt
 ---------
 Symbolic Z-matrix:
 Charge =  1 Multiplicity = 2

                         Standard orientation:
 ---------------------------------------------------------------------
 Center     Atomic      Atomic             Coordinates (Angstroms)
 Number     Number       Type             X           Y           Z
 ---------------------------------------------------------------------
      1         16           0       -0.000000    0.847910    0.000000
      2         16           0       -1.490857   -0.555639   -0.000000
      3          6           0        2.450898   -0.601569    0.000000
      4          6           0        1.365350   -0.063751    0.000000
      5          1           0        3.405263   -1.084029    0.000000
      6          1           0       -2.449042    0.399615   -0.000000
 ---------------------------------------------------------------------

 SCF Done:  E(UB3LYP) =  -873.498702172     A.U. after   17 cycles

 The electronic state is 2-A".
 Alpha  occ. eigenvalues --  -89.17589 -89.13601 -10.43343 -10.42656  -8.25540
 Alpha  occ. eigenvalues --   -8.21915  -6.21744  -6.21660  -6.21375  -6.18197
 Alpha  occ. eigenvalues --   -6.17783  -6.17773  -1.10121  -1.00070  -0.93794
 Alpha  occ. eigenvalues --   -0.76214  -0.71052  -0.68466  -0.62294  -0.59875
 Alpha  occ. eigenvalues --   -0.53534  -0.52239  -0.47190
 Alpha virt. eigenvalues --   -0.29283  -0.22939  -0.20110  -0.18597  -0.16303
 Alpha virt. eigenvalues --   -0.14129  -0.11224  -0.09974  -0.09752  -0.09121
 Alpha virt. eigenvalues --   -0.08180  -0.07441  -0.05700  -0.05413  -0.04638

  Beta  occ. eigenvalues --  -89.17256 -89.13359 -10.42927 -10.42710  -8.25239
  Beta  occ. eigenvalues --   -8.21697  -6.21554  -6.21200  -6.20629  -6.18072
  Beta  occ. eigenvalues --   -6.17654  -6.17013  -1.09078  -0.99107  -0.92214
  Beta  occ. eigenvalues --   -0.75597  -0.70585  -0.67997  -0.59299  -0.59186
  Beta  occ. eigenvalues --   -0.51850  -0.50370
  Beta virt. eigenvalues --   -0.38656  -0.28601  -0.22662  -0.18402  -0.18133
  Beta virt. eigenvalues --   -0.16035  -0.13882  -0.11049  -0.09879  -0.09481
  Beta virt. eigenvalues --   -0.08842  -0.07939  -0.07048  -0.05663  -0.05036

 Mulliken charges and spin densities:
               1          2
     1  S   -0.205347   0.505125
     2  S    0.154308   0.337403
     3  C    0.673857   0.242924
     4  C   -0.232104  -0.070893
     5  H    0.385607  -0.009061
     6  H    0.223678  -0.005498
 Sum of Mulliken charges =   1.00000   1.00000

 Dipole moment (field-independent basis, Debye):
    X=              0.3314    Y=             -0.1743    Z=             -0.0000  Tot=              0.3745
 Quadrupole moment (field-independent basis, Debye-Ang):
   XX=             -9.5579   YY=            -30.4378   ZZ=            -35.7597
   XY=             -4.4288   XZ=             -0.0000   YZ=             -0.0000

  Exact polarizability: 111.345  -2.333  48.985   0.001  -0.001  35.963
 Approx polarizability: 221.970  -1.057  92.581   0.000   0.000  55.985

                      1                      2                      3
                     A'                     A"                     A"
 Frequencies --    141.2659               269.8921               334.4715
 Red. masses --      5.7217                 1.4851                 2.1230
 Frc consts  --      0.0673                 0.0637                 0.1399
 IR Inten    --      5.5171                32.7449                 0.1685

                      4                      5                      6
                     A'                     A'                     A"
 Frequencies --    370.0463               534.7926               712.3602
 Red. masses --      7.6157                12.5850                 1.2903
 Frc consts  --      0.6144                 2.1207                 0.3858
 IR Inten    --     11.9987                11.4642                27.2415

                      7                      8                      9
                     A'                     A'                     A'
 Frequencies --    761.0659               772.7482               922.7678
 Red. masses --      5.7832                 1.3351                 1.1685
 Frc consts  --      1.9736                 0.4697                 0.5862
 IR Inten    --     34.2329                31.5471                 5.9345

                     10                     11                     12
                     A'                     A'                     A'
 Frequencies --   2062.9409              2625.3675              3395.0249
 Red. masses --      6.0513                 1.0389                 1.1555
 Frc consts  --     15.1730                 4.2191                 7.8469
 IR Inten    --    396.5347                71.7798               115.0865

 - Thermochemistry -
 -------------------
 Temperature   298.150 Kelvin.  Pressure   1.00000 Atm.
 Atom     1 has atomic number 16 and mass  31.97207

 Molecular mass:    89.95979 amu.
 Principal axes and moments of inertia in atomic units:
                           1         2         3
     Eigenvalues --   137.57425 654.58412 792.15837
           X            0.99978  -0.02106  -0.00000
           Y            0.02106   0.99978  -0.00000
           Z            0.00000   0.00000   1.00000
 This molecule is an asymmetric top.
 Rotational symmetry number  1.
 Rotational temperatures (Kelvin)      0.62958     0.13232     0.10934
 Rotational constants (GHZ):          13.11831     2.75708     2.27826
 Zero-point vibrational energy      77175.5 (Joules/Mol)
                                   18.44540 (Kcal/Mol)
 Warning -- explicit consideration of   5 degrees of freedom as
           vibrations may cause significant error
 Vibrational temperatures:    203.25   388.31   481.23   532.41   769.45
          (Kelvin)           1024.93  1095.00  1111.81  1327.66  2968.11
                             3777.31  4884.68

 Zero-point correction=                           0.029395 (Hartree/Particle)
 Thermal correction to Energy=                    0.034598
 Thermal correction to Enthalpy=                  0.035542
 Thermal correction to Gibbs Free Energy=         0.000040
 Sum of electronic and zero-point Energies=           -873.469308
 Sum of electronic and thermal Energies=              -873.464104
 Sum of electronic and thermal Enthalpies=            -873.463160
 Sum of electronic and thermal Free Energies=         -873.498662

                     E (Thermal)             CV                S
                      KCal/Mol        Cal/Mol-Kelvin    Cal/Mol-Kelvin
 Total                   21.711             16.615             74.721
 Electronic               0.000              0.000              1.377
 Translational            0.889              2.981             39.403
 Rotational               0.889              2.981             25.770
 Vibrational             19.933             10.654              8.171
 Vibration     1          0.615              1.912              2.787
 Vibration     2          0.674              1.729              1.597
 Vibration     3          0.716              1.607              1.238
 Vibration     4          0.742              1.534              1.080
 Vibration     5          0.890              1.173              0.577

 Optimization completed.
    -- Stationary point found.
 Normal termination of Gaussian 09 at Wed Aug  3 22:52:05 2016.
