 Gaussian 09, Revision E.01,
 Gaussian 09:  EM64L-G09RevE.01 30-Nov-2015

 ------------------------------
 #p b3lyp/6-311++G(3df,2p) freq
 ------------------------------

 ---------
 b3lyp opt
 ---------
 Symbolic Z-matrix:
 Charge =  0 Multiplicity = 3

                         Standard orientation:
 ---------------------------------------------------------------------
 Center     Atomic      Atomic             Coordinates (Angstroms)
 Number     Number       Type             X           Y           Z
 ---------------------------------------------------------------------
      1         16           0       -0.000000    0.651350    0.000000
      2         16           0       -1.532868   -0.975092   -0.000000
      3          6           0        1.627000    0.083165    0.000000
      4          6           0        2.244626    1.266738    0.000000
      5          1           0        1.909555   -0.964787    0.000000
      6          1           0       -0.613427   -1.954757   -0.000000
 ---------------------------------------------------------------------

 SCF Done:  E(UB3LYP) =  -873.693613467     A.U. after   19 cycles

 The electronic state is 3-A".
 Alpha  occ. eigenvalues --  -88.94381 -88.89712 -10.23571 -10.22679  -8.02427
 Alpha  occ. eigenvalues --   -7.98164  -5.98674  -5.98604  -5.98155  -5.94585
 Alpha  occ. eigenvalues --   -5.94185  -5.93790  -0.88513  -0.78363  -0.68893
 Alpha  occ. eigenvalues --   -0.57880  -0.48950  -0.41694  -0.40572  -0.38114
 Alpha  occ. eigenvalues --   -0.31607  -0.30716  -0.25467  -0.22587
 Alpha virt. eigenvalues --   -0.07409  -0.03699  -0.03377  -0.01132   0.02100
 Alpha virt. eigenvalues --    0.03113   0.03878   0.04744   0.04995   0.06552
 Alpha virt. eigenvalues --    0.07204   0.07227   0.08603   0.09966   0.10341

  Beta  occ. eigenvalues --  -88.93887 -88.89377 -10.23519 -10.21535  -8.01938
  Beta  occ. eigenvalues --   -7.97857  -5.98421  -5.97698  -5.97322  -5.94043
  Beta  occ. eigenvalues --   -5.93808  -5.93302  -0.86420  -0.76329  -0.65786
  Beta  occ. eigenvalues --   -0.56412  -0.47622  -0.40446  -0.36795  -0.36115
  Beta  occ. eigenvalues --   -0.28908  -0.28731
  Beta virt. eigenvalues --   -0.16439  -0.13214  -0.03845  -0.02449  -0.01124
  Beta virt. eigenvalues --   -0.00800   0.02312   0.03445   0.04016   0.05046
  Beta virt. eigenvalues --    0.05316   0.06853   0.07400   0.07661   0.09117

 Mulliken charges and spin densities:
               1          2
     1  S   -0.015430   0.670789
     2  S   -0.063967   0.480678
     3  C    0.376896   0.015991
     4  C   -0.621384   0.802649
     5  H    0.206231   0.035406
     6  H    0.117654  -0.005513
 Sum of Mulliken charges =  -0.00000   2.00000

 Dipole moment (field-independent basis, Debye):
    X=             -1.2941    Y=             -3.1013    Z=             -0.0000  Tot=              3.3605
 Quadrupole moment (field-independent basis, Debye-Ang):
   XX=            -44.1112   YY=            -40.0339   ZZ=            -40.3760
   XY=             -7.7622   XZ=             -0.0000   YZ=             -0.0000

  Exact polarizability: 122.887  36.820  79.055  -0.000  -0.000  47.614
 Approx polarizability: 265.950  89.014 150.246   0.000   0.000  74.863

                      1                      2                      3
                     A'                     A"                     A'
 Frequencies --     94.5692               128.3325               179.9050
 Red. masses --      9.9475                 1.1906                 9.2734
 Frc consts  --      0.0524                 0.0116                 0.1768
 IR Inten    --    112.7864                 1.0855                56.2716

                      4                      5                      6
                     A"                     A'                     A'
 Frequencies --    191.6572               289.8106               695.1564
 Red. masses --      4.7058                18.6284                 1.3836
 Frc consts  --      0.1018                 0.9218                 0.3939
 IR Inten    --     20.1198                21.9122                 1.0510

                      7                      8                      9
                     A"                     A'                     A'
 Frequencies --    703.7156               767.7010              1051.2417
 Red. masses --      1.3537                 3.1981                 1.1038
 Frc consts  --      0.3950                 1.1105                 0.7187
 IR Inten    --     23.0480                17.1709                 1.5035

                     10                     11                     12
                     A'                     A'                     A'
 Frequencies --   1417.9976              2680.8548              3124.2681
 Red. masses --      8.0597                 1.0388                 1.0967
 Frc consts  --      9.5482                 4.3987                 6.3072
 IR Inten    --     17.8263                 3.9790                 5.0038

 - Thermochemistry -
 -------------------
 Temperature   298.150 Kelvin.  Pressure   1.00000 Atm.
 Atom     1 has atomic number 16 and mass  31.97207

 Molecular mass:    89.95979 amu.
 Principal axes and moments of inertia in atomic units:
                           1         2         3
     Eigenvalues --    78.47180 776.38471 854.85651
           X            0.87436  -0.48527   0.00000
           Y            0.48527   0.87436   0.00000
           Z            0.00000  -0.00000   1.00000
 This molecule is an asymmetric top.
 Rotational symmetry number  1.
 Rotational temperatures (Kelvin)      1.10376     0.11156     0.10132
 Rotational constants (GHZ):          22.99859     2.32455     2.11116
 Zero-point vibrational energy      67739.8 (Joules/Mol)
                                   16.19020 (Kcal/Mol)
 Warning -- explicit consideration of   5 degrees of freedom as
           vibrations may cause significant error
 Vibrational temperatures:    136.06   184.64   258.84   275.75   416.97
          (Kelvin)           1000.17  1012.49  1104.55  1512.50  2040.18
                             3857.15  4495.12

 Zero-point correction=                           0.025801 (Hartree/Particle)
 Thermal correction to Energy=                    0.032011
 Thermal correction to Enthalpy=                  0.032955
 Thermal correction to Gibbs Free Energy=        -0.005310
 Sum of electronic and zero-point Energies=           -873.667813
 Sum of electronic and thermal Energies=              -873.661602
 Sum of electronic and thermal Enthalpies=            -873.660658
 Sum of electronic and thermal Free Energies=         -873.698923

                     E (Thermal)             CV                S
                      KCal/Mol        Cal/Mol-Kelvin    Cal/Mol-Kelvin
 Total                   20.087             18.042             80.535
 Electronic               0.000              0.000              2.183
 Translational            0.889              2.981             39.403
 Rotational               0.889              2.981             25.458
 Vibrational             18.310             12.080             13.492
 Vibration     1          0.603              1.953              3.563
 Vibration     2          0.611              1.925              2.971
 Vibration     3          0.629              1.867              2.329
 Vibration     4          0.634              1.851              2.212
 Vibration     5          0.686              1.693              1.475

 Optimization completed.
    -- Stationary point found.
 Normal termination of Gaussian 09 at Wed Aug  3 23:02:04 2016.
