 Gaussian 09, Revision E.01,
 Gaussian 09:  EM64L-G09RevE.01 30-Nov-2015

 ------------------------------
 #p b3lyp/6-311++G(3df,2p) freq
 ------------------------------

 ---------
 b3lyp opt
 ---------
 Symbolic Z-matrix:
 Charge =  2 Multiplicity = 3

                         Standard orientation:
 ---------------------------------------------------------------------
 Center     Atomic      Atomic             Coordinates (Angstroms)
 Number     Number       Type             X           Y           Z
 ---------------------------------------------------------------------
      1         16           0       -2.026450   -0.270557   -0.085718
      2         16           0        2.156390   -0.195447    0.003042
      3          6           0        0.714803    0.254066    0.008273
      4          6           0       -0.553268    0.732585    0.006397
      5          1           0       -0.735107    1.816566   -0.026714
      6          1           0       -2.313139   -0.280418    1.261516
 ---------------------------------------------------------------------

 SCF Done:  E(UB3LYP) =  -872.961965229     A.U. after   17 cycles

 The electronic state is 3-A.
 Alpha  occ. eigenvalues --  -89.41953 -89.36385 -10.71143 -10.70958  -8.49770
 Alpha  occ. eigenvalues --   -8.44439  -6.46640  -6.45723  -6.45341  -6.40814
 Alpha  occ. eigenvalues --   -6.40359  -6.40313  -1.32301  -1.27571  -1.17604
 Alpha  occ. eigenvalues --   -0.99010  -0.93278  -0.89620  -0.87247  -0.81856
 Alpha  occ. eigenvalues --   -0.79040  -0.77446  -0.71084
 Alpha virt. eigenvalues --   -0.52936  -0.47074  -0.42690  -0.40077  -0.31843
 Alpha virt. eigenvalues --   -0.31387  -0.28254  -0.27382  -0.26753  -0.25145
 Alpha virt. eigenvalues --   -0.24077  -0.22850  -0.21228  -0.20613  -0.20278

  Beta  occ. eigenvalues --  -89.41294 -89.35997 -10.71260 -10.70165  -8.49156
  Beta  occ. eigenvalues --   -8.44086  -6.45371  -6.44959  -6.44569  -6.40103
  Beta  occ. eigenvalues --   -6.40060  -6.39678  -1.30167  -1.25147  -1.14637
  Beta  occ. eigenvalues --   -0.97233  -0.91756  -0.88238  -0.84938  -0.79203
  Beta  occ. eigenvalues --   -0.76853
  Beta virt. eigenvalues --   -0.64284  -0.60131  -0.52558  -0.44732  -0.41126
  Beta virt. eigenvalues --   -0.37187  -0.31214  -0.30808  -0.27628  -0.26317
  Beta virt. eigenvalues --   -0.25118  -0.24750  -0.22643  -0.21511  -0.20426

 Mulliken charges and spin densities:
               1          2
     1  S    0.544754   0.988119
     2  S    0.396140   0.584277
     3  C    0.407601  -0.157442
     4  C    0.099662   0.552593
     5  H    0.284882   0.008472
     6  H    0.266960   0.023981
 Sum of Mulliken charges =   2.00000   2.00000

 Dipole moment (field-independent basis, Debye):
    X=             -2.5287    Y=              0.4900    Z=              1.1048  Tot=              2.8027
 Quadrupole moment (field-independent basis, Debye-Ang):
   XX=              9.3938   YY=            -25.6861   ZZ=            -29.0359
   XY=             -0.6698   XZ=             -3.0264   YZ=             -0.5711

  Exact polarizability:  87.821  -3.751  37.261  -2.041  -0.250  33.534
 Approx polarizability: 161.217 -16.946  63.417  -2.794  -0.284  53.604

                      1                      2                      3
                      A                      A                      A
 Frequencies --    148.3913               256.8895               400.7290
 Red. masses --     12.6008                 1.4852                 2.4263
 Frc consts  --      0.1635                 0.0577                 0.2296
 IR Inten    --      0.0832                26.4156                13.0200

                      4                      5                      6
                      A                      A                      A
 Frequencies --    435.6691               620.7289               652.2811
 Red. masses --     12.3069                 1.4023                 5.4708
 Frc consts  --      1.3763                 0.3183                 1.3714
 IR Inten    --      7.9602                19.6786                 2.9951

                      7                      8                      9
                      A                      A                      A
 Frequencies --    874.3351               942.6528              1185.9252
 Red. masses --      1.3084                 3.2082                 1.3094
 Frc consts  --      0.5893                 1.6797                 1.0850
 IR Inten    --     15.9856                 5.0399                 0.4644

                     10                     11                     12
                      A                      A                      A
 Frequencies --   1530.6461              2446.4072              3002.9759
 Red. masses --     11.7891                 1.0393                 1.0832
 Frc consts  --     16.2734                 3.6647                 5.7553
 IR Inten    --      3.7098               165.2600               180.4575

 - Thermochemistry -
 -------------------
 Temperature   298.150 Kelvin.  Pressure   1.00000 Atm.
 Atom     1 has atomic number 16 and mass  31.97207

 Molecular mass:    89.95979 amu.
 Principal axes and moments of inertia in atomic units:
                           1         2         3
     Eigenvalues --    56.957811062.104661106.31713
           X            0.99995  -0.00290  -0.00983
           Y            0.00260   0.99955  -0.02996
           Z            0.00991   0.02993   0.99950
 This molecule is an asymmetric top.
 Rotational symmetry number  1.
 Rotational temperatures (Kelvin)      1.52067     0.08155     0.07829
 Rotational constants (GHZ):          31.68558     1.69921     1.63131
 Zero-point vibrational energy      74752.4 (Joules/Mol)
                                   17.86626 (Kcal/Mol)
 Warning -- explicit consideration of   5 degrees of freedom as
           vibrations may cause significant error
 Vibrational temperatures:    213.50   369.61   576.56   626.83   893.09
          (Kelvin)            938.49  1257.97  1356.27  1706.28  2202.26
                             3519.83  4320.61

 Zero-point correction=                           0.028472 (Hartree/Particle)
 Thermal correction to Energy=                    0.033422
 Thermal correction to Enthalpy=                  0.034366
 Thermal correction to Gibbs Free Energy=        -0.001069
 Sum of electronic and zero-point Energies=           -872.933494
 Sum of electronic and thermal Energies=              -872.928543
 Sum of electronic and thermal Enthalpies=            -872.927599
 Sum of electronic and thermal Free Energies=         -872.963034

                     E (Thermal)             CV                S
                      KCal/Mol        Cal/Mol-Kelvin    Cal/Mol-Kelvin
 Total                   20.973             15.654             74.579
 Electronic               0.000              0.000              2.183
 Translational            0.889              2.981             39.403
 Rotational               0.889              2.981             25.707
 Vibrational             19.195              9.692              7.286
 Vibration     1          0.618              1.904              2.693
 Vibration     2          0.666              1.751              1.683
 Vibration     3          0.767              1.469              0.960
 Vibration     4          0.796              1.392              0.840
 Vibration     5          0.981              0.988              0.415

 Normal termination of Gaussian 09 at Wed Aug  3 20:24:35 2016.
