 Gaussian 09, Revision E.01,
 Gaussian 09:  EM64L-G09RevE.01 30-Nov-2015

 ------------------------------
 #p b3lyp/6-311++G(3df,2p) freq
 ------------------------------

 ---------
 b3lyp opt
 ---------
 Symbolic Z-matrix:
 Charge =  1 Multiplicity = 2

                         Standard orientation:
 ---------------------------------------------------------------------
 Center     Atomic      Atomic             Coordinates (Angstroms)
 Number     Number       Type             X           Y           Z
 ---------------------------------------------------------------------
      1         16           0        1.015360   -0.091564    0.000021
      2          6           0       -0.607882    0.037613   -0.000109
      3          6           0       -1.832346    0.002041    0.000002
      4          1           0        1.300036    1.239442    0.000047
      5          1           0       -2.904419   -0.012341    0.000265
 ---------------------------------------------------------------------

 SCF Done:  E(UB3LYP) =  -475.247767694     A.U. after   16 cycles

 The electronic state is 2-A.
 Alpha  occ. eigenvalues --  -89.18931 -10.48500 -10.48085  -8.27106  -6.23371
 Alpha  occ. eigenvalues --   -6.23256  -6.22830  -1.10885  -1.01675  -0.80873
 Alpha  occ. eigenvalues --   -0.75937  -0.67516  -0.64004  -0.55756  -0.53590
 Alpha virt. eigenvalues --   -0.27231  -0.24274  -0.20922  -0.19925  -0.14077
 Alpha virt. eigenvalues --   -0.12730  -0.10450  -0.09978  -0.09568  -0.06885
 Alpha virt. eigenvalues --   -0.06735  -0.06268  -0.05845  -0.03174  -0.00801

  Beta  occ. eigenvalues --  -89.18571 -10.48142 -10.47648  -8.26778  -6.23048
  Beta  occ. eigenvalues --   -6.22637  -6.22257  -1.09606  -0.99189  -0.80011
  Beta  occ. eigenvalues --   -0.75461  -0.66779  -0.59931  -0.55075
  Beta virt. eigenvalues --   -0.43002  -0.26799  -0.21039  -0.20623  -0.19163
  Beta virt. eigenvalues --   -0.13583  -0.12359  -0.10318  -0.09482  -0.09109
  Beta virt. eigenvalues --   -0.06843  -0.06087  -0.06057  -0.04654  -0.03063

 Mulliken charges and spin densities:
               1          2
     1  S    0.016867   0.572609
     2  C   -0.205378   0.007334
     3  C    0.555098   0.446687
     4  H    0.233245  -0.012720
     5  H    0.400168  -0.013910
 Sum of Mulliken charges =   1.00000   1.00000

 Dipole moment (field-independent basis, Debye):
    X=             -1.0197    Y=              0.9484    Z=              0.0003  Tot=              1.3926
 Quadrupole moment (field-independent basis, Debye-Ang):
   XX=             -4.5006   YY=            -20.7049   ZZ=            -22.3258
   XY=              1.8015   XZ=             -0.0007   YZ=              0.0001

  Exact polarizability:  64.937   1.755  26.738   0.002   0.002  23.804
 Approx polarizability: 123.275   2.939  40.651   0.001  -0.000  35.029

                      1                      2                      3
                      A                      A                      A
 Frequencies --    284.5971               322.7539               713.5036
 Red. masses --      4.0710                 3.9808                 1.3450
 Frc consts  --      0.1943                 0.2443                 0.4034
 IR Inten    --     13.7478                16.8847                16.3106

                      4                      5                      6
                      A                      A                      A
 Frequencies --    723.3131               796.7992               986.1484
 Red. masses --      1.2598                10.1957                 1.1384
 Frc consts  --      0.3883                 3.8139                 0.6523
 IR Inten    --     35.6195                 0.1179                12.6166

                      7                      8                      9
                      A                      A                      A
 Frequencies --   2019.6011              2555.9822              3364.7166
 Red. masses --      6.3103                 1.0392                 1.1494
 Frc consts  --     15.1646                 4.0002                 7.6666
 IR Inten    --    150.0510                56.6640               152.5346

 - Thermochemistry -
 -------------------
 Temperature   298.150 Kelvin.  Pressure   1.00000 Atm.
 Atom     1 has atomic number 16 and mass  31.97207

 Molecular mass:    57.98772 amu.
 Principal axes and moments of inertia in atomic units:
                           1         2         3
     Eigenvalues --     6.35048 313.81969 320.17017
           X            0.99983   0.01857  -0.00001
           Y           -0.01857   0.99983   0.00003
           Z            0.00001  -0.00003   1.00000
 This molecule is an asymmetric top.
 Rotational symmetry number  1.
 Rotational temperatures (Kelvin)     13.63893     0.27600     0.27052
 Rotational constants (GHZ):         284.18956     5.75089     5.63682
 Zero-point vibrational energy      70384.8 (Joules/Mol)
                                   16.82236 (Kcal/Mol)
 Warning -- explicit consideration of   2 degrees of freedom as
           vibrations may cause significant error
 Vibrational temperatures:    409.47   464.37  1026.57  1040.68  1146.41
          (Kelvin)           1418.85  2905.75  3677.48  4841.07

 Zero-point correction=                           0.026808 (Hartree/Particle)
 Thermal correction to Energy=                    0.030803
 Thermal correction to Enthalpy=                  0.031747
 Thermal correction to Gibbs Free Energy=         0.001226
 Sum of electronic and zero-point Energies=           -475.220960
 Sum of electronic and thermal Energies=              -475.216965
 Sum of electronic and thermal Enthalpies=            -475.216021
 Sum of electronic and thermal Free Energies=         -475.246542

                     E (Thermal)             CV                S
                      KCal/Mol        Cal/Mol-Kelvin    Cal/Mol-Kelvin
 Total                   19.329             11.944             64.237
 Electronic               0.000              0.000              1.377
 Translational            0.889              2.981             38.094
 Rotational               0.889              2.981             21.084
 Vibrational             17.552              5.982              3.682
 Vibration     1          0.683              1.702              1.506
 Vibration     2          0.708              1.630              1.296

 Normal termination of Gaussian 09 at Wed Aug  3 20:30:00 2016.
