 Gaussian 09, Revision E.01,
 Gaussian 09:  EM64L-G09RevE.01 30-Nov-2015

 ------------------------------
 #p b3lyp/6-311++G(3df,2p) freq
 ------------------------------

 ---------
 b3lyp opt
 ---------
 Symbolic Z-matrix:
 Charge =  0 Multiplicity = 3

                         Standard orientation:
 ---------------------------------------------------------------------
 Center     Atomic      Atomic             Coordinates (Angstroms)
 Number     Number       Type             X           Y           Z
 ---------------------------------------------------------------------
      1         16           0       -0.718011    2.006303    0.000000
      2         16           0        0.903087   -1.980877   -0.000000
      3          6           0        0.000000    0.484234    0.000000
      4          6           0       -0.333115   -0.819139   -0.000000
      5          1           0       -1.378299   -1.131404   -0.000000
      6          1           0        0.415769    2.734019    0.000000
 ---------------------------------------------------------------------

 SCF Done:  E(UB3LYP) =  -873.766799043     A.U. after   16 cycles

 The electronic state is 3-A".
 Alpha  occ. eigenvalues --  -88.91394 -88.84524 -10.26069 -10.23021  -7.99891
 Alpha  occ. eigenvalues --   -7.92998  -5.96170  -5.95911  -5.95534  -5.89620
 Alpha  occ. eigenvalues --   -5.89176  -5.88364  -0.86666  -0.79837  -0.68103
 Alpha  occ. eigenvalues --   -0.55254  -0.50727  -0.44197  -0.40010  -0.39546
 Alpha  occ. eigenvalues --   -0.31951  -0.27148  -0.24065  -0.23273
 Alpha virt. eigenvalues --   -0.03532  -0.03519  -0.00859   0.01159   0.03051
 Alpha virt. eigenvalues --    0.03959   0.04055   0.04465   0.05905   0.06903
 Alpha virt. eigenvalues --    0.07559   0.08714   0.09388   0.10154   0.11038

  Beta  occ. eigenvalues --  -88.91274 -88.84076 -10.24149 -10.23155  -7.99778
  Beta  occ. eigenvalues --   -7.92589  -5.96071  -5.95758  -5.95257  -5.88851
  Beta  occ. eigenvalues --   -5.88366  -5.88046  -0.84461  -0.78818  -0.65175
  Beta  occ. eigenvalues --   -0.53153  -0.49257  -0.41919  -0.38469  -0.36696
  Beta  occ. eigenvalues --   -0.29340  -0.23087
  Beta virt. eigenvalues --   -0.13874  -0.12735  -0.03193  -0.00810  -0.00180
  Beta virt. eigenvalues --    0.01381   0.03402   0.04058   0.04367   0.04887
  Beta virt. eigenvalues --    0.06371   0.07188   0.07680   0.09228   0.09783

 Mulliken charges and spin densities:
               1          2
     1  S   -0.261814   0.190551
     2  S   -0.262667   0.721604
     3  C    0.229760   1.233869
     4  C   -0.041987  -0.226199
     5  H    0.160830   0.045404
     6  H    0.175877   0.034770
 Sum of Mulliken charges =  -0.00000   2.00000

 Dipole moment (field-independent basis, Debye):
    X=             -1.2564    Y=              3.0244    Z=              0.0000  Tot=              3.2750
 Quadrupole moment (field-independent basis, Debye-Ang):
   XX=            -38.2955   YY=            -36.6025   ZZ=            -39.6634
   XY=              2.9689   XZ=             -0.0000   YZ=              0.0000

  Exact polarizability:  63.936 -23.293 125.117  -0.000  -0.000  46.211
 Approx polarizability: 104.833 -41.243 203.443  -0.000   0.000  71.789

                      1                      2                      3
                     A"                     A'                     A"
 Frequencies --    136.9278               137.7208               224.0321
 Red. masses --      1.3930                 7.1649                 4.0122
 Frc consts  --      0.0154                 0.0801                 0.1186
 IR Inten    --     16.2596                 7.0215                 8.4794

                      4                      5                      6
                     A'                     A'                     A"
 Frequencies --    289.8211               717.0900               792.7454
 Red. masses --     12.6846                 9.2562                 1.5888
 Frc consts  --      0.6277                 2.8043                 0.5883
 IR Inten    --      4.4098                65.7144                12.4623

                      7                      8                      9
                     A'                     A'                     A'
 Frequencies --    863.7897               940.9725              1237.1391
 Red. masses --      4.4907                 1.2167                 1.1580
 Frc consts  --      1.9742                 0.6347                 1.0442
 IR Inten    --      4.3670                 5.7325                13.5017

                     10                     11                     12
                     A'                     A'                     A'
 Frequencies --   1492.6150              2621.8560              3049.0803
 Red. masses --      9.1205                 1.0393                 1.0854
 Frc consts  --     11.9719                 4.2094                 5.9454
 IR Inten    --    110.2611                 2.1372                12.7056

 - Thermochemistry -
 -------------------
 Temperature   298.150 Kelvin.  Pressure   1.00000 Atm.
 Atom     1 has atomic number 16 and mass  31.97207

 Molecular mass:    89.95979 amu.
 Principal axes and moments of inertia in atomic units:
                           1         2         3
     Eigenvalues --    36.098401105.855401141.95380
           X           -0.34599   0.93824   0.00000
           Y            0.93824   0.34599   0.00000
           Z           -0.00000  -0.00000   1.00000
 This molecule is an asymmetric top.
 Rotational symmetry number  1.
 Rotational temperatures (Kelvin)      2.39938     0.07832     0.07585
 Rotational constants (GHZ):          49.99504     1.63199     1.58040
 Zero-point vibrational energy      74789.3 (Joules/Mol)
                                   17.87506 (Kcal/Mol)
 Warning -- explicit consideration of   4 degrees of freedom as
           vibrations may cause significant error
 Vibrational temperatures:    197.01   198.15   322.33   416.99  1031.73
          (Kelvin)           1140.58  1242.80  1353.85  1779.96  2147.54
                             3772.26  4386.94

 Zero-point correction=                           0.028486 (Hartree/Particle)
 Thermal correction to Energy=                    0.033921
 Thermal correction to Enthalpy=                  0.034865
 Thermal correction to Gibbs Free Energy=        -0.001635
 Sum of electronic and zero-point Energies=           -873.738313
 Sum of electronic and thermal Energies=              -873.732878
 Sum of electronic and thermal Enthalpies=            -873.731934
 Sum of electronic and thermal Free Energies=         -873.768434

                     E (Thermal)             CV                S
                      KCal/Mol        Cal/Mol-Kelvin    Cal/Mol-Kelvin
 Total                   21.286             16.008             76.821
 Electronic               0.000              0.000              2.183
 Translational            0.889              2.981             39.403
 Rotational               0.889              2.981             25.325
 Vibrational             19.508             10.047              9.910
 Vibration     1          0.614              1.916              2.846
 Vibration     2          0.614              1.916              2.835
 Vibration     3          0.649              1.804              1.926
 Vibration     4          0.686              1.693              1.475

 Normal termination of Gaussian 09 at Wed Aug  3 23:01:45 2016.
