 Gaussian 09, Revision E.01,
 Gaussian 09:  EM64L-G09RevE.01 30-Nov-2015

 ------------------------------
 #p b3lyp/6-311++G(3df,2p) freq
 ------------------------------

 ---------
 b3lyp opt
 ---------
 Symbolic Z-matrix:
 Charge =  0 Multiplicity = 3

                         Standard orientation:
 ---------------------------------------------------------------------
 Center     Atomic      Atomic             Coordinates (Angstroms)
 Number     Number       Type             X           Y           Z
 ---------------------------------------------------------------------
      1         16           0        1.600265   -0.169443    0.000000
      2         16           0       -1.435789   -0.664868   -0.000000
      3          6           0        0.000000    0.389274   -0.000000
      4          6           0       -0.155067    1.729271   -0.000000
      5          1           0       -0.951913    2.457092   -0.000000
      6          1           0       -0.749300   -1.819369    0.000000
 ---------------------------------------------------------------------

 SCF Done:  E(UB3LYP) =  -873.752274857     A.U. after   17 cycles

 The electronic state is 3-A".
 Alpha  occ. eigenvalues --  -88.88115 -88.86187 -10.27129 -10.24667  -7.96742
 Alpha  occ. eigenvalues --   -7.94673  -5.93124  -5.92697  -5.92232  -5.91202
 Alpha  occ. eigenvalues --   -5.90862  -5.90113  -0.87033  -0.75227  -0.72014
 Alpha  occ. eigenvalues --   -0.56185  -0.48676  -0.44376  -0.39793  -0.38088
 Alpha  occ. eigenvalues --   -0.28767  -0.28336  -0.26391  -0.25195
 Alpha virt. eigenvalues --   -0.04619  -0.02637  -0.00693   0.00716   0.02896
 Alpha virt. eigenvalues --    0.03754   0.04677   0.04846   0.05762   0.07201
 Alpha virt. eigenvalues --    0.08075   0.09097   0.09701   0.10532   0.11246

  Beta  occ. eigenvalues --  -88.88081 -88.85736 -10.27377 -10.22397  -7.96708
  Beta  occ. eigenvalues --   -7.94263  -5.93041  -5.92669  -5.92209  -5.90543
  Beta  occ. eigenvalues --   -5.90015  -5.89713  -0.85694  -0.74057  -0.68145
  Beta  occ. eigenvalues --   -0.53914  -0.47466  -0.43448  -0.37685  -0.37147
  Beta  occ. eigenvalues --   -0.26219  -0.24665
  Beta virt. eigenvalues --   -0.15623  -0.11801  -0.02523  -0.02092  -0.00582
  Beta virt. eigenvalues --    0.01000   0.03194   0.04306   0.04764   0.05398
  Beta virt. eigenvalues --    0.05855   0.07430   0.09294   0.09452   0.09872

 Mulliken charges and spin densities:
               1          2
     1  S   -0.365384   0.726455
     2  S   -0.357204   0.039562
     3  C    0.474613  -0.202190
     4  C   -0.120416   1.413893
     5  H    0.219362   0.017999
     6  H    0.149028   0.004281
 Sum of Mulliken charges =  -0.00000   2.00000

 Dipole moment (field-independent basis, Debye):
    X=             -1.5130    Y=              0.3087    Z=             -0.0000  Tot=              1.5442
 Quadrupole moment (field-independent basis, Debye-Ang):
   XX=            -40.4911   YY=            -34.0043   ZZ=            -39.8871
   XY=             -2.1525   XZ=             -0.0000   YZ=              0.0000

  Exact polarizability:  94.679  -1.658  77.609   0.000  -0.000  46.042
 Approx polarizability: 168.698 -17.408 133.527   0.000  -0.000  72.276

                      1                      2                      3
                     A"                     A'                     A'
 Frequencies --    214.7131               275.8713               280.7585
 Red. masses --      1.0594                 7.1147                 4.0345
 Frc consts  --      0.0288                 0.3190                 0.1874
 IR Inten    --     13.5163                 4.7066                 3.8362

                      4                      5                      6
                     A"                     A'                     A"
 Frequencies --    429.0310               540.2953               647.3950
 Red. masses --      3.9841                12.6518                 1.4477
 Frc consts  --      0.4321                 2.1760                 0.3575
 IR Inten    --      4.0300                33.5534                13.9746

                      7                      8                      9
                     A'                     A'                     A'
 Frequencies --    765.2163               876.4071               986.6089
 Red. masses --      1.6898                 1.4869                 2.1336
 Frc consts  --      0.5830                 0.6729                 1.2236
 IR Inten    --     14.0969                21.9886                92.2690

                     10                     11                     12
                     A'                     A'                     A'
 Frequencies --   1348.4754              2670.5570              3222.8409
 Red. masses --      7.8326                 1.0381                 1.0964
 Frc consts  --      8.3915                 4.3622                 6.7098
 IR Inten    --    130.1612                 3.2922                 0.9165

 - Thermochemistry -
 -------------------
 Temperature   298.150 Kelvin.  Pressure   1.00000 Atm.
 Atom     1 has atomic number 16 and mass  31.97207

 Molecular mass:    89.95979 amu.
 Principal axes and moments of inertia in atomic units:
                           1         2         3
     Eigenvalues --   209.74519 546.22205 755.96724
           X            0.98160  -0.19096  -0.00000
           Y            0.19096   0.98160   0.00000
           Z            0.00000  -0.00000   1.00000
 This molecule is an asymmetric top.
 Rotational symmetry number  1.
 Rotational temperatures (Kelvin)      0.41295     0.15857     0.11457
 Rotational constants (GHZ):           8.60445     3.30404     2.38733
 Zero-point vibrational energy      73320.1 (Joules/Mol)
                                   17.52393 (Kcal/Mol)
 Warning -- explicit consideration of   5 degrees of freedom as
           vibrations may cause significant error
 Vibrational temperatures:    308.92   396.92   403.95   617.28   777.36
          (Kelvin)            931.46  1100.97  1260.95  1419.51  1940.15
                             3842.33  4636.94

 Zero-point correction=                           0.027926 (Hartree/Particle)
 Thermal correction to Energy=                    0.033003
 Thermal correction to Enthalpy=                  0.033947
 Thermal correction to Gibbs Free Energy=        -0.001666
 Sum of electronic and zero-point Energies=           -873.724349
 Sum of electronic and thermal Energies=              -873.719272
 Sum of electronic and thermal Enthalpies=            -873.718328
 Sum of electronic and thermal Free Energies=         -873.753941

                     E (Thermal)             CV                S
                      KCal/Mol        Cal/Mol-Kelvin    Cal/Mol-Kelvin
 Total                   20.709             16.470             74.954
 Electronic               0.000              0.000              2.183
 Translational            0.889              2.981             39.403
 Rotational               0.889              2.981             25.963
 Vibrational             18.932             10.509              7.405
 Vibration     1          0.645              1.819              2.003
 Vibration     2          0.678              1.718              1.559
 Vibration     3          0.680              1.709              1.529
 Vibration     4          0.790              1.407              0.862
 Vibration     5          0.895              1.161              0.565

 Optimization completed.
    -- Stationary point found.
 Normal termination of Gaussian 09 at Wed Aug  3 23:01:45 2016.
