 Gaussian 09, Revision E.01,
 Gaussian 09:  EM64L-G09RevE.01 30-Nov-2015

 ------------------------------
 #p b3lyp/6-311++G(3df,2p) freq
 ------------------------------

 ---------
 b3lyp opt
 ---------
 Symbolic Z-matrix:
 Charge =  0 Multiplicity = 1

                         Standard orientation:
 ---------------------------------------------------------------------
 Center     Atomic      Atomic             Coordinates (Angstroms)
 Number     Number       Type             X           Y           Z
 ---------------------------------------------------------------------
      1         16           0       -1.933201   -0.314994   -0.082487
      2         16           0        2.092499   -0.225243    0.005653
      3          6           0        0.650601    0.350236    0.005572
      4          6           0       -0.569807    0.824669    0.000113
      5          1           0       -0.753842    1.890667   -0.024444
      6          1           0       -2.279695   -0.296310    1.219676
 ---------------------------------------------------------------------

 SCF Done:  E(RB3LYP) =  -873.836890425     A.U. after   13 cycles

 The electronic state is 1-A.
 Alpha  occ. eigenvalues --  -88.87910 -88.86993 -10.26858 -10.21698  -7.96560
 Alpha  occ. eigenvalues --   -7.95503  -5.92730  -5.92645  -5.92110  -5.91891
 Alpha  occ. eigenvalues --   -5.91529  -5.90924  -0.85593  -0.79204  -0.69934
 Alpha  occ. eigenvalues --   -0.53167  -0.47194  -0.45054  -0.39923  -0.36236
 Alpha  occ. eigenvalues --   -0.33249  -0.26795  -0.24205
 Alpha virt. eigenvalues --   -0.10275  -0.02925  -0.01321   0.00269   0.01803
 Alpha virt. eigenvalues --    0.02705   0.03793   0.04330   0.05463   0.06705
 Alpha virt. eigenvalues --    0.07294   0.07842   0.09104   0.09949   0.10461

 Mulliken charges:
               1
     1  S   -0.198212
     2  S   -0.203615
     3  C    0.292271
     4  C   -0.190792
     5  H    0.185797
     6  H    0.114551
 Sum of Mulliken charges =  -0.00000

 Dipole moment (field-independent basis, Debye):
    X=             -0.0762    Y=              0.7988    Z=              0.7303  Tot=              1.0850
 Quadrupole moment (field-independent basis, Debye-Ang):
   XX=            -37.6796   YY=            -36.6636   ZZ=            -38.4888
   XY=             -0.3140   XZ=             -2.2932   YZ=             -0.2767

  Exact polarizability: 112.973  -7.276  53.715  -1.487  -0.456  47.589
 Approx polarizability: 199.806 -24.855  90.358  -3.055  -0.735  75.769

                      1                      2                      3
                      A                      A                      A
 Frequencies --    127.2625               154.9138               426.6947
 Red. masses --      2.0854                 2.0639                 4.0688
 Frc consts  --      0.0199                 0.0292                 0.4365
 IR Inten    --      4.5890                14.9034                 8.2341

                      4                      5                      6
                      A                      A                      A
 Frequencies --    475.8647               621.7210               740.9295
 Red. masses --     11.5463                 1.4031                 7.9915
 Frc consts  --      1.5405                 0.3195                 2.5848
 IR Inten    --      1.8234                30.1947                15.9665

                      7                      8                      9
                      A                      A                      A
 Frequencies --    902.6588               952.0827              1196.5066
 Red. masses --      2.5453                 1.4012                 1.2767
 Frc consts  --      1.2219                 0.7483                 1.0769
 IR Inten    --      3.9605                40.0388                12.2838

                     10                     11                     12
                      A                      A                      A
 Frequencies --   1797.4788              2617.0116              3162.0986
 Red. masses --     10.8605                 1.0393                 1.0883
 Frc consts  --     20.6741                 4.1936                 6.4112
 IR Inten    --    448.2441                 5.8363                22.2733

 - Thermochemistry -
 -------------------
 Temperature   298.150 Kelvin.  Pressure   1.00000 Atm.
 Atom     1 has atomic number 16 and mass  31.97207

 Molecular mass:    89.95979 amu.
 Principal axes and moments of inertia in atomic units:
                           1         2         3
     Eigenvalues --    70.57705 985.122011043.79754
           X            0.99994  -0.00334  -0.01011
           Y            0.00311   0.99973  -0.02283
           Z            0.01019   0.02280   0.99969
 This molecule is an asymmetric top.
 Rotational symmetry number  1.
 Rotational temperatures (Kelvin)      1.22722     0.08792     0.08298
 Rotational constants (GHZ):          25.57122     1.83200     1.72901
 Zero-point vibrational energy      78805.3 (Joules/Mol)
                                   18.83493 (Kcal/Mol)
 Warning -- explicit consideration of   4 degrees of freedom as
           vibrations may cause significant error
 Vibrational temperatures:    183.10   222.89   613.92   684.66   894.52
          (Kelvin)           1066.03  1298.72  1369.83  1721.50  2586.17
                             3765.29  4549.55

 Zero-point correction=                           0.030015 (Hartree/Particle)
 Thermal correction to Energy=                    0.035055
 Thermal correction to Enthalpy=                  0.035999
 Thermal correction to Gibbs Free Energy=         0.001148
 Sum of electronic and zero-point Energies=           -873.806875
 Sum of electronic and thermal Energies=              -873.801835
 Sum of electronic and thermal Enthalpies=            -873.800891
 Sum of electronic and thermal Free Energies=         -873.835742

                     E (Thermal)             CV                S
                      KCal/Mol        Cal/Mol-Kelvin    Cal/Mol-Kelvin
 Total                   21.997             15.403             73.351
 Electronic               0.000              0.000              0.000
 Translational            0.889              2.981             39.403
 Rotational               0.889              2.981             25.787
 Vibrational             20.220              9.441              8.161
 Vibration     1          0.611              1.926              2.987
 Vibration     2          0.620              1.897              2.611
 Vibration     3          0.788              1.412              0.870
 Vibration     4          0.833              1.304              0.721

 Optimization completed.
    -- Stationary point found.
 Normal termination of Gaussian 09 at Wed Aug  3 20:54:28 2016.
