 Gaussian 09, Revision E.01,
 Gaussian 09:  EM64L-G09RevE.01 30-Nov-2015

 ------------------------------
 #p b3lyp/6-311++G(3df,2p) freq
 ------------------------------

 ---------
 b3lyp opt
 ---------
 Symbolic Z-matrix:
 Charge =  0 Multiplicity = 3

                         Standard orientation:
 ---------------------------------------------------------------------
 Center     Atomic      Atomic             Coordinates (Angstroms)
 Number     Number       Type             X           Y           Z
 ---------------------------------------------------------------------
      1         16           0       -0.000000    0.488349   -0.000000
      2          6           0        1.563558   -0.066912    0.000000
      3          6           0       -1.086576   -0.826713   -0.000000
      4          1           0       -2.144907   -0.610226   -0.000000
      5          1           0       -0.716989   -1.841602    0.000000
 ---------------------------------------------------------------------

 SCF Done:  E(UB3LYP) =  -475.462740210     A.U. after   14 cycles

 The electronic state is 3-A".
 Alpha  occ. eigenvalues --  -88.91653 -10.24522 -10.23700  -8.00078  -5.96223
 Alpha  occ. eigenvalues --   -5.95984  -5.95822  -0.86708  -0.71870  -0.56284
 Alpha  occ. eigenvalues --   -0.48869  -0.41671  -0.38612  -0.30659  -0.25520
 Alpha  occ. eigenvalues --   -0.23675
 Alpha virt. eigenvalues --   -0.08993  -0.00960   0.01521   0.01875   0.03405
 Alpha virt. eigenvalues --    0.04228   0.06010   0.07025   0.08138   0.08516
 Alpha virt. eigenvalues --    0.10552   0.10737   0.11451   0.13249   0.13446

  Beta  occ. eigenvalues --  -88.91739 -10.23119 -10.22013  -8.00125  -5.96304
  Beta  occ. eigenvalues --   -5.96166  -5.95860  -0.84755  -0.67864  -0.53794
  Beta  occ. eigenvalues --   -0.47498  -0.39595  -0.36070  -0.28257
  Beta virt. eigenvalues --   -0.13170  -0.09487  -0.05018  -0.00462   0.01676
  Beta virt. eigenvalues --    0.02563   0.03683   0.04577   0.06395   0.07217
  Beta virt. eigenvalues --    0.08573   0.09434   0.11159   0.11221   0.12388

 Mulliken charges and spin densities:
               1          2
     1  S    0.094777   0.020762
     2  C   -0.236621   1.163446
     3  C   -0.176300   0.842823
     4  H    0.139807  -0.010753
     5  H    0.178337  -0.016277
 Sum of Mulliken charges =  -0.00000   2.00000

 Dipole moment (field-independent basis, Debye):
    X=             -3.4014    Y=             -0.4586    Z=             -0.0000  Tot=              3.4322
 Quadrupole moment (field-independent basis, Debye-Ang):
   XX=            -29.2673   YY=            -24.4716   ZZ=            -26.1807
   XY=              1.5261   XZ=             -0.0000   YZ=             -0.0000

  Exact polarizability:  66.128   5.588  43.741  -0.000   0.000  33.617
 Approx polarizability: 115.618   6.309  64.911   0.000  -0.000  51.190

                      1                      2                      3
                     A'                     A"                     A"
 Frequencies --    301.6240               324.8451               634.8317
 Red. masses --      4.5081                 1.1034                 1.2764
 Frc consts  --      0.2416                 0.0686                 0.3031
 IR Inten    --     17.4228                 0.7983                49.5911

                      4                      5                      6
                     A'                     A'                     A'
 Frequencies --    733.0820               860.6522               917.4482
 Red. masses --      6.8933                 3.8020                 1.6191
 Frc consts  --      2.1826                 1.6593                 0.8030
 IR Inten    --      3.2409                19.9159                 9.5077

                      7                      8                      9
                     A'                     A'                     A'
 Frequencies --   1388.7983              3132.9899              3267.5975
 Red. masses --      1.1188                 1.0448                 1.1242
 Frc consts  --      1.2714                 6.0425                 7.0723
 IR Inten    --      1.3717                 0.1069                 1.1381

 - Thermochemistry -
 -------------------
 Temperature   298.150 Kelvin.  Pressure   1.00000 Atm.
 Atom     1 has atomic number 16 and mass  31.97207

 Molecular mass:    57.98772 amu.
 Principal axes and moments of inertia in atomic units:
                           1         2         3
     Eigenvalues --    54.31404 188.84853 243.16257
           X            0.94031  -0.34031   0.00000
           Y            0.34031   0.94031   0.00000
           Z            0.00000  -0.00000   1.00000
 This molecule is an asymmetric top.
 Rotational symmetry number  1.
 Rotational temperatures (Kelvin)      1.59469     0.45864     0.35620
 Rotational constants (GHZ):          33.22789     9.55655     7.42195
 Zero-point vibrational energy      69155.3 (Joules/Mol)
                                   16.52852 (Kcal/Mol)
 Warning -- explicit consideration of   2 degrees of freedom as
           vibrations may cause significant error
 Vibrational temperatures:    433.97   467.38   913.38  1054.74  1238.29
          (Kelvin)           1320.00  1998.17  4507.67  4701.34

 Zero-point correction=                           0.026340 (Hartree/Particle)
 Thermal correction to Energy=                    0.030343
 Thermal correction to Enthalpy=                  0.031288
 Thermal correction to Gibbs Free Energy=        -0.000253
 Sum of electronic and zero-point Energies=           -475.436400
 Sum of electronic and thermal Energies=              -475.432397
 Sum of electronic and thermal Enthalpies=            -475.431453
 Sum of electronic and thermal Free Energies=         -475.462994

                     E (Thermal)             CV                S
                      KCal/Mol        Cal/Mol-Kelvin    Cal/Mol-Kelvin
 Total                   19.041             12.127             66.384
 Electronic               0.000              0.000              2.183
 Translational            0.889              2.981             38.094
 Rotational               0.889              2.981             22.438
 Vibrational             17.263              6.165              3.669
 Vibration     1          0.694              1.671              1.408
 Vibration     2          0.709              1.626              1.286

 Optimization completed.
    -- Stationary point found.
 Normal termination of Gaussian 09 at Wed Aug  3 23:00:58 2016.
