 Gaussian 09, Revision E.01,
 Gaussian 09:  EM64L-G09RevE.01 30-Nov-2015

 ------------------------------
 #p b3lyp/6-311++G(3df,2p) freq
 ------------------------------

 ---------
 b3lyp opt
 ---------
 Symbolic Z-matrix:
 Charge =  1 Multiplicity = 2

                         Standard orientation:
 ---------------------------------------------------------------------
 Center     Atomic      Atomic             Coordinates (Angstroms)
 Number     Number       Type             X           Y           Z
 ---------------------------------------------------------------------
      1         16           0       -0.900372   -0.171229   -0.000078
      2          6           0        0.689892    0.399033   -0.000197
      3          6           0        1.807694   -0.361128    0.000240
      4          1           0        0.926467    1.472523   -0.000586
      5          1           0       -1.506037    1.039712    0.001577
 ---------------------------------------------------------------------

 SCF Done:  E(UB3LYP) =  -475.163572696     A.U. after   19 cycles

 The electronic state is 2-A.
 Alpha  occ. eigenvalues --  -89.19550 -10.54191 -10.49524  -8.27759  -6.24021
 Alpha  occ. eigenvalues --   -6.23918  -6.23472  -1.12968  -1.01312  -0.79877
 Alpha  occ. eigenvalues --   -0.76538  -0.64814  -0.64484  -0.56538  -0.53634
 Alpha virt. eigenvalues --   -0.37979  -0.28109  -0.25526  -0.18623  -0.15158
 Alpha virt. eigenvalues --   -0.14015  -0.11208  -0.11047  -0.09571  -0.08111
 Alpha virt. eigenvalues --   -0.07378  -0.06370  -0.05512  -0.03494  -0.02558

  Beta  occ. eigenvalues --  -89.19176 -10.53539 -10.49424  -8.27419  -6.23700
  Beta  occ. eigenvalues --   -6.23272  -6.22867  -1.11664  -0.99038  -0.79202
  Beta  occ. eigenvalues --   -0.76058  -0.63965  -0.60488  -0.55487
  Beta virt. eigenvalues --   -0.43280  -0.37184  -0.25232  -0.24519  -0.17907
  Beta virt. eigenvalues --   -0.14744  -0.13832  -0.10946  -0.10856  -0.09354
  Beta virt. eigenvalues --   -0.07235  -0.06900  -0.05989  -0.05436  -0.03376

 Mulliken charges and spin densities:
               1          2
     1  S    0.230825   0.553098
     2  C    0.392989   0.065691
     3  C   -0.081120   0.400116
     4  H    0.227961  -0.009020
     5  H    0.229345  -0.009885
 Sum of Mulliken charges =   1.00000   1.00000

 Dipole moment (field-independent basis, Debye):
    X=             -1.2639    Y=              2.2170    Z=              0.0001  Tot=              2.5520
 Quadrupole moment (field-independent basis, Debye-Ang):
   XX=            -16.1739   YY=            -18.1984   ZZ=            -23.0899
   XY=              1.0436   XZ=             -0.0046   YZ=              0.0016

  Exact polarizability:  58.012  -1.494  32.062  -0.005   0.003  26.528
 Approx polarizability: 101.857  -2.452  52.836  -0.004   0.002  38.970

                      1                      2                      3
                      A                      A                      A
 Frequencies --    232.2173               348.5114               697.5622
 Red. masses --      8.4693                 1.3737                 1.3063
 Frc consts  --      0.2691                 0.0983                 0.3745
 IR Inten    --      9.1275                 7.1852                11.3799

                      4                      5                      6
                      A                      A                      A
 Frequencies --    812.1000               926.9382              1009.5950
 Red. masses --     10.6303                 1.0127                 1.2214
 Frc consts  --      4.1306                 0.5127                 0.7335
 IR Inten    --      3.0469                 3.8661                 1.4075

                      7                      8                      9
                      A                      A                      A
 Frequencies --   1468.5211              2616.7080              3027.5173
 Red. masses --      6.7369                 1.0394                 1.0831
 Frc consts  --      8.5599                 4.1931                 5.8494
 IR Inten    --    226.4044                59.4438               115.6107

 - Thermochemistry -
 -------------------
 Temperature   298.150 Kelvin.  Pressure   1.00000 Atm.
 Atom     1 has atomic number 16 and mass  31.97207

 Molecular mass:    57.98772 amu.
 Principal axes and moments of inertia in atomic units:
                           1         2         3
     Eigenvalues --    27.07003 264.21869 291.28869
           X            0.99999  -0.00333  -0.00004
           Y            0.00333   0.99999   0.00011
           Z            0.00004  -0.00011   1.00000
 This molecule is an asymmetric top.
 Rotational symmetry number  1.
 Rotational temperatures (Kelvin)      3.19962     0.32781     0.29735
 Rotational constants (GHZ):          66.66934     6.83048     6.19571
 Zero-point vibrational energy      66630.0 (Joules/Mol)
                                   15.92496 (Kcal/Mol)
 Warning -- explicit consideration of   2 degrees of freedom as
           vibrations may cause significant error
 Vibrational temperatures:    334.11   501.43  1003.64  1168.43  1333.66
          (Kelvin)           1452.58  2112.87  3764.85  4355.92

 Zero-point correction=                           0.025378 (Hartree/Particle)
 Thermal correction to Energy=                    0.029364
 Thermal correction to Enthalpy=                  0.030308
 Thermal correction to Gibbs Free Energy=        -0.000813
 Sum of electronic and zero-point Energies=           -475.138195
 Sum of electronic and thermal Energies=              -475.134209
 Sum of electronic and thermal Enthalpies=            -475.133265
 Sum of electronic and thermal Free Energies=         -475.164386

                     E (Thermal)             CV                S
                      KCal/Mol        Cal/Mol-Kelvin    Cal/Mol-Kelvin
 Total                   18.426             11.712             65.501
 Electronic               0.000              0.000              1.377
 Translational            0.889              2.981             38.094
 Rotational               0.889              2.981             22.259
 Vibrational             16.649              5.751              3.770
 Vibration     1          0.653              1.792              1.862
 Vibration     2          0.726              1.578              1.173

 Optimization completed.
    -- Stationary point found.
 Normal termination of Gaussian 09 at Wed Aug  3 20:30:03 2016.
