 Gaussian 09, Revision E.01,
 Gaussian 09:  EM64L-G09RevE.01 30-Nov-2015

 ------------------------------
 #p b3lyp/6-311++G(3df,2p) freq
 ------------------------------

 ---------
 b3lyp opt
 ---------
 Symbolic Z-matrix:
 Charge =  1 Multiplicity = 2

                         Standard orientation:
 ---------------------------------------------------------------------
 Center     Atomic      Atomic             Coordinates (Angstroms)
 Number     Number       Type             X           Y           Z
 ---------------------------------------------------------------------
      1         16           0       -0.000000   -2.244754   -0.098337
      2         16           0        0.000000    2.244754   -0.098337
      3          6           0        0.000000    0.615595    0.057975
      4          6           0       -0.000000   -0.615595    0.057975
      5          1           0        0.000000    2.536400    1.225548
      6          1           0       -0.000000   -2.536400    1.225548
 ---------------------------------------------------------------------

 SCF Done:  E(UB3LYP) =  -873.511690517     A.U. after   12 cycles

 The electronic state is 2-B1.
 Alpha  occ. eigenvalues --  -89.12989 -89.12989 -10.45586 -10.45404  -8.21302
 Alpha  occ. eigenvalues --   -8.21300  -6.17544  -6.17544  -6.17254  -6.17253
 Alpha  occ. eigenvalues --   -6.17131  -6.17131  -1.07688  -1.04002  -0.95074
 Alpha  occ. eigenvalues --   -0.74951  -0.71884  -0.63706  -0.62426  -0.61607
 Alpha  occ. eigenvalues --   -0.54567  -0.51702  -0.45589
 Alpha virt. eigenvalues --   -0.25866  -0.20495  -0.19894  -0.17872  -0.16431
 Alpha virt. eigenvalues --   -0.15383  -0.12125  -0.09509  -0.09087  -0.08701
 Alpha virt. eigenvalues --   -0.06873  -0.06754  -0.05936  -0.04381  -0.04109

  Beta  occ. eigenvalues --  -89.12760 -89.12760 -10.45284 -10.45107  -8.21094
  Beta  occ. eigenvalues --   -8.21093  -6.17420  -6.17420  -6.17011  -6.17011
  Beta  occ. eigenvalues --   -6.16537  -6.16536  -1.06588  -1.03137  -0.93424
  Beta  occ. eigenvalues --   -0.74351  -0.71531  -0.63113  -0.61801  -0.58527
  Beta  occ. eigenvalues --   -0.51270  -0.51192
  Beta virt. eigenvalues --   -0.37522  -0.25672  -0.19691  -0.17983  -0.17210
  Beta virt. eigenvalues --   -0.16167  -0.15040  -0.11799  -0.09375  -0.08974
  Beta virt. eigenvalues --   -0.08214  -0.06856  -0.06477  -0.05682  -0.04234

 Mulliken charges and spin densities:
               1          2
     1  S    0.056208   0.365741
     2  S    0.056208   0.365741
     3  C    0.231871   0.139734
     4  C    0.231871   0.139734
     5  H    0.211921  -0.005476
     6  H    0.211921  -0.005476
 Sum of Mulliken charges =   1.00000   1.00000

 Dipole moment (field-independent basis, Debye):
    X=              0.0000    Y=             -0.0000    Z=              1.8050  Tot=              1.8050
 Quadrupole moment (field-independent basis, Debye-Ang):
   XX=            -35.6502   YY=             -5.5242   ZZ=            -30.7469
   XY=              0.0000   XZ=             -0.0000   YZ=             -0.0000

  Exact polarizability:  36.675  -0.000 137.037  -0.000  -0.000  41.044
 Approx polarizability:  56.422   0.000 253.611  -0.000  -0.000  67.179

                      1                      2                      3
                     A1                     B1                     A2
 Frequencies --    160.8703               171.2367               342.2537
 Red. masses --      6.5381                 5.6692                 1.1934
 Frc consts  --      0.0997                 0.0979                 0.0824
 IR Inten    --      3.2541                11.2040                 0.0000

                      4                      5                      6
                     B2                     A2                     A1
 Frequencies --    369.6812               442.2829               500.9041
 Red. masses --      5.5265                 4.9980                14.7548
 Frc consts  --      0.4450                 0.5760                 2.1812
 IR Inten    --      3.4983                 0.0000                 0.1397

                      7                      8                      9
                     B2                     A1                     B2
 Frequencies --    960.3128               987.2503              1043.8384
 Red. masses --      1.3793                 1.1366                 4.9673
 Frc consts  --      0.7495                 0.6527                 3.1889
 IR Inten    --      6.0802                19.0004                15.8242

                     10                     11                     12
                     A1                     B2                     A1
 Frequencies --   2130.7256              2588.8359              2590.5532
 Red. masses --     11.7537                 1.0389                 1.0401
 Frc consts  --     31.4399                 4.1024                 4.1127
 IR Inten    --      0.0190                61.1396                48.4830

 - Thermochemistry -
 -------------------
 Temperature   298.150 Kelvin.  Pressure   1.00000 Atm.
 Atom     1 has atomic number 16 and mass  31.97207

 Molecular mass:    89.95979 amu.
 Principal axes and moments of inertia in atomic units:
                           1         2         3
     Eigenvalues --    13.073721229.417061242.49077
           X            0.00000   0.00000   1.00000
           Y            1.00000   0.00000  -0.00000
           Z           -0.00000   1.00000  -0.00000
 This molecule is an asymmetric top.
 Rotational symmetry number  2.
 Rotational temperatures (Kelvin)      6.62503     0.07045     0.06971
 Rotational constants (GHZ):         138.04347     1.46796     1.45252
 Zero-point vibrational energy      73503.0 (Joules/Mol)
                                   17.56764 (Kcal/Mol)
 Warning -- explicit consideration of   6 degrees of freedom as
           vibrations may cause significant error
 Vibrational temperatures:    231.46   246.37   492.43   531.89   636.35
          (Kelvin)            720.69  1381.67  1420.43  1501.85  3065.64
                             3724.75  3727.22

 Zero-point correction=                           0.027996 (Hartree/Particle)
 Thermal correction to Energy=                    0.033377
 Thermal correction to Enthalpy=                  0.034321
 Thermal correction to Gibbs Free Energy=        -0.000323
 Sum of electronic and zero-point Energies=           -873.483695
 Sum of electronic and thermal Energies=              -873.478313
 Sum of electronic and thermal Enthalpies=            -873.477369
 Sum of electronic and thermal Free Energies=         -873.512013

                     E (Thermal)             CV                S
                      KCal/Mol        Cal/Mol-Kelvin    Cal/Mol-Kelvin
 Total                   20.945             16.637             72.915
 Electronic               0.000              0.000              1.377
 Translational            0.889              2.981             39.403
 Rotational               0.889              2.981             23.128
 Vibrational             19.167             10.675              9.007
 Vibration     1          0.622              1.890              2.540
 Vibration     2          0.626              1.878              2.422
 Vibration     3          0.721              1.591              1.202
 Vibration     4          0.742              1.535              1.081
 Vibration     5          0.802              1.378              0.819
 Vibration     6          0.856              1.248              0.656

 Normal termination of Gaussian 09 at Wed Aug  3 23:03:58 2016.
