 Gaussian 09, Revision E.01,
 Gaussian 09:  EM64L-G09RevE.01 30-Nov-2015

 ------------------------------
 #p b3lyp/6-311++G(3df,2p) freq
 ------------------------------

 ---------
 b3lyp opt
 ---------
 Symbolic Z-matrix:
 Charge =  2 Multiplicity = 1

                         Standard orientation:
 ---------------------------------------------------------------------
 Center     Atomic      Atomic             Coordinates (Angstroms)
 Number     Number       Type             X           Y           Z
 ---------------------------------------------------------------------
      1         16           0        0.000000   -0.000000    0.752020
      2          6           0       -0.000000   -0.686252   -0.782665
      3          6           0        0.000000    0.686252   -0.782665
      4          1           0       -0.000000   -1.647216   -1.320171
      5          1           0        0.000000    1.647216   -1.320171
 ---------------------------------------------------------------------

 SCF Done:  E(RB3LYP) =  -474.668861174     A.U. after   10 cycles

 The electronic state is 1-A1.
 Alpha  occ. eigenvalues --  -89.53092 -10.83495 -10.83436  -8.60685  -6.57033
 Alpha  occ. eigenvalues --   -6.56567  -6.56407  -1.52082  -1.18967  -1.13737
 Alpha  occ. eigenvalues --   -1.05162  -0.95903  -0.92994  -0.92458
 Alpha virt. eigenvalues --   -0.69321  -0.58726  -0.54379  -0.44854  -0.37770
 Alpha virt. eigenvalues --   -0.36155  -0.33648  -0.29968  -0.29549  -0.26847
 Alpha virt. eigenvalues --   -0.26299  -0.25431  -0.24137  -0.23847  -0.22323

 Mulliken charges:
               1
     1  S    0.835866
     2  C    0.186115
     3  C    0.186115
     4  H    0.395952
     5  H    0.395952
 Sum of Mulliken charges =   2.00000

 Dipole moment (field-independent basis, Debye):
    X=              0.0000    Y=             -0.0000    Z=             -1.9355  Tot=              1.9355
 Quadrupole moment (field-independent basis, Debye-Ang):
   XX=            -18.1583   YY=             -9.4276   ZZ=             -8.2545
   XY=              0.0000   XZ=             -0.0000   YZ=              0.0000

  Exact polarizability:  17.770   0.000  26.990   0.000   0.000  32.346
 Approx polarizability:  29.128   0.000  44.865  -0.000  -0.000  69.187

                      1                      2                      3
                     B1                     B2                     A1
 Frequencies --    825.1558               834.0124               865.6258
 Red. masses --      1.1548                 3.3210                 3.2551
 Frc consts  --      0.4633                 1.3610                 1.4371
 IR Inten    --     50.7691                15.1760                14.7979

                      4                      5                      6
                     A2                     A1                     B2
 Frequencies --    937.9095               959.8256              1012.4894
 Red. masses --      1.4371                 1.3816                 1.5195
 Frc consts  --      0.7448                 0.7499                 0.9178
 IR Inten    --      0.0000                25.1867                67.5714

                      7                      8                      9
                     A1                     B2                     A1
 Frequencies --   1412.7510              3038.6009              3077.7058
 Red. masses --      5.3218                 1.0977                 1.1399
 Frc consts  --      6.2581                 5.9714                 6.3617
 IR Inten    --     63.9345               401.3442               146.1261

 - Thermochemistry -
 -------------------
 Temperature   298.150 Kelvin.  Pressure   1.00000 Atm.
 Atom     1 has atomic number 16 and mass  31.97207

 Molecular mass:    57.98772 amu.
 Principal axes and moments of inertia in atomic units:
                           1         2         3
     Eigenvalues --    59.89287 129.19879 189.09166
           X           -0.00000   0.00000   1.00000
           Y           -0.00000   1.00000  -0.00000
           Z            1.00000   0.00000   0.00000
 This molecule is an asymmetric top.
 Rotational symmetry number  2.
 Rotational temperatures (Kelvin)      1.44615     0.67039     0.45805
 Rotational constants (GHZ):          30.13282    13.96872     9.54427
 Zero-point vibrational energy      77542.4 (Joules/Mol)
                                   18.53308 (Kcal/Mol)
 Vibrational temperatures:   1187.21  1199.96  1245.44  1349.44  1380.97
          (Kelvin)           1456.74  2032.63  4371.86  4428.13

 Zero-point correction=                           0.029534 (Hartree/Particle)
 Thermal correction to Energy=                    0.032701
 Thermal correction to Enthalpy=                  0.033645
 Thermal correction to Gibbs Free Energy=         0.005380
 Sum of electronic and zero-point Energies=           -474.639327
 Sum of electronic and thermal Energies=              -474.636160
 Sum of electronic and thermal Enthalpies=            -474.635216
 Sum of electronic and thermal Free Energies=         -474.663482

                     E (Thermal)             CV                S
                      KCal/Mol        Cal/Mol-Kelvin    Cal/Mol-Kelvin
 Total                   20.520              9.056             59.490
 Electronic               0.000              0.000              0.000
 Translational            0.889              2.981             38.094
 Rotational               0.889              2.981             20.531
 Vibrational             18.743              3.094              0.865

 Optimization completed.
    -- Stationary point found.
 Normal termination of Gaussian 09 at Wed Aug  3 23:02:20 2016.
