 Gaussian 09, Revision E.01,
 Gaussian 09:  EM64L-G09RevE.01 30-Nov-2015

 ------------------------------
 #p b3lyp/6-311++G(3df,2p) freq
 ------------------------------

 ---------
 b3lyp opt
 ---------
 Symbolic Z-matrix:
 Charge =  2 Multiplicity = 3

                         Standard orientation:
 ---------------------------------------------------------------------
 Center     Atomic      Atomic             Coordinates (Angstroms)
 Number     Number       Type             X           Y           Z
 ---------------------------------------------------------------------
      1         16           0       -0.000000    0.527416   -0.000000
      2          6           0       -1.334278   -0.451594    0.000000
      3          6           0        1.252681   -0.619251    0.000000
      4          1           0       -1.872888   -1.417090    0.000000
      5          1           0        2.362471   -0.596500    0.000000
 ---------------------------------------------------------------------

 SCF Done:  E(UB3LYP) =  -474.511751383     A.U. after   15 cycles

 The electronic state is 3-A'.
 Alpha  occ. eigenvalues --  -89.48496 -10.85451 -10.84454  -8.56325  -6.52568
 Alpha  occ. eigenvalues --   -6.52173  -6.52142  -1.41447  -1.23616  -1.10978
 Alpha  occ. eigenvalues --   -1.01942  -0.96386  -0.89401  -0.82085  -0.81038
 Alpha virt. eigenvalues --   -0.69942  -0.60061  -0.48192  -0.44635  -0.35133
 Alpha virt. eigenvalues --   -0.33333  -0.31623  -0.28013  -0.26977  -0.26561
 Alpha virt. eigenvalues --   -0.25037  -0.22218  -0.21843  -0.21186  -0.20751

  Beta  occ. eigenvalues --  -89.48482 -10.83579 -10.82636  -8.56284  -6.52541
  Beta  occ. eigenvalues --   -6.52215  -6.52062  -1.39365  -1.19008  -1.08056
  Beta  occ. eigenvalues --   -0.99975  -0.93115  -0.88805
  Beta virt. eigenvalues --   -0.67241  -0.65467  -0.62911  -0.58242  -0.45807
  Beta virt. eigenvalues --   -0.41748  -0.34722  -0.32034  -0.30861  -0.27928
  Beta virt. eigenvalues --   -0.26433  -0.25878  -0.24357  -0.21671  -0.21092

 Mulliken charges and spin densities:
               1          2
     1  S    0.595761   0.047541
     2  C    0.333843   0.974578
     3  C    0.306369   0.956362
     4  H    0.402063  -0.000449
     5  H    0.361964   0.021968
 Sum of Mulliken charges =   2.00000   2.00000

 Dipole moment (field-independent basis, Debye):
    X=              0.5904    Y=             -2.6701    Z=              0.0000  Tot=              2.7346
 Quadrupole moment (field-independent basis, Debye-Ang):
   XX=              1.2798   YY=            -13.7024   ZZ=            -19.0464
   XY=              1.5935   XZ=             -0.0000   YZ=             -0.0000

  Exact polarizability:  45.391  -0.183  27.861  -0.000   0.000  20.428
 Approx polarizability:  88.028  -2.809  48.198  -0.000  -0.000  31.934

                      1                      2                      3
                     A"                     A'                     A'
 Frequencies --    105.8035               326.0273               442.3278
 Red. masses --      1.1937                 1.6661                 2.2416
 Frc consts  --      0.0079                 0.1043                 0.2584
 IR Inten    --      3.3900                16.5620                 0.9090

                      4                      5                      6
                     A"                     A'                     A'
 Frequencies --    661.9910               688.9623               739.1724
 Red. masses --      1.2235                 6.1883                 1.2714
 Frc consts  --      0.3159                 1.7307                 0.4093
 IR Inten    --     50.3048               199.0910                74.5948

                      7                      8                      9
                     A'                     A'                     A'
 Frequencies --    917.7644              2965.7764              3012.4157
 Red. masses --      7.0083                 1.0954                 1.1016
 Frc consts  --      3.4780                 5.6769                 5.8897
 IR Inten    --     20.6577               308.4616               286.2396

 - Thermochemistry -
 -------------------
 Temperature   298.150 Kelvin.  Pressure   1.00000 Atm.
 Atom     1 has atomic number 16 and mass  31.97207

 Molecular mass:    57.98772 amu.
 Principal axes and moments of inertia in atomic units:
                           1         2         3
     Eigenvalues --    65.12277 176.30722 241.42999
           X            0.99966   0.02592   0.00000
           Y           -0.02592   0.99966   0.00000
           Z           -0.00000  -0.00000   1.00000
 This molecule is an asymmetric top.
 Rotational symmetry number  1.
 Rotational temperatures (Kelvin)      1.33001     0.49127     0.35875
 Rotational constants (GHZ):          27.71291    10.23634     7.47522
 Zero-point vibrational energy      58977.3 (Joules/Mol)
                                   14.09592 (Kcal/Mol)
 Warning -- explicit consideration of   3 degrees of freedom as
           vibrations may cause significant error
 Vibrational temperatures:    152.23   469.08   636.41   952.46   991.26
          (Kelvin)           1063.50  1320.46  4267.09  4334.19

 Zero-point correction=                           0.022463 (Hartree/Particle)
 Thermal correction to Energy=                    0.027073
 Thermal correction to Enthalpy=                  0.028017
 Thermal correction to Gibbs Free Energy=        -0.004924
 Sum of electronic and zero-point Energies=           -474.489288
 Sum of electronic and thermal Energies=              -474.484679
 Sum of electronic and thermal Enthalpies=            -474.483734
 Sum of electronic and thermal Free Energies=         -474.516675

                     E (Thermal)             CV                S
                      KCal/Mol        Cal/Mol-Kelvin    Cal/Mol-Kelvin
 Total                   16.988             13.895             69.330
 Electronic               0.000              0.000              2.183
 Translational            0.889              2.981             38.094
 Rotational               0.889              2.981             22.543
 Vibrational             15.211              7.933              6.510
 Vibration     1          0.605              1.945              3.344
 Vibration     2          0.710              1.623              1.280
 Vibration     3          0.802              1.378              0.819

 Optimization completed.
    -- Stationary point found.
 Normal termination of Gaussian 09 at Wed Aug  3 23:05:08 2016.
