 Gaussian 09, Revision E.01,
 Gaussian 09:  EM64L-G09RevE.01 30-Nov-2015

 ------------------------------
 #p b3lyp/6-311++G(3df,2p) freq
 ------------------------------

 ---------
 b3lyp opt
 ---------
 Symbolic Z-matrix:
 Charge =  0 Multiplicity = 1

                         Standard orientation:
 ---------------------------------------------------------------------
 Center     Atomic      Atomic             Coordinates (Angstroms)
 Number     Number       Type             X           Y           Z
 ---------------------------------------------------------------------
      1         16           0        0.000000    0.338873   -0.000000
      2          6           0        1.603607    0.363713   -0.000000
      3          6           0       -1.112295   -0.863111    0.000000
      4          1           0       -2.134316   -0.529773    0.000000
      5          1           0       -0.813559   -1.895808    0.000000
 ---------------------------------------------------------------------

 SCF Done:  E(RB3LYP) =  -475.442711202     A.U. after   12 cycles

 The electronic state is 1-A'.
 Alpha  occ. eigenvalues --  -88.93609 -10.26741 -10.21404  -8.02074  -5.98115
 Alpha  occ. eigenvalues --   -5.98049  -5.97960  -0.88001  -0.72180  -0.54811
 Alpha  occ. eigenvalues --   -0.48197  -0.39412  -0.38790  -0.32039  -0.22956
 Alpha virt. eigenvalues --   -0.15311  -0.06335  -0.00810   0.01742   0.02101
 Alpha virt. eigenvalues --    0.03624   0.04635   0.06871   0.07328   0.08535
 Alpha virt. eigenvalues --    0.09020   0.09905   0.10962   0.11635   0.13397

 Mulliken charges:
               1
     1  S    0.027780
     2  C   -0.084221
     3  C   -0.274772
     4  H    0.151242
     5  H    0.179972
 Sum of Mulliken charges =  -0.00000

 Dipole moment (field-independent basis, Debye):
    X=             -2.2157    Y=             -0.7742    Z=              0.0000  Tot=              2.3470
 Quadrupole moment (field-independent basis, Debye-Ang):
   XX=            -28.6350   YY=            -23.6575   ZZ=            -27.8880
   XY=             -1.7116   XZ=              0.0000   YZ=             -0.0000

  Exact polarizability:  70.385  15.746  43.139  -0.000  -0.000  34.794
 Approx polarizability: 166.194  39.532  74.741  -0.000  -0.000  51.321

                      1                      2                      3
                     A"                     A'                     A"
 Frequencies --    169.0508               173.6100               454.7013
 Red. masses --      1.3415                 6.4322                 1.1835
 Frc consts  --      0.0226                 0.1142                 0.1442
 IR Inten    --    102.1377                10.0615                14.1833

                      4                      5                      6
                     A'                     A'                     A'
 Frequencies --    884.0383               914.0888              1068.3038
 Red. masses --      6.5959                 1.1896                12.8074
 Frc consts  --      3.0371                 0.5856                 8.6120
 IR Inten    --     29.6329                 0.2554                25.4867

                      7                      8                      9
                     A'                     A'                     A'
 Frequencies --   1377.2040              3179.1167              3320.0243
 Red. masses --      1.0977                 1.0424                 1.1269
 Frc consts  --      1.2267                 6.2072                 7.3185
 IR Inten    --      1.6365                 9.2452                 5.3263

 - Thermochemistry -
 -------------------
 Temperature   298.150 Kelvin.  Pressure   1.00000 Atm.
 Atom     1 has atomic number 16 and mass  31.97207

 Molecular mass:    57.98772 amu.
 Principal axes and moments of inertia in atomic units:
                           1         2         3
     Eigenvalues --    27.45637 218.30434 245.76070
           X            0.89832  -0.43935   0.00000
           Y            0.43935   0.89832   0.00000
           Z           -0.00000  -0.00000   1.00000
 This molecule is an asymmetric top.
 Rotational symmetry number  1.
 Rotational temperatures (Kelvin)      3.15460     0.39676     0.35243
 Rotational constants (GHZ):          65.73124     8.26709     7.34349
 Zero-point vibrational energy      69025.4 (Joules/Mol)
                                   16.49746 (Kcal/Mol)
 Warning -- explicit consideration of   3 degrees of freedom as
           vibrations may cause significant error
 Vibrational temperatures:    243.23   249.79   654.21  1271.93  1315.17
          (Kelvin)           1537.05  1981.49  4574.03  4776.77

 Zero-point correction=                           0.026290 (Hartree/Particle)
 Thermal correction to Energy=                    0.030742
 Thermal correction to Enthalpy=                  0.031686
 Thermal correction to Gibbs Free Energy=         0.000325
 Sum of electronic and zero-point Energies=           -475.416421
 Sum of electronic and thermal Energies=              -475.411969
 Sum of electronic and thermal Enthalpies=            -475.411025
 Sum of electronic and thermal Free Energies=         -475.442386

                     E (Thermal)             CV                S
                      KCal/Mol        Cal/Mol-Kelvin    Cal/Mol-Kelvin
 Total                   19.291             12.494             66.004
 Electronic               0.000              0.000              0.000
 Translational            0.889              2.981             38.094
 Rotational               0.889              2.981             21.915
 Vibrational             17.513              6.532              5.995
 Vibration     1          0.625              1.881              2.446
 Vibration     2          0.627              1.875              2.396
 Vibration     3          0.813              1.350              0.782

 Optimization completed.
    -- Stationary point found.
 Normal termination of Gaussian 09 at Wed Aug  3 22:53:49 2016.
