 Gaussian 09, Revision E.01,
 Gaussian 09:  EM64L-G09RevE.01 30-Nov-2015

 ------------------------------
 #p b3lyp/6-311++G(3df,2p) freq
 ------------------------------

 ---------
 b3lyp opt
 ---------
 Symbolic Z-matrix:
 Charge =  1 Multiplicity = 4

                         Standard orientation:
 ---------------------------------------------------------------------
 Center     Atomic      Atomic             Coordinates (Angstroms)
 Number     Number       Type             X           Y           Z
 ---------------------------------------------------------------------
      1         16           0       -0.326217   -0.834721   -0.000000
      2          6           0       -0.000000    0.830462    0.000000
      3          6           0        1.287084    1.261605    0.000000
      4          1           0       -0.825053    1.543484    0.000000
      5          1           0       -1.677979   -0.740345   -0.000000
 ---------------------------------------------------------------------

 SCF Done:  E(UB3LYP) =  -475.114689380     A.U. after   14 cycles

 The electronic state is 4-A".
 Alpha  occ. eigenvalues --  -89.17445 -10.53605 -10.51322  -8.25751  -6.22041
 Alpha  occ. eigenvalues --   -6.21899  -6.21455  -1.12009  -1.00245  -0.80870
 Alpha  occ. eigenvalues --   -0.75358  -0.65373  -0.63510  -0.63107  -0.53372
 Alpha  occ. eigenvalues --   -0.50030
 Alpha virt. eigenvalues --   -0.29218  -0.24167  -0.18028  -0.14488  -0.12979
 Alpha virt. eigenvalues --   -0.10807  -0.10684  -0.08979  -0.07475  -0.06964
 Alpha virt. eigenvalues --   -0.05970  -0.05645  -0.03744  -0.02761  -0.00446

  Beta  occ. eigenvalues --  -89.17016 -10.51147 -10.49450  -8.25353  -6.21559
  Beta  occ. eigenvalues --   -6.21176  -6.20870  -1.09416  -0.94894  -0.77056
  Beta  occ. eigenvalues --   -0.73182  -0.62059  -0.59235
  Beta virt. eigenvalues --   -0.41893  -0.41295  -0.30952  -0.23465  -0.22871
  Beta virt. eigenvalues --   -0.16342  -0.13785  -0.12604  -0.10430  -0.09712
  Beta virt. eigenvalues --   -0.08508  -0.06425  -0.05851  -0.05583  -0.05036

 Mulliken charges and spin densities:
               1          2
     1  S    0.223307   0.614414
     2  C    0.195645  -0.091383
     3  C    0.138152   2.419916
     4  H    0.223876   0.053190
     5  H    0.219020   0.003863
 Sum of Mulliken charges =   1.00000   3.00000

 Dipole moment (field-independent basis, Debye):
    X=             -1.0071    Y=              0.8957    Z=             -0.0000  Tot=              1.3478
 Quadrupole moment (field-independent basis, Debye-Ang):
   XX=            -15.0624   YY=            -15.4657   ZZ=            -22.7527
   XY=              3.6291   XZ=              0.0000   YZ=              0.0000

  Exact polarizability:  41.214  12.213  47.029   0.000  -0.000  24.542
 Approx polarizability:  68.731  23.647  79.828   0.000   0.000  36.491

                      1                      2                      3
                     A'                     A"                     A'
 Frequencies --    391.1614               478.2519               818.3327
 Red. masses --      7.6614                 1.2347                 4.2399
 Frc consts  --      0.6907                 0.1664                 1.6729
 IR Inten    --      2.1112                24.5718                 0.0260

                      4                      5                      6
                     A"                     A'                     A'
 Frequencies --    818.5560               981.2524              1235.1309
 Red. masses --      1.3870                 1.2506                 1.1259
 Frc consts  --      0.5476                 0.7095                 1.0120
 IR Inten    --     21.1110                 8.4948                 1.0403

                      7                      8                      9
                     A'                     A'                     A'
 Frequencies --   1337.5027              2607.3891              3087.9127
 Red. masses --      8.8286                 1.0388                 1.0881
 Frc consts  --      9.3053                 4.1611                 6.1130
 IR Inten    --     13.2200                50.2541                34.8437

 - Thermochemistry -
 -------------------
 Temperature   298.150 Kelvin.  Pressure   1.00000 Atm.
 Atom     1 has atomic number 16 and mass  31.97207

 Molecular mass:    57.98772 amu.
 Principal axes and moments of inertia in atomic units:
                           1         2         3
     Eigenvalues --    30.78984 252.37297 283.16281
           X            0.53974   0.84183  -0.00000
           Y            0.84183  -0.53974  -0.00000
           Z            0.00000   0.00000   1.00000
 This molecule is an asymmetric top.
 Rotational symmetry number  1.
 Rotational temperatures (Kelvin)      2.81307     0.34320     0.30588
 Rotational constants (GHZ):          58.61483     7.15109     6.37351
 Zero-point vibrational energy      70313.4 (Joules/Mol)
                                   16.80532 (Kcal/Mol)
 Warning -- explicit consideration of   2 degrees of freedom as
           vibrations may cause significant error
 Vibrational temperatures:    562.79   688.10  1177.40  1177.72  1411.80
          (Kelvin)           1777.08  1924.37  3751.45  4442.81

 Zero-point correction=                           0.026781 (Hartree/Particle)
 Thermal correction to Energy=                    0.030383
 Thermal correction to Enthalpy=                  0.031327
 Thermal correction to Gibbs Free Energy=         0.000244
 Sum of electronic and zero-point Energies=           -475.087908
 Sum of electronic and thermal Energies=              -475.084307
 Sum of electronic and thermal Enthalpies=            -475.083363
 Sum of electronic and thermal Free Energies=         -475.114445

                     E (Thermal)             CV                S
                      KCal/Mol        Cal/Mol-Kelvin    Cal/Mol-Kelvin
 Total                   19.065             10.704             65.418
 Electronic               0.000              0.000              2.755
 Translational            0.889              2.981             38.094
 Rotational               0.889              2.981             22.314
 Vibrational             17.288              4.742              2.256
 Vibration     1          0.759              1.489              0.996
 Vibration     2          0.835              1.298              0.715

 Optimization completed.
    -- Stationary point found.
 Normal termination of Gaussian 09 at Wed Aug  3 23:03:06 2016.
