 Gaussian 09, Revision E.01,
 Gaussian 09:  EM64L-G09RevE.01 30-Nov-2015

 ------------------------------
 #p b3lyp/6-311++G(3df,2p) freq
 ------------------------------

 ---------
 b3lyp opt
 ---------
 Symbolic Z-matrix:
 Charge =  1 Multiplicity = 4

                         Standard orientation:
 ---------------------------------------------------------------------
 Center     Atomic      Atomic             Coordinates (Angstroms)
 Number     Number       Type             X           Y           Z
 ---------------------------------------------------------------------
      1         16           0        0.000000    0.465830   -0.000000
      2          6           0       -1.372445   -0.393015    0.000000
      3          6           0        1.284331   -0.553457    0.000000
      4          1           0       -1.829892   -1.374580    0.000000
      5          1           0        2.358575   -0.399865   -0.000000
 ---------------------------------------------------------------------

 SCF Done:  E(UB3LYP) =  -475.119636502     A.U. after   13 cycles

 The electronic state is 4-A".
 Alpha  occ. eigenvalues --  -89.19883 -10.52000 -10.51833  -8.27984  -6.24181
 Alpha  occ. eigenvalues --   -6.23813  -6.23779  -1.14557  -0.97833  -0.84026
 Alpha  occ. eigenvalues --   -0.75325  -0.68956  -0.64664  -0.54570  -0.53860
 Alpha  occ. eigenvalues --   -0.51347
 Alpha virt. eigenvalues --   -0.34259  -0.20233  -0.17689  -0.15298  -0.12806
 Alpha virt. eigenvalues --   -0.12080  -0.10809  -0.09591  -0.08368  -0.05997
 Alpha virt. eigenvalues --   -0.05507  -0.04838  -0.04816  -0.01222  -0.00415

  Beta  occ. eigenvalues --  -89.19990 -10.49445 -10.49208  -8.28034  -6.24212
  Beta  occ. eigenvalues --   -6.24166  -6.23780  -1.11767  -0.91048  -0.80210
  Beta  occ. eigenvalues --   -0.72762  -0.65593  -0.61937
  Beta virt. eigenvalues --   -0.37589  -0.36857  -0.36226  -0.28206  -0.17934
  Beta virt. eigenvalues --   -0.15854  -0.14054  -0.12117  -0.11593  -0.10471
  Beta virt. eigenvalues --   -0.08846  -0.07428  -0.05067  -0.04348  -0.04118

 Mulliken charges and spin densities:
               1          2
     1  S    0.407750  -0.026576
     2  C    0.024786   1.492450
     3  C   -0.013515   1.524686
     4  H    0.313392  -0.002762
     5  H    0.267586   0.012202
 Sum of Mulliken charges =   1.00000   3.00000

 Dipole moment (field-independent basis, Debye):
    X=              0.3985    Y=             -1.1436    Z=              0.0000  Tot=              1.2111
 Quadrupole moment (field-independent basis, Debye-Ang):
   XX=            -10.4215   YY=            -19.1777   ZZ=            -22.6027
   XY=              1.9143   XZ=             -0.0000   YZ=              0.0000

  Exact polarizability:  54.435   0.079  30.977  -0.000  -0.000  24.262
 Approx polarizability:  98.534  -2.885  50.279  -0.000  -0.000  36.688

                      1                      2                      3
                     A'                     A"                     A"
 Frequencies --    351.6449               539.6162               585.6160
 Red. masses --      2.5574                 1.2058                 1.2127
 Frc consts  --      0.1863                 0.2069                 0.2450
 IR Inten    --      7.1539                60.4303                 3.7651

                      4                      5                      6
                     A'                     A'                     A'
 Frequencies --    610.9927               732.1832               864.0669
 Red. masses --      1.4400                 1.5039                 4.3975
 Frc consts  --      0.3167                 0.4750                 1.9344
 IR Inten    --     15.3194                40.6044                 5.3742

                      7                      8                      9
                     A'                     A'                     A'
 Frequencies --    966.3751              3188.9443              3213.5934
 Red. masses --      6.4710                 1.0922                 1.0967
 Frc consts  --      3.5605                 6.5443                 6.6730
 IR Inten    --      0.4009               150.3541                99.3299

 - Thermochemistry -
 -------------------
 Temperature   298.150 Kelvin.  Pressure   1.00000 Atm.
 Atom     1 has atomic number 16 and mass  31.97207

 Molecular mass:    57.98772 amu.
 Principal axes and moments of inertia in atomic units:
                           1         2         3
     Eigenvalues --    51.68843 183.47896 235.16739
           X            0.99992   0.01238   0.00000
           Y           -0.01238   0.99992   0.00000
           Z           -0.00000  -0.00000   1.00000
 This molecule is an asymmetric top.
 Rotational symmetry number  1.
 Rotational temperatures (Kelvin)      1.67569     0.47206     0.36831
 Rotational constants (GHZ):          34.91577     9.83623     7.67428
 Zero-point vibrational energy      66111.8 (Joules/Mol)
                                   15.80110 (Kcal/Mol)
 Warning -- explicit consideration of   4 degrees of freedom as
           vibrations may cause significant error
 Vibrational temperatures:    505.94   776.39   842.57   879.08  1053.45
          (Kelvin)           1243.20  1390.40  4588.17  4623.64

 Zero-point correction=                           0.025181 (Hartree/Particle)
 Thermal correction to Energy=                    0.029095
 Thermal correction to Enthalpy=                  0.030039
 Thermal correction to Gibbs Free Energy=        -0.001483
 Sum of electronic and zero-point Energies=           -475.094456
 Sum of electronic and thermal Energies=              -475.090541
 Sum of electronic and thermal Enthalpies=            -475.089597
 Sum of electronic and thermal Free Energies=         -475.121120

                     E (Thermal)             CV                S
                      KCal/Mol        Cal/Mol-Kelvin    Cal/Mol-Kelvin
 Total                   18.258             12.503             66.345
 Electronic               0.000              0.000              2.755
 Translational            0.889              2.981             38.094
 Rotational               0.889              2.981             22.327
 Vibrational             16.480              6.541              3.169
 Vibration     1          0.728              1.572              1.159
 Vibration     2          0.895              1.162              0.566
 Vibration     3          0.943              1.062              0.475
 Vibration     4          0.970              1.009              0.431

 Optimization completed.
    -- Stationary point found.
 Normal termination of Gaussian 09 at Wed Aug  3 23:00:52 2016.
