 Gaussian 09, Revision E.01,
 Gaussian 09:  EM64L-G09RevE.01 30-Nov-2015

 ------------------------------
 #p b3lyp/6-311++G(3df,2p) freq
 ------------------------------

 ---------
 b3lyp opt
 ---------
 Symbolic Z-matrix:
 Charge =  2 Multiplicity = 1

                         Standard orientation:
 ---------------------------------------------------------------------
 Center     Atomic      Atomic             Coordinates (Angstroms)
 Number     Number       Type             X           Y           Z
 ---------------------------------------------------------------------
      1         16           0       -0.358724   -0.818629    0.000000
      2          6           0       -0.000000    0.790361   -0.000000
      3          6           0        1.371498    1.240773    0.000000
      4          1           0       -0.753133    1.612049   -0.000000
      5          1           0       -1.736278   -0.700785   -0.000000
 ---------------------------------------------------------------------

 SCF Done:  E(RB3LYP) =  -474.531840735     A.U. after   11 cycles

 The electronic state is 1-A'.
 Alpha  occ. eigenvalues --  -89.49998 -10.89855 -10.79288  -8.57739  -6.54053
 Alpha  occ. eigenvalues --   -6.53804  -6.53298  -1.40746  -1.27156  -1.06681
 Alpha  occ. eigenvalues --   -1.02988  -0.90537  -0.89578  -0.84667
 Alpha virt. eigenvalues --   -0.72611  -0.66594  -0.55585  -0.49622  -0.41730
 Alpha virt. eigenvalues --   -0.35183  -0.34696  -0.32018  -0.31565  -0.27628
 Alpha virt. eigenvalues --   -0.27521  -0.24529  -0.22867  -0.20943  -0.20683

 Mulliken charges:
               1
     1  S    0.582600
     2  C    0.369367
     3  C    0.443428
     4  H    0.289195
     5  H    0.315408
 Sum of Mulliken charges =   2.00000

 Dipole moment (field-independent basis, Debye):
    X=             -1.4174    Y=              1.6996    Z=             -0.0000  Tot=              2.2131
 Quadrupole moment (field-independent basis, Debye-Ang):
   XX=            -10.4772   YY=             -6.7529   ZZ=            -19.1229
   XY=              5.3009   XZ=             -0.0000   YZ=              0.0000

  Exact polarizability:  36.019  10.989  41.640  -0.001  -0.000  21.762
 Approx polarizability:  66.952  32.270  94.804   0.000  -0.000  34.869

                      1                      2                      3
                     A'                     A"                     A"
 Frequencies --    229.2958               390.2922               857.3604
 Red. masses --      8.8292                 1.4790                 1.1690
 Frc consts  --      0.2735                 0.1327                 0.5063
 IR Inten    --      7.0552                18.7726                 6.3861

                      4                      5                      6
                     A'                     A'                     A'
 Frequencies --    861.1082               939.4017              1014.9853
 Red. masses --      6.0993                 1.0750                 1.4390
 Frc consts  --      2.6647                 0.5589                 0.8734
 IR Inten    --     42.2793                12.3652                22.6648

                      7                      8                      9
                     A'                     A'                     A'
 Frequencies --   1283.1644              2417.3590              2870.1742
 Red. masses --      3.8486                 1.0401                 1.0828
 Frc consts  --      3.7335                 3.5811                 5.2556
 IR Inten    --    473.6596               218.9714               260.2094

 - Thermochemistry -
 -------------------
 Temperature   298.150 Kelvin.  Pressure   1.00000 Atm.
 Atom     1 has atomic number 16 and mass  31.97207

 Molecular mass:    57.98772 amu.
 Principal axes and moments of inertia in atomic units:
                           1         2         3
     Eigenvalues --    31.47557 256.66365 288.13922
           X            0.58222   0.81303   0.00000
           Y            0.81303  -0.58222   0.00000
           Z            0.00000   0.00000   1.00000
 This molecule is an asymmetric top.
 Rotational symmetry number  1.
 Rotational temperatures (Kelvin)      2.75178     0.33746     0.30060
 Rotational constants (GHZ):          57.33784     7.03154     6.26343
 Zero-point vibrational energy      64976.0 (Joules/Mol)
                                   15.52964 (Kcal/Mol)
 Warning -- explicit consideration of   2 degrees of freedom as
           vibrations may cause significant error
 Vibrational temperatures:    329.91   561.54  1233.55  1238.94  1351.59
          (Kelvin)           1460.34  1846.19  3478.04  4129.54

 Zero-point correction=                           0.024748 (Hartree/Particle)
 Thermal correction to Energy=                    0.028635
 Thermal correction to Enthalpy=                  0.029579
 Thermal correction to Gibbs Free Energy=        -0.000787
 Sum of electronic and zero-point Energies=           -474.507093
 Sum of electronic and thermal Energies=              -474.503206
 Sum of electronic and thermal Enthalpies=            -474.502262
 Sum of electronic and thermal Free Energies=         -474.532628

                     E (Thermal)             CV                S
                      KCal/Mol        Cal/Mol-Kelvin    Cal/Mol-Kelvin
 Total                   17.969             11.334             63.912
 Electronic               0.000              0.000              0.000
 Translational            0.889              2.981             38.094
 Rotational               0.889              2.981             22.370
 Vibrational             16.191              5.372              3.449
 Vibration     1          0.652              1.796              1.884
 Vibration     2          0.758              1.491              0.999

 Optimization completed.
    -- Stationary point found.
 Normal termination of Gaussian 09 at Wed Aug  3 23:02:41 2016.
