 Gaussian 09, Revision E.01,
 Gaussian 09:  EM64L-G09RevE.01 30-Nov-2015

 ------------------------------
 #p b3lyp/6-311++G(3df,2p) freq
 ------------------------------

 ---------
 b3lyp opt
 ---------
 Symbolic Z-matrix:
 Charge =  0 Multiplicity = 1

                         Standard orientation:
 ---------------------------------------------------------------------
 Center     Atomic      Atomic             Coordinates (Angstroms)
 Number     Number       Type             X           Y           Z
 ---------------------------------------------------------------------
      1         16           0       -0.318403    0.712493   -0.000868
      2         16           0        1.545216   -0.283111   -0.087987
      3          6           0       -1.556982   -0.445370    0.533101
      4          6           0       -1.707088   -0.538700   -0.756385
      5          1           0       -1.835658   -0.739127    1.528109
      6          1           0        1.791070   -0.226567    1.233271
 ---------------------------------------------------------------------

 SCF Done:  E(RB3LYP) =  -873.757037121     A.U. after   13 cycles

 The electronic state is 1-A.
 Alpha  occ. eigenvalues --  -88.93480 -88.88698 -10.22096 -10.21994  -8.01467
 Alpha  occ. eigenvalues --   -7.97233  -5.97855  -5.97439  -5.97009  -5.93593
 Alpha  occ. eigenvalues --   -5.93266  -5.92651  -0.89719  -0.77766  -0.64942
 Alpha  occ. eigenvalues --   -0.57737  -0.47161  -0.41820  -0.40267  -0.34421
 Alpha  occ. eigenvalues --   -0.29567  -0.28681  -0.27161
 Alpha virt. eigenvalues --   -0.07139  -0.04192  -0.02708  -0.01820  -0.00570
 Alpha virt. eigenvalues --    0.02018   0.03322   0.03774   0.04518   0.05924
 Alpha virt. eigenvalues --    0.06477   0.07488   0.08359   0.08716   0.10056

 Mulliken charges:
               1
     1  S    0.175826
     2  S   -0.207909
     3  C    0.452736
     4  C   -0.829399
     5  H    0.266692
     6  H    0.142054
 Sum of Mulliken charges =  -0.00000

 Dipole moment (field-independent basis, Debye):
    X=              1.0198    Y=              0.3313    Z=              3.2565  Tot=              3.4284
 Quadrupole moment (field-independent basis, Debye-Ang):
   XX=            -39.0864   YY=            -39.6017   ZZ=            -37.6732
   XY=             -0.8371   XZ=             -3.4180   YZ=             -2.2635

  Exact polarizability:  89.532   3.713  55.302   3.633   1.444  54.692
 Approx polarizability: 154.038   9.033  98.698   8.424   5.049  97.059

                      1                      2                      3
                      A                      A                      A
 Frequencies --    189.7108               222.4618               256.8781
 Red. masses --      1.4776                 3.1754                 4.1063
 Frc consts  --      0.0313                 0.0926                 0.1596
 IR Inten    --     10.8027                 2.0714                 5.5660

                      4                      5                      6
                      A                      A                      A
 Frequencies --    383.1749               444.5395               661.6824
 Red. masses --     11.2146                19.6739                 8.8700
 Frc consts  --      0.9701                 2.2907                 2.2881
 IR Inten    --      4.7935                15.1198                 8.9321

                      7                      8                      9
                      A                      A                      A
 Frequencies --    700.6609               839.0817               971.9425
 Red. masses --      1.3260                 1.0683                 1.1250
 Frc consts  --      0.3835                 0.4431                 0.6262
 IR Inten    --     45.1335                 4.8213                 7.7030

                     10                     11                     12
                      A                      A                      A
 Frequencies --   1629.6445              2660.0509              3281.6127
 Red. masses --      7.2892                 1.0391                 1.1132
 Frc consts  --     11.4055                 4.3322                 7.0631
 IR Inten    --     21.6836                 0.4746                16.4777

 - Thermochemistry -
 -------------------
 Temperature   298.150 Kelvin.  Pressure   1.00000 Atm.
 Atom     1 has atomic number 16 and mass  31.97207

 Molecular mass:    89.95979 amu.
 Principal axes and moments of inertia in atomic units:
                           1         2         3
     Eigenvalues --   141.28925 587.15053 627.45372
           X            0.99996   0.00674  -0.00521
           Y           -0.00735   0.99178  -0.12775
           Z            0.00430   0.12778   0.99179
 This molecule is an asymmetric top.
 Rotational symmetry number  1.
 Rotational temperatures (Kelvin)      0.61302     0.14752     0.13804
 Rotational constants (GHZ):          12.77338     3.07373     2.87629
 Zero-point vibrational energy      73220.1 (Joules/Mol)
                                   17.50002 (Kcal/Mol)
 Warning -- explicit consideration of   5 degrees of freedom as
           vibrations may cause significant error
 Vibrational temperatures:    272.95   320.07   369.59   551.30   639.59
          (Kelvin)            952.01  1008.09  1207.25  1398.41  2344.69
                             3827.22  4721.50

 Zero-point correction=                           0.027888 (Hartree/Particle)
 Thermal correction to Energy=                    0.033249
 Thermal correction to Enthalpy=                  0.034193
 Thermal correction to Gibbs Free Energy=        -0.000730
 Sum of electronic and zero-point Energies=           -873.729149
 Sum of electronic and thermal Energies=              -873.723788
 Sum of electronic and thermal Enthalpies=            -873.722844
 Sum of electronic and thermal Free Energies=         -873.757767

                     E (Thermal)             CV                S
                      KCal/Mol        Cal/Mol-Kelvin    Cal/Mol-Kelvin
 Total                   20.864             17.031             73.501
 Electronic               0.000              0.000              0.000
 Translational            0.889              2.981             39.403
 Rotational               0.889              2.981             25.457
 Vibrational             19.086             11.069              8.641
 Vibration     1          0.633              1.854              2.231
 Vibration     2          0.648              1.807              1.939
 Vibration     3          0.666              1.751              1.683
 Vibration     4          0.752              1.506              1.027
 Vibration     5          0.804              1.373              0.812

 Normal termination of Gaussian 09 at Wed Aug  3 20:59:01 2016.
