 Gaussian 09, Revision E.01,
 Gaussian 09:  EM64L-G09RevE.01 30-Nov-2015

 ------------------------------
 #p b3lyp/6-311++G(3df,2p) freq
 ------------------------------

 ---------
 b3lyp opt
 ---------
 Symbolic Z-matrix:
 Charge =  0 Multiplicity = 1

                         Standard orientation:
 ---------------------------------------------------------------------
 Center     Atomic      Atomic             Coordinates (Angstroms)
 Number     Number       Type             X           Y           Z
 ---------------------------------------------------------------------
      1         16           0       -0.098584    0.749417   -0.108111
      2         16           0       -1.589903   -0.541289    0.022976
      3          6           0        1.434009   -0.019712    0.039646
      4          6           0        2.493524   -0.583119    0.005378
      5          1           0        3.430763   -1.084585   -0.008586
      6          1           0        0.019833    1.371524    1.100600
 ---------------------------------------------------------------------

 SCF Done:  E(RB3LYP) =  -873.767435185     A.U. after   13 cycles

 The electronic state is 1-A.
 Alpha  occ. eigenvalues --  -88.97911 -88.82485 -10.22434 -10.21722  -8.05584
 Alpha  occ. eigenvalues --   -7.91041  -6.01865  -6.01697  -6.01233  -5.87695
 Alpha  occ. eigenvalues --   -5.86696  -5.86531  -0.88550  -0.78243  -0.67083
 Alpha  occ. eigenvalues --   -0.57748  -0.52596  -0.46005  -0.40527  -0.33308
 Alpha  occ. eigenvalues --   -0.31693  -0.25196  -0.23092
 Alpha virt. eigenvalues --   -0.06408  -0.05061  -0.02612  -0.00338   0.00168
 Alpha virt. eigenvalues --    0.01633   0.03460   0.04091   0.04716   0.05963
 Alpha virt. eigenvalues --    0.07149   0.07579   0.08026   0.08097   0.09233

 Mulliken charges:
               1
     1  S   -0.517723
     2  S   -0.350653
     3  C   -0.430306
     4  C    0.807637
     5  H    0.334969
     6  H    0.156076
 Sum of Mulliken charges =  -0.00000

 Dipole moment (field-independent basis, Debye):
    X=              3.3456    Y=              1.4212    Z=              0.6744  Tot=              3.6970
 Quadrupole moment (field-independent basis, Debye-Ang):
   XX=            -34.9133   YY=            -36.4943   ZZ=            -39.1297
   XY=             -3.4157   XZ=             -0.2766   YZ=              1.7386

  Exact polarizability:  98.829   0.086  59.775   0.177   1.730  48.245
 Approx polarizability: 163.484   3.745 106.687  -0.476   4.305  75.589

                      1                      2                      3
                      A                      A                      A
 Frequencies --    137.4457               266.3381               378.5315
 Red. masses --      6.0841                 3.9490                 7.5002
 Frc consts  --      0.0677                 0.1650                 0.6332
 IR Inten    --      2.4181                 9.6075                10.6096

                      4                      5                      6
                      A                      A                      A
 Frequencies --    553.8020               629.0615               679.6023
 Red. masses --     27.5797                10.2147                 1.2662
 Frc consts  --      4.9837                 2.3816                 0.3445
 IR Inten    --     53.5819                48.8930                42.0293

                      7                      8                      9
                      A                      A                      A
 Frequencies --    727.4648               794.0705               990.0496
 Red. masses --      1.2769                 1.1633                 1.0819
 Frc consts  --      0.3981                 0.4322                 0.6248
 IR Inten    --     33.5940                 9.9785                57.7415

                     10                     11                     12
                      A                      A                      A
 Frequencies --   2155.9412              2446.4816              3453.0030
 Red. masses --      5.8106                 1.0396                 1.1603
 Frc consts  --     15.9127                 3.6659                 8.1514
 IR Inten    --      9.4135                33.3560                84.6643

 - Thermochemistry -
 -------------------
 Temperature   298.150 Kelvin.  Pressure   1.00000 Atm.
 Atom     1 has atomic number 16 and mass  31.97207

 Molecular mass:    89.95979 amu.
 Principal axes and moments of inertia in atomic units:
                           1         2         3
     Eigenvalues --   128.64179 692.02271 809.60461
           X            0.99973  -0.02301  -0.00070
           Y            0.02302   0.99869   0.04580
           Z           -0.00035  -0.04581   0.99895
 This molecule is an asymmetric top.
 Rotational symmetry number  1.
 Rotational temperatures (Kelvin)      0.67329     0.12516     0.10698
 Rotational constants (GHZ):          14.02920     2.60792     2.22916
 Zero-point vibrational energy      79024.1 (Joules/Mol)
                                   18.88720 (Kcal/Mol)
 Warning -- explicit consideration of   4 degrees of freedom as
           vibrations may cause significant error
 Vibrational temperatures:    197.75   383.20   544.62   796.80   905.08
          (Kelvin)            977.79  1046.66  1142.49  1424.46  3101.91
                             3519.94  4968.09

 Zero-point correction=                           0.030099 (Hartree/Particle)
 Thermal correction to Energy=                    0.035065
 Thermal correction to Enthalpy=                  0.036010
 Thermal correction to Gibbs Free Energy=         0.001542
 Sum of electronic and zero-point Energies=           -873.737337
 Sum of electronic and thermal Energies=              -873.732370
 Sum of electronic and thermal Enthalpies=            -873.731426
 Sum of electronic and thermal Free Energies=         -873.765893

                     E (Thermal)             CV                S
                      KCal/Mol        Cal/Mol-Kelvin    Cal/Mol-Kelvin
 Total                   22.004             15.934             72.542
 Electronic               0.000              0.000              0.000
 Translational            0.889              2.981             39.403
 Rotational               0.889              2.981             25.780
 Vibrational             20.226              9.973              7.359
 Vibration     1          0.614              1.916              2.839
 Vibration     2          0.672              1.735              1.620
 Vibration     3          0.749              1.516              1.045
 Vibration     4          0.909              1.131              0.536

 Normal termination of Gaussian 09 at Wed Aug  3 20:54:31 2016.
