 Gaussian 09, Revision E.01,
 Gaussian 09:  EM64L-G09RevE.01 30-Nov-2015

 ------------------------------
 #p b3lyp/6-311++G(3df,2p) freq
 ------------------------------

 ---------
 b3lyp opt
 ---------
 Symbolic Z-matrix:
 Charge =  2 Multiplicity = 1

                         Standard orientation:
 ---------------------------------------------------------------------
 Center     Atomic      Atomic             Coordinates (Angstroms)
 Number     Number       Type             X           Y           Z
 ---------------------------------------------------------------------
      1         16           0        0.000000    0.772358   -0.000000
      2         16           0       -1.619214   -0.400723    0.000000
      3          6           0        2.529285   -0.486717   -0.000000
      4          6           0        1.364117   -0.090967   -0.000000
      5          1           0        3.549403   -0.857267   -0.000000
      6          1           0       -1.002385   -1.622782    0.000000
 ---------------------------------------------------------------------

 SCF Done:  E(RB3LYP) =  -872.937153340     A.U. after   16 cycles

 The electronic state is 1-A'.
 Alpha  occ. eigenvalues --  -89.44944 -89.40292 -10.70612 -10.67360  -8.52502
 Alpha  occ. eigenvalues --   -8.48279  -6.48650  -6.48623  -6.48210  -6.44526
 Alpha  occ. eigenvalues --   -6.44192  -6.43992  -1.35299  -1.24381  -1.17367
 Alpha  occ. eigenvalues --   -1.00821  -0.96066  -0.87485  -0.85336  -0.84809
 Alpha  occ. eigenvalues --   -0.75515  -0.75467
 Alpha virt. eigenvalues --   -0.64175  -0.51770  -0.46669  -0.42579  -0.40929
 Alpha virt. eigenvalues --   -0.35658  -0.32091  -0.27781  -0.27687  -0.26460
 Alpha virt. eigenvalues --   -0.25939  -0.25275  -0.24334  -0.23349  -0.23148

 Mulliken charges:
               1
     1  S    0.107736
     2  S    0.483871
     3  C    0.741757
     4  C   -0.055590
     5  H    0.450462
     6  H    0.271765
 Sum of Mulliken charges =   2.00000

 Dipole moment (field-independent basis, Debye):
    X=              2.8262    Y=             -2.2715    Z=             -0.0000  Tot=              3.6259
 Quadrupole moment (field-independent basis, Debye-Ang):
   XX=              7.3142   YY=            -23.2133   ZZ=            -31.1116
   XY=             -1.7907   XZ=              0.0000   YZ=              0.0000

  Exact polarizability: 104.300  -0.165  41.984  -0.000  -0.000  30.196
 Approx polarizability: 334.624   5.534  82.164  -0.000  -0.000  49.617

                      1                      2                      3
                     A'                     A"                     A'
 Frequencies --    157.0595               234.9835               375.5953
 Red. masses --      5.1660                 3.0194                 6.8413
 Frc consts  --      0.0751                 0.0982                 0.5686
 IR Inten    --      3.7342                 2.3617                22.7968

                      4                      5                      6
                     A"                     A'                     A'
 Frequencies --    482.3147               550.9227               771.6628
 Red. masses --      1.2604                24.5775                 1.2806
 Frc consts  --      0.1728                 4.3951                 0.4493
 IR Inten    --     41.9049                17.8019                31.4845

                      7                      8                      9
                     A'                     A"                     A'
 Frequencies --    812.3074               855.7792               882.2626
 Red. masses --      3.1851                 1.3418                 1.4278
 Frc consts  --      1.2382                 0.5790                 0.6548
 IR Inten    --      7.9640                10.9959                11.6956

                     10                     11                     12
                     A'                     A'                     A'
 Frequencies --   2022.0805              2513.8882              3248.3206
 Red. masses --      5.8287                 1.0399                 1.1680
 Frc consts  --     14.0416                 3.8719                 7.2610
 IR Inten    --    847.5958               118.4301               229.9590

 - Thermochemistry -
 -------------------
 Temperature   298.150 Kelvin.  Pressure   1.00000 Atm.
 Atom     1 has atomic number 16 and mass  31.97207

 Molecular mass:    89.95979 amu.
 Principal axes and moments of inertia in atomic units:
                           1         2         3
     Eigenvalues --   108.62383 702.15361 810.77744
           X            0.99982  -0.01880   0.00000
           Y            0.01880   0.99982   0.00000
           Z            0.00000  -0.00000   1.00000
 This molecule is an asymmetric top.
 Rotational symmetry number  1.
 Rotational temperatures (Kelvin)      0.79737     0.12335     0.10683
 Rotational constants (GHZ):          16.61460     2.57029     2.22594
 Zero-point vibrational energy      77202.1 (Joules/Mol)
                                   18.45174 (Kcal/Mol)
 Warning -- explicit consideration of   5 degrees of freedom as
           vibrations may cause significant error
 Vibrational temperatures:    225.97   338.09   540.40   693.94   792.65
          (Kelvin)           1110.25  1168.73  1231.27  1269.38  2909.32
                             3616.92  4673.60

 Zero-point correction=                           0.029405 (Hartree/Particle)
 Thermal correction to Energy=                    0.034421
 Thermal correction to Enthalpy=                  0.035365
 Thermal correction to Gibbs Free Energy=         0.000915
 Sum of electronic and zero-point Energies=           -872.907749
 Sum of electronic and thermal Energies=              -872.902733
 Sum of electronic and thermal Enthalpies=            -872.901788
 Sum of electronic and thermal Free Energies=         -872.936238

                     E (Thermal)             CV                S
                      KCal/Mol        Cal/Mol-Kelvin    Cal/Mol-Kelvin
 Total                   21.599             16.022             72.506
 Electronic               0.000              0.000              0.000
 Translational            0.889              2.981             39.403
 Rotational               0.889              2.981             25.628
 Vibrational             19.822             10.061              7.475
 Vibration     1          0.621              1.895              2.585
 Vibration     2          0.655              1.787              1.841
 Vibration     3          0.746              1.522              1.057
 Vibration     4          0.839              1.289              0.704
 Vibration     5          0.906              1.138              0.542

 Optimization completed.
    -- Stationary point found.
 Normal termination of Gaussian 09 at Wed Aug  3 22:55:44 2016.
