 Gaussian 09, Revision E.01,
 Gaussian 09:  EM64L-G09RevE.01 30-Nov-2015

 ------------------------------
 #p b3lyp/6-311++G(3df,2p) freq
 ------------------------------

 ---------
 b3lyp opt
 ---------
 Symbolic Z-matrix:
 Charge =  2 Multiplicity = 1

                         Standard orientation:
 ---------------------------------------------------------------------
 Center     Atomic      Atomic             Coordinates (Angstroms)
 Number     Number       Type             X           Y           Z
 ---------------------------------------------------------------------
      1         16           0        2.322112    0.000340   -0.009483
      2         16           0       -2.103971    0.000541   -0.102719
      3          6           0       -0.496246   -0.002698    0.079122
      4          6           0        0.785408   -0.000021    0.028446
      5          1           0       -2.611033    1.082585    0.575347
      6          1           0       -2.614190   -1.080366    0.574470
 ---------------------------------------------------------------------

 SCF Done:  E(RB3LYP) =  -872.930647054     A.U. after   17 cycles

 The electronic state is 1-A.
 Alpha  occ. eigenvalues --  -89.42130 -89.35943 -10.71180 -10.69962  -8.50123
 Alpha  occ. eigenvalues --   -8.43888  -6.46359  -6.46126  -6.45900  -6.40439
 Alpha  occ. eigenvalues --   -6.39858  -6.39264  -1.32984  -1.27336  -1.16877
 Alpha  occ. eigenvalues --   -1.01313  -0.95072  -0.88537  -0.85173  -0.80547
 Alpha  occ. eigenvalues --   -0.78524  -0.68594
 Alpha virt. eigenvalues --   -0.62444  -0.47270  -0.45214  -0.41170  -0.39671
 Alpha virt. eigenvalues --   -0.37108  -0.31004  -0.30305  -0.27853  -0.25770
 Alpha virt. eigenvalues --   -0.24587  -0.23087  -0.22090  -0.21219  -0.19131

 Mulliken charges:
               1
     1  S    0.377941
     2  S   -0.081855
     3  C    0.297431
     4  C    0.771127
     5  H    0.317619
     6  H    0.317737
 Sum of Mulliken charges =   2.00000

 Dipole moment (field-independent basis, Debye):
    X=             -4.2489    Y=              0.0056    Z=              1.1117  Tot=              4.3920
 Quadrupole moment (field-independent basis, Debye-Ang):
   XX=             21.5761   YY=            -28.8648   ZZ=            -29.1067
   XY=             -0.0034   XZ=             -3.3064   YZ=              0.0016

  Exact polarizability: 117.666   0.004  35.021  -1.449  -0.002  31.351
 Approx polarizability: 276.697   0.064  53.870   0.652  -0.009  51.588

                      1                      2                      3
                      A                      A                      A
 Frequencies --     38.6914               160.2290               384.7328
 Red. masses --      4.9275                 8.5592                12.5613
 Frc consts  --      0.0043                 0.1295                 1.0955
 IR Inten    --     21.0405                 7.2793                 0.2383

                      4                      5                      6
                      A                      A                      A
 Frequencies --    412.9966               521.9821               626.0712
 Red. masses --      3.4949                11.6189                 1.6130
 Frc consts  --      0.3512                 1.8652                 0.3725
 IR Inten    --     25.4069                 1.4829                67.7474

                      7                      8                      9
                      A                      A                      A
 Frequencies --    856.3907              1176.2951              1197.5763
 Red. masses --      1.0948                 2.8639                 1.4366
 Frc consts  --      0.4731                 2.3348                 1.2139
 IR Inten    --      7.6069                 4.2972                59.9920

                     10                     11                     12
                      A                      A                      A
 Frequencies --   1731.2980              2425.0925              2452.2656
 Red. masses --      9.8191                 1.0308                 1.0499
 Frc consts  --     17.3407                 3.5719                 3.7199
 IR Inten    --      1.1329               249.5657               193.7430

 - Thermochemistry -
 -------------------
 Temperature   298.150 Kelvin.  Pressure   1.00000 Atm.
 Atom     1 has atomic number 16 and mass  31.97207

 Molecular mass:    89.95979 amu.
 Principal axes and moments of inertia in atomic units:
                           1         2         3
     Eigenvalues --    12.166631209.966621214.63820
           X            0.99996   0.00001  -0.00903
           Y            0.00001   1.00000   0.00172
           Z            0.00903  -0.00172   0.99996
 This molecule is an asymmetric top.
 Rotational symmetry number  1.
 Rotational temperatures (Kelvin)      7.11897     0.07158     0.07131
 Rotational constants (GHZ):         148.33538     1.49156     1.48583
 Zero-point vibrational energy      71678.0 (Joules/Mol)
                                   17.13145 (Kcal/Mol)
 Warning -- explicit consideration of   5 degrees of freedom as
           vibrations may cause significant error
 Vibrational temperatures:     55.67   230.53   553.54   594.21   751.01
          (Kelvin)            900.78  1232.15  1692.42  1723.04  2490.95
                             3489.16  3528.26

 Zero-point correction=                           0.027301 (Hartree/Particle)
 Thermal correction to Energy=                    0.032695
 Thermal correction to Enthalpy=                  0.033639
 Thermal correction to Gibbs Free Energy=        -0.001938
 Sum of electronic and zero-point Energies=           -872.903346
 Sum of electronic and thermal Energies=              -872.897952
 Sum of electronic and thermal Enthalpies=            -872.897008
 Sum of electronic and thermal Free Energies=         -872.932585

                     E (Thermal)             CV                S
                      KCal/Mol        Cal/Mol-Kelvin    Cal/Mol-Kelvin
 Total                   20.516             15.984             74.877
 Electronic               0.000              0.000              0.000
 Translational            0.889              2.981             39.403
 Rotational               0.889              2.981             24.395
 Vibrational             18.739             10.022             11.079
 Vibration     1          0.594              1.981              5.325
 Vibration     2          0.622              1.891              2.547
 Vibration     3          0.754              1.503              1.021
 Vibration     4          0.777              1.442              0.916
 Vibration     5          0.877              1.201              0.605

 Normal termination of Gaussian 09 at Wed Aug  3 20:18:29 2016.
