 Gaussian 09, Revision E.01,
 Gaussian 09:  EM64L-G09RevE.01 30-Nov-2015

 ------------------------------
 #p b3lyp/6-311++G(3df,2p) freq
 ------------------------------

 ---------
 b3lyp opt
 ---------
 Symbolic Z-matrix:
 Charge =  2 Multiplicity = 1

                         Standard orientation:
 ---------------------------------------------------------------------
 Center     Atomic      Atomic             Coordinates (Angstroms)
 Number     Number       Type             X           Y           Z
 ---------------------------------------------------------------------
      1         16           0        0.000000    0.372252    0.000000
      2         16           0       -1.689194   -0.385532    0.000000
      3          6           0        1.517965   -0.355718   -0.000000
      4          6           0        2.695559    0.344175   -0.000000
      5          1           0        1.589767   -1.458654   -0.000000
      6          1           0        0.156185    1.740403   -0.000000
 ---------------------------------------------------------------------

 SCF Done:  E(RB3LYP) =  -872.797880495     A.U. after   14 cycles

 The electronic state is 1-A'.
 Alpha  occ. eigenvalues --  -89.48884 -89.39869 -10.76001 -10.69347  -8.56450
 Alpha  occ. eigenvalues --   -8.47736  -6.52570  -6.52511  -6.52454  -6.44131
 Alpha  occ. eigenvalues --   -6.43976  -6.42980  -1.39604  -1.26931  -1.15416
 Alpha  occ. eigenvalues --   -1.04929  -0.94714  -0.92770  -0.88473  -0.76807
 Alpha  occ. eigenvalues --   -0.76066  -0.74501
 Alpha virt. eigenvalues --   -0.63573  -0.59230  -0.49054  -0.46703  -0.44685
 Alpha virt. eigenvalues --   -0.41692  -0.35486  -0.31457  -0.30047  -0.27987
 Alpha virt. eigenvalues --   -0.25963  -0.24877  -0.24284  -0.22877  -0.21042

 Mulliken charges:
               1
     1  S    0.301262
     2  S    0.624620
     3  C    0.385947
     4  C    0.082271
     5  H    0.297395
     6  H    0.308506
 Sum of Mulliken charges =   2.00000

 Dipole moment (field-independent basis, Debye):
    X=              1.2055    Y=              0.4363    Z=             -0.0000  Tot=              1.2820
 Quadrupole moment (field-independent basis, Debye-Ang):
   XX=             -6.5056   YY=            -22.6145   ZZ=            -31.3793
   XY=              0.4092   XZ=             -0.0000   YZ=              0.0000

  Exact polarizability: 104.055   8.081  42.450  -0.001   0.000  31.880
 Approx polarizability: 318.160  41.571  78.296  -0.000  -0.000  53.170

                      1                      2                      3
                     A"                     A'                     A'
 Frequencies --    122.1840               183.7333               295.7837
 Red. masses --      7.2440                10.6424                 7.9882
 Frc consts  --      0.0637                 0.2117                 0.4118
 IR Inten    --      4.0573                11.9560                 2.5393

                      4                      5                      6
                     A"                     A'                     A"
 Frequencies --    429.6131               658.7365               659.8078
 Red. masses --      1.3720                12.8383                 1.2624
 Frc consts  --      0.1492                 3.2823                 0.3238
 IR Inten    --     31.7390                 0.4420                46.7348

                      7                      8                      9
                     A'                     A'                     A'
 Frequencies --    839.4278               932.1001              1063.8850
 Red. masses --      5.5270                 1.2043                 1.1678
 Frc consts  --      2.2946                 0.6164                 0.7787
 IR Inten    --     12.6379                 3.7932                43.7497

                     10                     11                     12
                     A'                     A'                     A'
 Frequencies --   1455.0732              2411.5716              2967.0012
 Red. masses --      6.3705                 1.0429                 1.0854
 Frc consts  --      7.9468                 3.5735                 5.6298
 IR Inten    --    797.7279               208.3066               226.1715

 - Thermochemistry -
 -------------------
 Temperature   298.150 Kelvin.  Pressure   1.00000 Atm.
 Atom     1 has atomic number 16 and mass  31.97207

 Molecular mass:    89.95979 amu.
 Principal axes and moments of inertia in atomic units:
                           1         2         3
     Eigenvalues --    51.76720 755.04418 806.81137
           X            0.99281  -0.11971   0.00000
           Y            0.11971   0.99281  -0.00000
           Z           -0.00000   0.00000   1.00000
 This molecule is an asymmetric top.
 Rotational symmetry number  1.
 Rotational temperatures (Kelvin)      1.67314     0.11471     0.10735
 Rotational constants (GHZ):          34.86264     2.39025     2.23688
 Zero-point vibrational energy      71889.1 (Joules/Mol)
                                   17.18190 (Kcal/Mol)
 Warning -- explicit consideration of   4 degrees of freedom as
           vibrations may cause significant error
 Vibrational temperatures:    175.80   264.35   425.57   618.12   947.77
          (Kelvin)            949.32  1207.75  1341.08  1530.69  2093.52
                             3469.71  4268.85

 Zero-point correction=                           0.027381 (Hartree/Particle)
 Thermal correction to Energy=                    0.032611
 Thermal correction to Enthalpy=                  0.033555
 Thermal correction to Gibbs Free Energy=        -0.001187
 Sum of electronic and zero-point Energies=           -872.770499
 Sum of electronic and thermal Energies=              -872.765269
 Sum of electronic and thermal Enthalpies=            -872.764325
 Sum of electronic and thermal Free Energies=         -872.799068

                     E (Thermal)             CV                S
                      KCal/Mol        Cal/Mol-Kelvin    Cal/Mol-Kelvin
 Total                   20.464             16.108             73.121
 Electronic               0.000              0.000              0.000
 Translational            0.889              2.981             39.403
 Rotational               0.889              2.981             24.959
 Vibrational             18.686             10.146              8.760
 Vibration     1          0.610              1.931              3.066
 Vibration     2          0.631              1.862              2.290
 Vibration     3          0.690              1.682              1.441
 Vibration     4          0.791              1.406              0.860

 Optimization completed.
    -- Stationary point found.
 Normal termination of Gaussian 09 at Wed Aug  3 22:51:11 2016.
