 Gaussian 09, Revision E.01,
 Gaussian 09:  EM64L-G09RevE.01 30-Nov-2015

 ------------------------------
 #p b3lyp/6-311++G(3df,2p) freq
 ------------------------------

 ---------
 b3lyp opt
 ---------
 Symbolic Z-matrix:
 Charge =  1 Multiplicity = 2

                         Standard orientation:
 ---------------------------------------------------------------------
 Center     Atomic      Atomic             Coordinates (Angstroms)
 Number     Number       Type             X           Y           Z
 ---------------------------------------------------------------------
      1         16           0       -0.000000    0.853946    0.000000
      2         16           0       -1.592829   -0.449124   -0.000000
      3          6           0        2.456176   -0.584642    0.000000
      4          6           0        1.366506   -0.053888    0.000000
      5          1           0        3.414805   -1.058750    0.000000
      6          1           0       -0.865634   -1.587218   -0.000000
 ---------------------------------------------------------------------

 SCF Done:  E(UB3LYP) =  -873.494821711     A.U. after   17 cycles

 The electronic state is 2-A".
 Alpha  occ. eigenvalues --  -89.17631 -89.13648 -10.43640 -10.42994  -8.25584
 Alpha  occ. eigenvalues --   -8.21967  -6.21807  -6.21702  -6.21396  -6.18277
 Alpha  occ. eigenvalues --   -6.17829  -6.17803  -1.10014  -1.00173  -0.93990
 Alpha  occ. eigenvalues --   -0.77290  -0.73048  -0.63698  -0.62306  -0.62215
 Alpha  occ. eigenvalues --   -0.53741  -0.52366  -0.47355
 Alpha virt. eigenvalues --   -0.29787  -0.23957  -0.20365  -0.18982  -0.15606
 Alpha virt. eigenvalues --   -0.13214  -0.11455  -0.09662  -0.09311  -0.09054
 Alpha virt. eigenvalues --   -0.08474  -0.07488  -0.06330  -0.05555  -0.05468

  Beta  occ. eigenvalues --  -89.17298 -89.13406 -10.43244 -10.43032  -8.25282
  Beta  occ. eigenvalues --   -8.21748  -6.21617  -6.21222  -6.20671  -6.18149
  Beta  occ. eigenvalues --   -6.17675  -6.17066  -1.08968  -0.99184  -0.92379
  Beta  occ. eigenvalues --   -0.76728  -0.72714  -0.63095  -0.61539  -0.59337
  Beta  occ. eigenvalues --   -0.51979  -0.50548
  Beta virt. eigenvalues --   -0.38823  -0.29074  -0.23616  -0.18734  -0.18663
  Beta virt. eigenvalues --   -0.15288  -0.12904  -0.11326  -0.09445  -0.09176
  Beta virt. eigenvalues --   -0.08825  -0.08141  -0.07038  -0.06236  -0.05311

 Mulliken charges and spin densities:
               1          2
     1  S   -0.178191   0.485264
     2  S    0.173736   0.342399
     3  C    0.631815   0.256926
     4  C   -0.225137  -0.069689
     5  H    0.386776  -0.009060
     6  H    0.211001  -0.005839
 Sum of Mulliken charges =   1.00000   1.00000

 Dipole moment (field-independent basis, Debye):
    X=              1.4633    Y=             -1.5818    Z=              0.0000  Tot=              2.1548
 Quadrupole moment (field-independent basis, Debye-Ang):
   XX=            -14.2675   YY=            -27.9213   ZZ=            -35.7659
   XY=             -2.2427   XZ=              0.0000   YZ=              0.0000

  Exact polarizability: 108.173  -0.001  50.262  -0.001  -0.000  36.116
 Approx polarizability: 225.270  -0.443  93.563   0.000   0.000  56.451

                      1                      2                      3
                     A'                     A"                     A"
 Frequencies --    148.6137               194.4886               306.9459
 Red. masses --      5.2900                 1.1043                 4.8793
 Frc consts  --      0.0688                 0.0246                 0.2709
 IR Inten    --      1.2676                14.8926                14.0295

                      4                      5                      6
                     A'                     A'                     A"
 Frequencies --    380.6855               518.1379               709.9171
 Red. masses --      6.8572                25.0854                 1.2895
 Frc consts  --      0.5855                 3.9679                 0.3829
 IR Inten    --     16.2531                19.0942                28.0982

                      7                      8                      9
                     A'                     A'                     A'
 Frequencies --    763.2234               770.7019               874.0773
 Red. masses --      4.1684                 1.4318                 1.1589
 Frc consts  --      1.4306                 0.5011                 0.5217
 IR Inten    --     25.2232                29.6767                 5.5143

                     10                     11                     12
                     A'                     A'                     A'
 Frequencies --   2056.8919              2633.1858              3393.5987
 Red. masses --      6.0650                 1.0390                 1.1549
 Frc consts  --     15.1183                 4.2447                 7.8363
 IR Inten    --    366.5237                36.0979               118.9822

 - Thermochemistry -
 -------------------
 Temperature   298.150 Kelvin.  Pressure   1.00000 Atm.
 Atom     1 has atomic number 16 and mass  31.97207

 Molecular mass:    89.95979 amu.
 Principal axes and moments of inertia in atomic units:
                           1         2         3
     Eigenvalues --   133.73451 672.79103 806.52553
           X            0.99986  -0.01703   0.00000
           Y            0.01703   0.99986   0.00000
           Z            0.00000  -0.00000   1.00000
 This molecule is an asymmetric top.
 Rotational symmetry number  1.
 Rotational temperatures (Kelvin)      0.64765     0.12874     0.10739
 Rotational constants (GHZ):          13.49496     2.68247     2.23767
 Zero-point vibrational energy      76264.7 (Joules/Mol)
                                   18.22771 (Kcal/Mol)
 Warning -- explicit consideration of   5 degrees of freedom as
           vibrations may cause significant error
 Vibrational temperatures:    213.82   279.83   441.63   547.72   745.48
          (Kelvin)           1021.41  1098.11  1108.87  1257.60  2959.40
                             3788.56  4882.63

 Zero-point correction=                           0.029048 (Hartree/Particle)
 Thermal correction to Energy=                    0.034392
 Thermal correction to Enthalpy=                  0.035337
 Thermal correction to Gibbs Free Energy=        -0.000485
 Sum of electronic and zero-point Energies=           -873.465774
 Sum of electronic and thermal Energies=              -873.460429
 Sum of electronic and thermal Enthalpies=            -873.459485
 Sum of electronic and thermal Free Energies=         -873.495307

                     E (Thermal)             CV                S
                      KCal/Mol        Cal/Mol-Kelvin    Cal/Mol-Kelvin
 Total                   21.582             16.866             75.394
 Electronic               0.000              0.000              1.377
 Translational            0.889              2.981             39.403
 Rotational               0.889              2.981             25.787
 Vibrational             19.804             10.904              8.826
 Vibration     1          0.618              1.904              2.690
 Vibration     2          0.635              1.848              2.185
 Vibration     3          0.697              1.661              1.379
 Vibration     4          0.750              1.511              1.036
 Vibration     5          0.873              1.210              0.614

 Normal termination of Gaussian 09 at Wed Aug  3 22:52:12 2016.
