 Gaussian 09, Revision E.01,
 Gaussian 09:  EM64L-G09RevE.01 30-Nov-2015

 ------------------------------
 #p b3lyp/6-311++G(3df,2p) freq
 ------------------------------

 ---------
 b3lyp opt
 ---------
 Symbolic Z-matrix:
 Charge =  1 Multiplicity = 2

                         Standard orientation:
 ---------------------------------------------------------------------
 Center     Atomic      Atomic             Coordinates (Angstroms)
 Number     Number       Type             X           Y           Z
 ---------------------------------------------------------------------
      1         16           0       -0.000000    0.000000    0.796805
      2          6           0        0.000000    0.649269   -0.839288
      3          6           0       -0.000000   -0.649269   -0.839288
      4          1           0       -0.000000    1.606630   -1.338708
      5          1           0       -0.000000   -1.606630   -1.338708
 ---------------------------------------------------------------------

 SCF Done:  E(UB3LYP) =  -475.265284188     A.U. after   12 cycles

 The electronic state is 2-B1.
 Alpha  occ. eigenvalues --  -89.18208 -10.51226 -10.51120  -8.26260  -6.22667
 Alpha  occ. eigenvalues --   -6.22336  -6.22026  -1.19481  -0.91763  -0.85516
 Alpha  occ. eigenvalues --   -0.77962  -0.67274  -0.64626  -0.61601  -0.49885
 Alpha virt. eigenvalues --   -0.29735  -0.26903  -0.21378  -0.15421  -0.13800
 Alpha virt. eigenvalues --   -0.13670  -0.11271  -0.08846  -0.07834  -0.07497
 Alpha virt. eigenvalues --   -0.05636  -0.05294  -0.04840  -0.04535  -0.01210

  Beta  occ. eigenvalues --  -89.17703 -10.50968 -10.50865  -8.25803  -6.22073
  Beta  occ. eigenvalues --   -6.21720  -6.21104  -1.18377  -0.89125  -0.85089
  Beta  occ. eigenvalues --   -0.77395  -0.63592  -0.63498  -0.60999
  Beta virt. eigenvalues --   -0.38551  -0.27973  -0.26336  -0.20227  -0.15288
  Beta virt. eigenvalues --   -0.13650  -0.13527  -0.11098  -0.08738  -0.07850
  Beta virt. eigenvalues --   -0.07431  -0.05249  -0.04416  -0.04401  -0.04379

 Mulliken charges and spin densities:
               1          2
     1  S    0.401400   0.747788
     2  C   -0.018665   0.135607
     3  C   -0.018665   0.135607
     4  H    0.317965  -0.009501
     5  H    0.317965  -0.009501
 Sum of Mulliken charges =   1.00000   1.00000

 Dipole moment (field-independent basis, Debye):
    X=             -0.0000    Y=             -0.0000    Z=             -1.6400  Tot=              1.6400
 Quadrupole moment (field-independent basis, Debye-Ang):
   XX=            -22.2125   YY=            -15.1170   ZZ=            -15.1770
   XY=              0.0000   XZ=              0.0000   YZ=             -0.0000

  Exact polarizability:  22.477   0.000  32.355   0.000   0.000  39.938
 Approx polarizability:  34.111   0.000  56.487  -0.000  -0.000  73.388

                      1                      2                      3
                     B2                     B1                     A1
 Frequencies --    656.6387               724.9260               760.1448
 Red. masses --      5.4822                 1.1440                10.7016
 Frc consts  --      1.3927                 0.3542                 3.6433
 IR Inten    --      1.9361                66.0974                 1.9827

                      4                      5                      6
                     A2                     A1                     B2
 Frequencies --    846.5354               940.9087               989.5380
 Red. masses --      1.4629                 1.0647                 1.2818
 Frc consts  --      0.6177                 0.5553                 0.7395
 IR Inten    --      0.0000                10.5472                41.8844

                      7                      8                      9
                     A1                     B2                     A1
 Frequencies --   1639.8744              3227.0065              3277.0413
 Red. masses --      5.1718                 1.0870                 1.1493
 Frc consts  --      8.1943                 6.6692                 7.2716
 IR Inten    --      8.2202               161.3794                50.6722

 - Thermochemistry -
 -------------------
 Temperature   298.150 Kelvin.  Pressure   1.00000 Atm.
 Atom     1 has atomic number 16 and mass  31.97207

 Molecular mass:    57.98772 amu.
 Principal axes and moments of inertia in atomic units:
                           1         2         3
     Eigenvalues --    54.70910 145.33298 200.04208
           X           -0.00000   0.00000   1.00000
           Y           -0.00000   1.00000  -0.00000
           Z            1.00000   0.00000   0.00000
 This molecule is an asymmetric top.
 Rotational symmetry number  2.
 Rotational temperatures (Kelvin)      1.58317     0.59597     0.43298
 Rotational constants (GHZ):          32.98795    12.41797     9.02181
 Zero-point vibrational energy      78131.8 (Joules/Mol)
                                   18.67394 (Kcal/Mol)
 Vibrational temperatures:    944.76  1043.01  1093.68  1217.97  1353.76
          (Kelvin)           1423.72  2359.41  4642.94  4714.93

 Zero-point correction=                           0.029759 (Hartree/Particle)
 Thermal correction to Energy=                    0.033070
 Thermal correction to Enthalpy=                  0.034014
 Thermal correction to Gibbs Free Energy=         0.004859
 Sum of electronic and zero-point Energies=           -475.235525
 Sum of electronic and thermal Energies=              -475.232214
 Sum of electronic and thermal Enthalpies=            -475.231270
 Sum of electronic and thermal Free Energies=         -475.260425

                     E (Thermal)             CV                S
                      KCal/Mol        Cal/Mol-Kelvin    Cal/Mol-Kelvin
 Total                   20.752              9.835             61.362
 Electronic               0.000              0.000              1.377
 Translational            0.889              2.981             38.094
 Rotational               0.889              2.981             20.614
 Vibrational             18.974              3.874              1.277

 Optimization completed.
    -- Stationary point found.
 Normal termination of Gaussian 09 at Wed Aug  3 23:00:11 2016.
