 Gaussian 09, Revision E.01,
 Gaussian 09:  EM64L-G09RevE.01 30-Nov-2015

 ------------------------------
 #p b3lyp/6-311++G(3df,2p) freq
 ------------------------------

 ---------
 b3lyp opt
 ---------
 Symbolic Z-matrix:
 Charge =  1 Multiplicity = 4

                         Standard orientation:
 ---------------------------------------------------------------------
 Center     Atomic      Atomic             Coordinates (Angstroms)
 Number     Number       Type             X           Y           Z
 ---------------------------------------------------------------------
      1         16           0       -0.000000   -1.561010   -0.314308
      2         16           0        0.000000    1.561010   -0.314308
      3          6           0       -0.000000    0.000000    0.414290
      4          6           0       -0.000000    0.000000    1.797379
      5          1           0        0.000000    1.170851   -1.606075
      6          1           0       -0.000000   -1.170851   -1.606075
 ---------------------------------------------------------------------

 SCF Done:  E(UB3LYP) =  -873.352207613     A.U. after   16 cycles

 The electronic state is 4-A2.
 Alpha  occ. eigenvalues --  -89.12271 -89.12271 -10.52617 -10.51644  -8.20703
 Alpha  occ. eigenvalues --   -8.20702  -6.17027  -6.17027  -6.16547  -6.16547
 Alpha  occ. eigenvalues --   -6.16477  -6.16477  -1.11687  -0.99862  -0.96365
 Alpha  occ. eigenvalues --   -0.75593  -0.72899  -0.64800  -0.63068  -0.62352
 Alpha  occ. eigenvalues --   -0.57620  -0.51074  -0.49081  -0.48988
 Alpha virt. eigenvalues --   -0.27609  -0.24834  -0.18038  -0.16201  -0.15068
 Alpha virt. eigenvalues --   -0.13554  -0.10091  -0.09576  -0.09393  -0.08690
 Alpha virt. eigenvalues --   -0.06767  -0.06186  -0.05916  -0.05636  -0.04119

  Beta  occ. eigenvalues --  -89.12078 -89.12078 -10.52463 -10.47357  -8.20521
  Beta  occ. eigenvalues --   -8.20519  -6.16832  -6.16832  -6.16426  -6.16426
  Beta  occ. eigenvalues --   -6.15998  -6.15998  -1.09542  -0.98707  -0.91077
  Beta  occ. eigenvalues --   -0.71540  -0.71525  -0.63497  -0.60344  -0.57019
  Beta  occ. eigenvalues --   -0.48557
  Beta virt. eigenvalues --   -0.40621  -0.37839  -0.30140  -0.24470  -0.21594
  Beta virt. eigenvalues --   -0.17685  -0.15742  -0.13060  -0.13025  -0.09434
  Beta virt. eigenvalues --   -0.09320  -0.09135  -0.07626  -0.06062  -0.05388

 Mulliken charges and spin densities:
               1          2
     1  S   -0.035625   0.292270
     2  S   -0.035625   0.292270
     3  C    0.548729  -0.033482
     4  C    0.164725   2.417398
     5  H    0.178898   0.015772
     6  H    0.178898   0.015772
 Sum of Mulliken charges =   1.00000   3.00000

 Dipole moment (field-independent basis, Debye):
    X=              0.0000    Y=             -0.0000    Z=             -0.9943  Tot=              0.9943
 Quadrupole moment (field-independent basis, Debye-Ang):
   XX=            -36.3321   YY=            -25.9743   ZZ=            -23.6054
   XY=             -0.0000   XZ=              0.0000   YZ=             -0.0000

  Exact polarizability:  36.725   0.000  89.515  -0.000   0.000  62.461
 Approx polarizability:  58.070   0.000 175.393  -0.000   0.000 114.557

                      1                      2                      3
                     A2                     A1                     B2
 Frequencies --    264.4619               294.5305               351.1998
 Red. masses --      1.0251                 6.0824                12.6991
 Frc consts  --      0.0422                 0.3109                 0.9229
 IR Inten    --      0.0000                 3.7913                 9.3959

                      4                      5                      6
                     B1                     B1                     A1
 Frequencies --    367.6284               494.6450               566.9155
 Red. masses --      1.2178                 7.5601                15.5725
 Frc consts  --      0.0970                 1.0898                 2.9488
 IR Inten    --     26.1268                10.2678                 7.4094

                      7                      8                      9
                     B2                     A1                     B2
 Frequencies --    886.7283               982.8295              1030.8335
 Red. masses --      1.4656                 1.2212                 2.8963
 Frc consts  --      0.6790                 0.6950                 1.8133
 IR Inten    --     22.3821                24.2915                56.6301

                     10                     11                     12
                     A1                     B2                     A1
 Frequencies --   1260.8302              2628.4790              2639.8068
 Red. masses --      7.3371                 1.0391                 1.0382
 Frc consts  --      6.8721                 4.2296                 4.2627
 IR Inten    --     10.7914                16.0100                30.0734

 - Thermochemistry -
 -------------------
 Temperature   298.150 Kelvin.  Pressure   1.00000 Atm.
 Atom     1 has atomic number 16 and mass  31.97207

 Molecular mass:    89.95979 amu.
 Principal axes and moments of inertia in atomic units:
                           1         2         3
     Eigenvalues --   186.51204 566.29685 752.80889
           X            0.00000   0.00000   1.00000
           Y            1.00000   0.00000  -0.00000
           Z           -0.00000   1.00000  -0.00000
 This molecule is an asymmetric top.
 Rotational symmetry number  2.
 Rotational temperatures (Kelvin)      0.46439     0.15295     0.11505
 Rotational constants (GHZ):           9.67627     3.18692     2.39734
 Zero-point vibrational energy      70393.6 (Joules/Mol)
                                   16.82447 (Kcal/Mol)
 Warning -- explicit consideration of   6 degrees of freedom as
           vibrations may cause significant error
 Vibrational temperatures:    380.50   423.76   505.30   528.93   711.68
          (Kelvin)            815.66  1275.80  1414.07  1483.14  1814.05
                             3781.79  3798.09

 Zero-point correction=                           0.026812 (Hartree/Particle)
 Thermal correction to Energy=                    0.031789
 Thermal correction to Enthalpy=                  0.032733
 Thermal correction to Gibbs Free Energy=        -0.002205
 Sum of electronic and zero-point Energies=           -873.325396
 Sum of electronic and thermal Energies=              -873.320419
 Sum of electronic and thermal Enthalpies=            -873.319474
 Sum of electronic and thermal Free Energies=         -873.354412

                     E (Thermal)             CV                S
                      KCal/Mol        Cal/Mol-Kelvin    Cal/Mol-Kelvin
 Total                   19.948             16.290             73.533
 Electronic               0.000              0.000              2.755
 Translational            0.889              2.981             39.403
 Rotational               0.889              2.981             24.501
 Vibrational             18.170             10.328              6.875
 Vibration     1          0.671              1.738              1.632
 Vibration     2          0.689              1.684              1.448
 Vibration     3          0.728              1.573              1.161
 Vibration     4          0.740              1.539              1.090
 Vibration     5          0.850              1.262              0.672
 Vibration     6          0.923              1.103              0.510

 Optimization completed.
    -- Stationary point found.
 Normal termination of Gaussian 09 at Wed Aug  3 22:51:32 2016.
