 Gaussian 09, Revision E.01,
 Gaussian 09:  EM64L-G09RevE.01 30-Nov-2015

 ------------------------------
 #p b3lyp/6-311++G(3df,2p) freq
 ------------------------------

 ---------
 b3lyp opt
 ---------
 Symbolic Z-matrix:
 Charge =  0 Multiplicity = 3

                         Standard orientation:
 ---------------------------------------------------------------------
 Center     Atomic      Atomic             Coordinates (Angstroms)
 Number     Number       Type             X           Y           Z
 ---------------------------------------------------------------------
      1         16           0       -0.922548   -1.486312    0.000000
      2         16           0        1.596413    1.055082   -0.000000
      3          6           0        0.000000    1.088605   -0.000000
      4          6           0       -1.076014    0.250759    0.000000
      5          1           0       -2.089234    0.632213    0.000000
      6          1           0       -2.236527   -1.768718    0.000000
 ---------------------------------------------------------------------

 SCF Done:  E(UB3LYP) =  -873.789990834     A.U. after   16 cycles

 The electronic state is 3-A".
 Alpha  occ. eigenvalues --  -88.90151 -88.86181 -10.25245 -10.22349  -7.98687
 Alpha  occ. eigenvalues --   -7.94682  -5.94972  -5.94596  -5.94452  -5.90946
 Alpha  occ. eigenvalues --   -5.90809  -5.90468  -0.86160  -0.79099  -0.70381
 Alpha  occ. eigenvalues --   -0.54376  -0.50017  -0.43136  -0.39206  -0.39035
 Alpha  occ. eigenvalues --   -0.32619  -0.31901  -0.23646  -0.19447
 Alpha virt. eigenvalues --   -0.03591  -0.02759  -0.00410   0.01793   0.02627
 Alpha virt. eigenvalues --    0.04026   0.04245   0.05279   0.05841   0.06906
 Alpha virt. eigenvalues --    0.08628   0.08792   0.08853   0.09194   0.11741

  Beta  occ. eigenvalues --  -88.89961 -88.85718 -10.24527 -10.21354  -7.98510
  Beta  occ. eigenvalues --   -7.94261  -5.94808  -5.94432  -5.93984  -5.90442
  Beta  occ. eigenvalues --   -5.90051  -5.89776  -0.84262  -0.77419  -0.67960
  Beta  occ. eigenvalues --   -0.52713  -0.48780  -0.41148  -0.37914  -0.35856
  Beta  occ. eigenvalues --   -0.28964  -0.28670
  Beta virt. eigenvalues --   -0.15053  -0.08558  -0.03360   0.00157   0.00294
  Beta virt. eigenvalues --    0.02011   0.02843   0.04382   0.04455   0.05466
  Beta virt. eigenvalues --    0.05987   0.07128   0.08977   0.09218   0.09375

 Mulliken charges and spin densities:
               1          2
     1  S   -0.208165   0.322934
     2  S   -0.105653   0.735476
     3  C   -0.095762   0.591882
     4  C    0.080578   0.367118
     5  H    0.184980  -0.016088
     6  H    0.144022  -0.001322
 Sum of Mulliken charges =  -0.00000   2.00000

 Dipole moment (field-independent basis, Debye):
    X=             -2.7585    Y=             -1.6950    Z=              0.0000  Tot=              3.2376
 Quadrupole moment (field-independent basis, Debye-Ang):
   XX=            -32.9510   YY=            -39.5461   ZZ=            -39.7033
   XY=              1.3125   XZ=              0.0000   YZ=              0.0000

  Exact polarizability:  96.317  26.642  85.957   0.000   0.000  45.865
 Approx polarizability: 173.962  41.312 138.785  -0.000  -0.000  71.947

                      1                      2                      3
                     A'                     A"                     A"
 Frequencies --    128.8133               283.3095               434.6830
 Red. masses --     17.2126                 1.3400                 2.4031
 Frc consts  --      0.1683                 0.0634                 0.2675
 IR Inten    --      0.5338                22.5945                 0.0259

                      4                      5                      6
                     A'                     A'                     A"
 Frequencies --    486.5816               712.8003               715.8256
 Red. masses --      7.7511                 4.4209                 1.3721
 Frc consts  --      1.0812                 1.3234                 0.4142
 IR Inten    --      7.9788                17.7828                14.9456

                      7                      8                      9
                     A'                     A'                     A'
 Frequencies --    871.9100               963.4272              1270.3811
 Red. masses --      4.7106                 1.3277                 1.1792
 Frc consts  --      2.1100                 0.7261                 1.1213
 IR Inten    --    103.4324                 0.6595                19.3181

                     10                     11                     12
                     A'                     A'                     A'
 Frequencies --   1450.6825              2666.3275              3157.1532
 Red. masses --     10.2913                 1.0387                 1.0874
 Frc consts  --     12.7604                 4.3508                 6.3863
 IR Inten    --     10.8168                 0.6331                 0.2606

 - Thermochemistry -
 -------------------
 Temperature   298.150 Kelvin.  Pressure   1.00000 Atm.
 Atom     1 has atomic number 16 and mass  31.97207

 Molecular mass:    89.95979 amu.
 Principal axes and moments of inertia in atomic units:
                           1         2         3
     Eigenvalues --   111.27758 804.92254 916.20012
           X            0.71989  -0.69409   0.00000
           Y            0.69409   0.71989   0.00000
           Z           -0.00000  -0.00000   1.00000
 This molecule is an asymmetric top.
 Rotational symmetry number  1.
 Rotational temperatures (Kelvin)      0.77836     0.10761     0.09454
 Rotational constants (GHZ):          16.21837     2.24213     1.96981
 Zero-point vibrational energy      78606.0 (Joules/Mol)
                                   18.78728 (Kcal/Mol)
 Warning -- explicit consideration of   4 degrees of freedom as
           vibrations may cause significant error
 Vibrational temperatures:    185.33   407.62   625.41   700.08  1025.56
          (Kelvin)           1029.91  1254.48  1386.16  1827.79  2087.21
                             3836.25  4542.43

 Zero-point correction=                           0.029939 (Hartree/Particle)
 Thermal correction to Energy=                    0.034741
 Thermal correction to Enthalpy=                  0.035685
 Thermal correction to Gibbs Free Energy=         0.000336
 Sum of electronic and zero-point Energies=           -873.760051
 Sum of electronic and thermal Energies=              -873.755250
 Sum of electronic and thermal Enthalpies=            -873.754306
 Sum of electronic and thermal Free Energies=         -873.789654

                     E (Thermal)             CV                S
                      KCal/Mol        Cal/Mol-Kelvin    Cal/Mol-Kelvin
 Total                   21.800             15.081             74.398
 Electronic               0.000              0.000              2.183
 Translational            0.889              2.981             39.403
 Rotational               0.889              2.981             25.909
 Vibrational             20.023              9.119              6.902
 Vibration     1          0.611              1.924              2.964
 Vibration     2          0.682              1.705              1.514
 Vibration     3          0.795              1.395              0.843
 Vibration     4          0.843              1.280              0.693

 Optimization completed.
    -- Stationary point found.
 Normal termination of Gaussian 09 at Wed Aug  3 23:02:03 2016.
