 Gaussian 09, Revision E.01,
 Gaussian 09:  EM64L-G09RevE.01 30-Nov-2015

 ------------------------------
 #p b3lyp/6-311++G(3df,2p) freq
 ------------------------------

 ---------
 b3lyp opt
 ---------
 Symbolic Z-matrix:
 Charge =  2 Multiplicity = 1

                         Standard orientation:
 ---------------------------------------------------------------------
 Center     Atomic      Atomic             Coordinates (Angstroms)
 Number     Number       Type             X           Y           Z
 ---------------------------------------------------------------------
      1         16           0       -0.000000    0.527630    0.000000
      2         16           0       -1.711125   -0.191933   -0.000000
      3          6           0        1.431481   -0.219259    0.000000
      4          6           0        2.517981   -0.779810    0.000000
      5          1           0        3.486296   -1.268996    0.000000
      6          1           0        0.194939    1.892259    0.000000
 ---------------------------------------------------------------------

 SCF Done:  E(RB3LYP) =  -872.886947247     A.U. after   15 cycles

 The electronic state is 1-A'.
 Alpha  occ. eigenvalues --  -89.48234 -89.39169 -10.70022 -10.66769  -8.55702
 Alpha  occ. eigenvalues --   -8.47034  -6.51858  -6.51781  -6.51694  -6.43401
 Alpha  occ. eigenvalues --   -6.43334  -6.42246  -1.38543  -1.24300  -1.17072
 Alpha  occ. eigenvalues --   -1.03287  -0.96072  -0.92990  -0.87712  -0.76920
 Alpha  occ. eigenvalues --   -0.75553  -0.74735
 Alpha virt. eigenvalues --   -0.63347  -0.51845  -0.48393  -0.42587  -0.41226
 Alpha virt. eigenvalues --   -0.34821  -0.32601  -0.30513  -0.27860  -0.26297
 Alpha virt. eigenvalues --   -0.26028  -0.24891  -0.22305  -0.21968  -0.21581

 Mulliken charges:
               1
     1  S   -0.021294
     2  S    0.599901
     3  C   -0.069916
     4  C    0.725320
     5  H    0.449022
     6  H    0.316966
 Sum of Mulliken charges =   2.00000

 Dipole moment (field-independent basis, Debye):
    X=              3.3312    Y=              0.5590    Z=              0.0000  Tot=              3.3777
 Quadrupole moment (field-independent basis, Debye-Ang):
   XX=              7.3246   YY=            -21.9387   ZZ=            -30.5701
   XY=             -6.6033   XZ=              0.0000   YZ=             -0.0000

  Exact polarizability: 104.394  -9.512  42.154  -0.001   0.000  29.600
 Approx polarizability: 318.858 -23.084  75.050   0.000  -0.000  48.687

                      1                      2                      3
                     A'                     A"                     A'
 Frequencies --    139.8458               232.6620               366.3968
 Red. masses --      5.2156                 3.5851                 8.4439
 Frc consts  --      0.0601                 0.1143                 0.6679
 IR Inten    --      8.9765                33.4362                23.6557

                      4                      5                      6
                     A"                     A'                     A'
 Frequencies --    411.1556               640.2187               810.1336
 Red. masses --      1.3449                13.8669                 1.2814
 Frc consts  --      0.1340                 3.3488                 0.4955
 IR Inten    --     35.4460                 4.6192                22.0812

                      7                      8                      9
                     A"                     A'                     A'
 Frequencies --    837.9072               854.8896               993.3018
 Red. masses --      1.3134                 8.1565                 1.1226
 Frc consts  --      0.5433                 3.5121                 0.6526
 IR Inten    --     12.2668                18.8122                10.0631

                     10                     11                     12
                     A'                     A'                     A'
 Frequencies --   2068.0021              2398.5150              3256.8035
 Red. masses --      5.6296                 1.0435                 1.1756
 Frc consts  --     14.1850                 3.5371                 7.3466
 IR Inten    --    959.9302               243.7589               207.3823

 - Thermochemistry -
 -------------------
 Temperature   298.150 Kelvin.  Pressure   1.00000 Atm.
 Atom     1 has atomic number 16 and mass  31.97207

 Molecular mass:    89.95979 amu.
 Principal axes and moments of inertia in atomic units:
                           1         2         3
     Eigenvalues --    74.34037 745.60548 819.94585
           X            0.99370   0.11211   0.00000
           Y           -0.11211   0.99370   0.00000
           Z           -0.00000   0.00000   1.00000
 This molecule is an asymmetric top.
 Rotational symmetry number  1.
 Rotational temperatures (Kelvin)      1.16510     0.11617     0.10563
 Rotational constants (GHZ):          24.27673     2.42050     2.20105
 Zero-point vibrational energy      77816.1 (Joules/Mol)
                                   18.59849 (Kcal/Mol)
 Warning -- explicit consideration of   4 degrees of freedom as
           vibrations may cause significant error
 Vibrational temperatures:    201.21   334.75   527.16   591.56   921.13
          (Kelvin)           1165.60  1205.56  1229.99  1429.14  2975.39
                             3450.92  4685.81

 Zero-point correction=                           0.029639 (Hartree/Particle)
 Thermal correction to Energy=                    0.034671
 Thermal correction to Enthalpy=                  0.035615
 Thermal correction to Gibbs Free Energy=         0.001199
 Sum of electronic and zero-point Energies=           -872.857309
 Sum of electronic and thermal Energies=              -872.852276
 Sum of electronic and thermal Enthalpies=            -872.851332
 Sum of electronic and thermal Free Energies=         -872.885748

                     E (Thermal)             CV                S
                      KCal/Mol        Cal/Mol-Kelvin    Cal/Mol-Kelvin
 Total                   21.756             15.787             72.434
 Electronic               0.000              0.000              0.000
 Translational            0.889              2.981             39.403
 Rotational               0.889              2.981             25.322
 Vibrational             19.979              9.825              7.709
 Vibration     1          0.615              1.913              2.806
 Vibration     2          0.653              1.791              1.858
 Vibration     3          0.739              1.541              1.095
 Vibration     4          0.775              1.446              0.923

 Optimization completed.
    -- Stationary point found.
 Normal termination of Gaussian 09 at Wed Aug  3 22:55:49 2016.
