 Gaussian 09, Revision E.01,
 Gaussian 09:  EM64L-G09RevE.01 30-Nov-2015

 ------------------------------
 #p b3lyp/6-311++G(3df,2p) freq
 ------------------------------

 ---------
 b3lyp opt
 ---------
 Symbolic Z-matrix:
 Charge =  1 Multiplicity = 2

                         Standard orientation:
 ---------------------------------------------------------------------
 Center     Atomic      Atomic             Coordinates (Angstroms)
 Number     Number       Type             X           Y           Z
 ---------------------------------------------------------------------
      1         16           0       -1.573102   -0.437568   -0.008895
      2         16           0        1.643618   -0.203972   -0.092411
      3          6           0       -0.037049    0.276690    0.039878
      4          6           0       -0.833980    1.356077    0.025524
      5          1           0        2.198872    1.030319    0.033283
      6          1           0        1.899035   -0.562278    1.195198
 ---------------------------------------------------------------------

 SCF Done:  E(UB3LYP) =  -873.407742256     A.U. after   19 cycles

 The electronic state is 2-A.
 Alpha  occ. eigenvalues --  -89.20525 -89.12021 -10.46889 -10.44046  -8.28776
 Alpha  occ. eigenvalues --   -8.20127  -6.24932  -6.24862  -6.24414  -6.16550
 Alpha  occ. eigenvalues --   -6.16227  -6.15830  -1.13700  -1.07200  -0.86090
 Alpha  occ. eigenvalues --   -0.79762  -0.74794  -0.66191  -0.63629  -0.59761
 Alpha  occ. eigenvalues --   -0.54342  -0.47296  -0.44746
 Alpha virt. eigenvalues --   -0.27467  -0.26510  -0.24506  -0.22486  -0.19555
 Alpha virt. eigenvalues --   -0.16280  -0.12263  -0.11746  -0.11085  -0.09385
 Alpha virt. eigenvalues --   -0.08296  -0.08022  -0.06768  -0.05679  -0.04790

  Beta  occ. eigenvalues --  -89.20534 -89.11539 -10.46554 -10.43908  -8.28782
  Beta  occ. eigenvalues --   -8.19690  -6.24950  -6.24871  -6.24418  -6.15974
  Beta  occ. eigenvalues --   -6.15527  -6.15067  -1.12936  -1.06706  -0.83652
  Beta  occ. eigenvalues --   -0.79424  -0.74459  -0.65505  -0.62622  -0.56449
  Beta  occ. eigenvalues --   -0.53684  -0.46834
  Beta virt. eigenvalues --   -0.34186  -0.26751  -0.26189  -0.24043  -0.21655
  Beta virt. eigenvalues --   -0.19102  -0.15723  -0.12158  -0.11625  -0.10977
  Beta virt. eigenvalues --   -0.09196  -0.08159  -0.07808  -0.06522  -0.05619

 Mulliken charges and spin densities:
               1          2
     1  S    0.189247   0.744314
     2  S    0.035411  -0.011876
     3  C    0.573540   0.165150
     4  C   -0.296605   0.081183
     5  H    0.251486  -0.001507
     6  H    0.246921   0.022736
 Sum of Mulliken charges =   1.00000   1.00000

 Dipole moment (field-independent basis, Debye):
    X=              5.1882    Y=             -1.6675    Z=              0.9245  Tot=              5.5275
 Quadrupole moment (field-independent basis, Debye-Ang):
   XX=            -16.4317   YY=            -35.5292   ZZ=            -32.8886
   XY=              3.8826   XZ=              2.2757   YZ=             -1.0765

  Exact polarizability:  76.800   3.288  54.947   1.938  -0.717  38.663
 Approx polarizability: 131.757  14.087 109.921   3.119  -1.534  64.132

                      1                      2                      3
                      A                      A                      A
 Frequencies --    136.1175               224.7941               260.3824
 Red. masses --      1.1308                 8.5646                 7.0606
 Frc consts  --      0.0123                 0.2550                 0.2820
 IR Inten    --     23.8869                 2.7194                 1.5650

                      4                      5                      6
                      A                      A                      A
 Frequencies --    410.8563               515.0989               810.0256
 Red. masses --     10.4673                12.8278                 1.5946
 Frc consts  --      1.0410                 2.0053                 0.6164
 IR Inten    --      6.0157                11.6813                 0.8135

                      7                      8                      9
                      A                      A                      A
 Frequencies --    868.7004               996.3190              1172.3336
 Red. masses --      1.1730                 2.8989                 1.0396
 Frc consts  --      0.5216                 1.6954                 0.8418
 IR Inten    --      5.4062                 4.3363                13.0131

                     10                     11                     12
                      A                      A                      A
 Frequencies --   1508.3933              2542.5742              2563.9487
 Red. masses --     11.2943                 1.0379                 1.0391
 Frc consts  --     15.1404                 3.9531                 4.0246
 IR Inten    --     76.9339                41.8287                58.2113

 - Thermochemistry -
 -------------------
 Temperature   298.150 Kelvin.  Pressure   1.00000 Atm.
 Atom     1 has atomic number 16 and mass  31.97207

 Molecular mass:    89.95979 amu.
 Principal axes and moments of inertia in atomic units:
                           1         2         3
     Eigenvalues --   119.66498 656.72714 764.37049
           X            0.99988   0.00842   0.01302
           Y           -0.00816   0.99976  -0.02024
           Z           -0.01319   0.02013   0.99971
 This molecule is an asymmetric top.
 Rotational symmetry number  1.
 Rotational temperatures (Kelvin)      0.72380     0.13189     0.11331
 Rotational constants (GHZ):          15.08161     2.74808     2.36108
 Zero-point vibrational energy      71833.0 (Joules/Mol)
                                   17.16850 (Kcal/Mol)
 Warning -- explicit consideration of   5 degrees of freedom as
           vibrations may cause significant error
 Vibrational temperatures:    195.84   323.43   374.63   591.13   741.11
          (Kelvin)           1165.44  1249.86  1433.48  1686.72  2170.24
                             3658.19  3688.95

 Zero-point correction=                           0.027360 (Hartree/Particle)
 Thermal correction to Energy=                    0.032564
 Thermal correction to Enthalpy=                  0.033509
 Thermal correction to Gibbs Free Energy=        -0.002065
 Sum of electronic and zero-point Energies=           -873.380383
 Sum of electronic and thermal Energies=              -873.375178
 Sum of electronic and thermal Enthalpies=            -873.374234
 Sum of electronic and thermal Free Energies=         -873.409808

                     E (Thermal)             CV                S
                      KCal/Mol        Cal/Mol-Kelvin    Cal/Mol-Kelvin
 Total                   20.434             15.949             74.872
 Electronic               0.000              0.000              1.377
 Translational            0.889              2.981             39.403
 Rotational               0.889              2.981             25.599
 Vibrational             18.657              9.988              8.492
 Vibration     1          0.614              1.917              2.858
 Vibration     2          0.649              1.803              1.920
 Vibration     3          0.668              1.745              1.659
 Vibration     4          0.775              1.447              0.924
 Vibration     5          0.870              1.217              0.621

 Normal termination of Gaussian 09 at Wed Aug  3 21:07:57 2016.
