 Gaussian 09, Revision E.01,
 Gaussian 09:  EM64L-G09RevE.01 30-Nov-2015

 ------------------------------
 #p b3lyp/6-311++G(3df,2p) freq
 ------------------------------

 ---------
 b3lyp opt
 ---------
 Symbolic Z-matrix:
 Charge =  1 Multiplicity = 2

                         Standard orientation:
 ---------------------------------------------------------------------
 Center     Atomic      Atomic             Coordinates (Angstroms)
 Number     Number       Type             X           Y           Z
 ---------------------------------------------------------------------
      1         16           0        0.000000    0.000000    1.101537
      2          6           0        0.000000   -0.000000   -0.414917
      3          6           0        0.000000   -0.000000   -1.754243
      4          1           0        0.000000    0.937925   -2.304819
      5          1           0       -0.000000   -0.937925   -2.304819
 ---------------------------------------------------------------------

 SCF Done:  E(UB3LYP) =  -475.292159193     A.U. after   14 cycles

 The electronic state is 2-B1.
 Alpha  occ. eigenvalues --  -89.17152 -10.52633 -10.48374  -8.25489  -6.21827
 Alpha  occ. eigenvalues --   -6.21413  -6.21342  -1.11689  -1.02217  -0.79061
 Alpha  occ. eigenvalues --   -0.72195  -0.71143  -0.64690  -0.59299  -0.52389
 Alpha virt. eigenvalues --   -0.33591  -0.27482  -0.17514  -0.16091  -0.12587
 Alpha virt. eigenvalues --   -0.11657  -0.10026  -0.08188  -0.07673  -0.06914
 Alpha virt. eigenvalues --   -0.06416  -0.03686  -0.03439  -0.01885  -0.01479

  Beta  occ. eigenvalues --  -89.16777 -10.52844 -10.47476  -8.25149  -6.21212
  Beta  occ. eigenvalues --   -6.21069  -6.20719  -1.10731  -0.99794  -0.77992
  Beta  occ. eigenvalues --   -0.71736  -0.70096  -0.61580  -0.58789
  Beta virt. eigenvalues --   -0.41418  -0.33556  -0.24038  -0.17269  -0.15392
  Beta virt. eigenvalues --   -0.12391  -0.11594  -0.09430  -0.08168  -0.07508
  Beta virt. eigenvalues --   -0.06567  -0.05863  -0.02880  -0.02454  -0.01573

 Mulliken charges and spin densities:
               1          2
     1  S    0.246224   0.578180
     2  C    0.378318  -0.112663
     3  C   -0.112136   0.569034
     4  H    0.243797  -0.017275
     5  H    0.243797  -0.017275
 Sum of Mulliken charges =   1.00000   1.00000

 Dipole moment (field-independent basis, Debye):
    X=             -0.0000    Y=             -0.0000    Z=             -2.0352  Tot=              2.0352
 Quadrupole moment (field-independent basis, Debye-Ang):
   XX=            -22.2497   YY=            -20.0038   ZZ=             -6.5950
   XY=              0.0000   XZ=              0.0000   YZ=              0.0000

  Exact polarizability:  23.605   0.000  25.593   0.000  -0.000  62.746
 Approx polarizability:  34.972   0.000  38.157   0.000   0.000 127.020

                      1                      2                      3
                     B2                     B1                     B1
 Frequencies --    347.6512               353.0301               881.7506
 Red. masses --      2.7128                 5.5449                 1.3477
 Frc consts  --      0.1932                 0.4072                 0.6174
 IR Inten    --      5.6461                 7.6178                31.6674

                      4                      5                      6
                     A1                     B2                     A1
 Frequencies --    883.0396               951.9102              1389.0937
 Red. masses --      5.6331                 1.5745                 1.1393
 Frc consts  --      2.5880                 0.8406                 1.2953
 IR Inten    --     10.3924                 0.0469                21.3581

                      7                      8                      9
                     A1                     A1                     B2
 Frequencies --   1603.2176              3091.9803              3189.4041
 Red. masses --     11.1374                 1.0513                 1.1175
 Frc consts  --     16.8662                 5.9219                 6.6976
 IR Inten    --     33.1728               121.3519                64.5142

 - Thermochemistry -
 -------------------
 Temperature   298.150 Kelvin.  Pressure   1.00000 Atm.
 Atom     1 has atomic number 16 and mass  31.97207

 Molecular mass:    57.98772 amu.
 Principal axes and moments of inertia in atomic units:
                           1         2         3
     Eigenvalues --     6.33212 314.75495 321.08707
           X            0.00000  -0.00000   1.00000
           Y            0.00000   1.00000   0.00000
           Z            1.00000  -0.00000  -0.00000
 This molecule is an asymmetric top.
 Rotational symmetry number  2.
 Rotational temperatures (Kelvin)     13.67850     0.27518     0.26975
 Rotational constants (GHZ):         285.01395     5.73380     5.62072
 Zero-point vibrational energy      75909.5 (Joules/Mol)
                                   18.14281 (Kcal/Mol)
 Warning -- explicit consideration of   2 degrees of freedom as
           vibrations may cause significant error
 Vibrational temperatures:    500.19   507.93  1268.64  1270.50  1369.58
          (Kelvin)           1998.59  2306.67  4448.66  4588.84

 Zero-point correction=                           0.028912 (Hartree/Particle)
 Thermal correction to Energy=                    0.032637
 Thermal correction to Enthalpy=                  0.033582
 Thermal correction to Gibbs Free Energy=         0.004148
 Sum of electronic and zero-point Energies=           -475.263247
 Sum of electronic and thermal Energies=              -475.259522
 Sum of electronic and thermal Enthalpies=            -475.258578
 Sum of electronic and thermal Free Energies=         -475.288012

                     E (Thermal)             CV                S
                      KCal/Mol        Cal/Mol-Kelvin    Cal/Mol-Kelvin
 Total                   20.480             10.755             61.949
 Electronic               0.000              0.000              1.377
 Translational            0.889              2.981             38.094
 Rotational               0.889              2.981             19.709
 Vibrational             18.703              4.793              2.769
 Vibration     1          0.725              1.580              1.177
 Vibration     2          0.729              1.569              1.153

 Optimization completed.
    -- Stationary point found.
 Normal termination of Gaussian 09 at Wed Aug  3 23:00:49 2016.
