 Gaussian 09, Revision E.01,
 Gaussian 09:  EM64L-G09RevE.01 30-Nov-2015

 ------------------------------
 #p b3lyp/6-311++G(3df,2p) freq
 ------------------------------

 ---------
 b3lyp opt
 ---------
 Symbolic Z-matrix:
 Charge =  0 Multiplicity = 1

                         Standard orientation:
 ---------------------------------------------------------------------
 Center     Atomic      Atomic             Coordinates (Angstroms)
 Number     Number       Type             X           Y           Z
 ---------------------------------------------------------------------
      1         16           0       -2.243120   -0.109183   -0.015899
      2         16           0        1.974852   -0.181329   -0.105171
      3          6           0       -0.693141    0.192448    0.033452
      4          6           0        0.521244    0.544772    0.115061
      5          1           0        2.874201    0.839990   -0.071595
      6          1           0        2.449468   -0.615122    1.117634
 ---------------------------------------------------------------------

 SCF Done:  E(RB3LYP) =  -873.763190590     A.U. after   14 cycles

 The electronic state is 1-A.
 Alpha  occ. eigenvalues --  -88.98116 -88.82430 -10.22982 -10.17431  -8.06049
 Alpha  occ. eigenvalues --   -7.91095  -6.02227  -6.02165  -6.01755  -5.87352
 Alpha  occ. eigenvalues --   -5.86933  -5.86809  -0.88660  -0.78999  -0.69474
 Alpha  occ. eigenvalues --   -0.55055  -0.51743  -0.43435  -0.41161  -0.34132
 Alpha  occ. eigenvalues --   -0.33118  -0.22839  -0.21440
 Alpha virt. eigenvalues --   -0.06540  -0.05152  -0.03758  -0.00548   0.01228
 Alpha virt. eigenvalues --    0.02208   0.02785   0.03754   0.05709   0.06573
 Alpha virt. eigenvalues --    0.06947   0.07394   0.08140   0.09310   0.10102

 Mulliken charges:
               1
     1  S   -0.336121
     2  S    0.072393
     3  C    0.195748
     4  C   -0.234124
     5  H    0.176873
     6  H    0.125232
 Sum of Mulliken charges =  -0.00000

 Dipole moment (field-independent basis, Debye):
    X=              5.9652    Y=             -0.7333    Z=              0.3929  Tot=              6.0229
 Quadrupole moment (field-independent basis, Debye-Ang):
   XX=            -30.4928   YY=            -39.2013   ZZ=            -38.9003
   XY=              0.3227   XZ=              1.4299   YZ=             -1.2332

  Exact polarizability: 146.441   3.322  50.623   5.926  -1.031  48.673
 Approx polarizability: 303.353  17.849  83.754  14.993  -1.737  75.851

                      1                      2                      3
                      A                      A                      A
 Frequencies --     57.8572               102.1167               437.6770
 Red. masses --      1.3467                 9.4286                12.7682
 Frc consts  --      0.0027                 0.0579                 1.4411
 IR Inten    --     17.2586                16.8303                 4.5221

                      4                      5                      6
                      A                      A                      A
 Frequencies --    460.5180               610.3281               888.1040
 Red. masses --     12.2784                13.0731                 1.1131
 Frc consts  --      1.5342                 2.8692                 0.5173
 IR Inten    --     11.8251                47.5702                88.0241

                      7                      8                      9
                      A                      A                      A
 Frequencies --    941.9528              1104.6701              1239.7624
 Red. masses --      1.2986                 4.7790                 1.0411
 Frc consts  --      0.6788                 3.4360                 0.9428
 IR Inten    --      5.9164                 6.6996               118.4554

                     10                     11                     12
                      A                      A                      A
 Frequencies --   1947.5201              2303.9428              2485.5898
 Red. masses --     10.9460                 1.0439                 1.0387
 Frc consts  --     24.4607                 3.2647                 3.7810
 IR Inten    --   1530.2337               179.0498                57.7529

 - Thermochemistry -
 -------------------
 Temperature   298.150 Kelvin.  Pressure   1.00000 Atm.
 Atom     1 has atomic number 16 and mass  31.97207

 Molecular mass:    89.95979 amu.
 Principal axes and moments of inertia in atomic units:
                           1         2         3
     Eigenvalues --    29.611151108.211941126.00296
           X            0.99996   0.00424   0.00783
           Y           -0.00303   0.98892  -0.14839
           Z           -0.00837   0.14836   0.98890
 This molecule is an asymmetric top.
 Rotational symmetry number  1.
 Rotational temperatures (Kelvin)      2.92504     0.07816     0.07692
 Rotational constants (GHZ):          60.94802     1.62852     1.60279
 Zero-point vibrational energy      75245.3 (Joules/Mol)
                                   17.98407 (Kcal/Mol)
 Warning -- explicit consideration of   5 degrees of freedom as
           vibrations may cause significant error
 Vibrational temperatures:     83.24   146.92   629.72   662.58   878.12
          (Kelvin)           1277.78  1355.26  1589.37  1783.74  2802.04
                             3314.86  3576.20

 Zero-point correction=                           0.028659 (Hartree/Particle)
 Thermal correction to Energy=                    0.033867
 Thermal correction to Enthalpy=                  0.034811
 Thermal correction to Gibbs Free Energy=        -0.000755
 Sum of electronic and zero-point Energies=           -873.734531
 Sum of electronic and thermal Energies=              -873.729323
 Sum of electronic and thermal Enthalpies=            -873.728379
 Sum of electronic and thermal Free Energies=         -873.763945

                     E (Thermal)             CV                S
                      KCal/Mol        Cal/Mol-Kelvin    Cal/Mol-Kelvin
 Total                   21.252             15.057             74.855
 Electronic               0.000              0.000              0.000
 Translational            0.889              2.981             39.403
 Rotational               0.889              2.981             25.117
 Vibrational             19.475              9.095             10.336
 Vibration     1          0.596              1.974              4.529
 Vibration     2          0.604              1.947              3.414
 Vibration     3          0.798              1.388              0.834
 Vibration     4          0.818              1.338              0.765
 Vibration     5          0.969              1.010              0.432

 Normal termination of Gaussian 09 at Wed Aug  3 20:54:29 2016.
