 Gaussian 09, Revision E.01,
 Gaussian 09:  EM64L-G09RevE.01 30-Nov-2015

 ------------------------------
 #p b3lyp/6-311++G(3df,2p) freq
 ------------------------------

 ---------
 b3lyp opt
 ---------
 Symbolic Z-matrix:
 Charge =  1 Multiplicity = 4

                         Standard orientation:
 ---------------------------------------------------------------------
 Center     Atomic      Atomic             Coordinates (Angstroms)
 Number     Number       Type             X           Y           Z
 ---------------------------------------------------------------------
      1         16           0       -0.781079    1.983245    0.000000
      2         16           0        0.933882   -1.984465   -0.000000
      3          6           0       -0.000000    0.535845    0.000000
      4          6           0       -0.248329   -0.797388   -0.000000
      5          1           0       -1.275869   -1.182841   -0.000000
      6          1           0        0.320987    2.771614    0.000000
 ---------------------------------------------------------------------

 SCF Done:  E(UB3LYP) =  -873.455633451     A.U. after   15 cycles

 The electronic state is 4-A".
 Alpha  occ. eigenvalues --  -89.14252 -89.11667 -10.47576 -10.46178  -8.22382
 Alpha  occ. eigenvalues --   -8.20056  -6.19226  -6.18258  -6.18223  -6.16273
 Alpha  occ. eigenvalues --   -6.15984  -6.15926  -1.09141  -1.03448  -0.92406
 Alpha  occ. eigenvalues --   -0.77550  -0.71982  -0.65582  -0.62960  -0.61275
 Alpha  occ. eigenvalues --   -0.54475  -0.53835  -0.47571  -0.44915
 Alpha virt. eigenvalues --   -0.24665  -0.19935  -0.17894  -0.14879  -0.12492
 Alpha virt. eigenvalues --   -0.11467  -0.10489  -0.09408  -0.07746  -0.07205
 Alpha virt. eigenvalues --   -0.06329  -0.05604  -0.05433  -0.04013  -0.03691

  Beta  occ. eigenvalues --  -89.13318 -89.11453 -10.45985 -10.45765  -8.21531
  Beta  occ. eigenvalues --   -8.19858  -6.17649  -6.17099  -6.17002  -6.16128
  Beta  occ. eigenvalues --   -6.15780  -6.15357  -1.06024  -1.00979  -0.87922
  Beta  occ. eigenvalues --   -0.74085  -0.69785  -0.62562  -0.60521  -0.57627
  Beta  occ. eigenvalues --   -0.50540
  Beta virt. eigenvalues --   -0.39021  -0.36091  -0.33018  -0.20953  -0.19141
  Beta virt. eigenvalues --   -0.16015  -0.13966  -0.11577  -0.10854  -0.09953
  Beta virt. eigenvalues --   -0.09237  -0.07245  -0.06634  -0.05467  -0.04999

 Mulliken charges and spin densities:
               1          2
     1  S   -0.004574   0.329258
     2  S    0.255212   1.432178
     3  C    0.255086   1.090789
     4  C    0.052425   0.014412
     5  H    0.217254   0.083942
     6  H    0.224597   0.049421
 Sum of Mulliken charges =   1.00000   3.00000

 Dipole moment (field-independent basis, Debye):
    X=              0.0107    Y=              0.1382    Z=              0.0000  Tot=              0.1387
 Quadrupole moment (field-independent basis, Debye-Ang):
   XX=            -29.2967   YY=            -12.0105   ZZ=            -36.0737
   XY=             -3.3605   XZ=              0.0000   YZ=             -0.0000

  Exact polarizability:  54.120 -26.150 113.639   0.000  -0.000  37.461
 Approx polarizability:  93.510 -48.908 192.190  -0.000   0.000  57.814

                      1                      2                      3
                     A'                     A"                     A'
 Frequencies --    173.4185               210.8107               340.0985
 Red. masses --      6.3724                 9.8451                16.2506
 Frc consts  --      0.1129                 0.2578                 1.1075
 IR Inten    --      1.7134                 0.1570                 1.5498

                      4                      5                      6
                     A"                     A'                     A"
 Frequencies --    361.7559               757.3280               761.8762
 Red. masses --      1.2203                 6.5665                 1.5681
 Frc consts  --      0.0941                 2.2190                 0.5363
 IR Inten    --     31.3611                 3.7468                21.4119

                      7                      8                      9
                     A'                     A'                     A'
 Frequencies --    900.2364               949.2863              1196.0763
 Red. masses --      2.7463                 1.4038                 1.2539
 Frc consts  --      1.3113                 0.7453                 1.0569
 IR Inten    --     60.0412                 1.6370                 1.1804

                     10                     11                     12
                     A'                     A'                     A'
 Frequencies --   1511.6540              2577.1265              2996.6852
 Red. masses --     10.3477                 1.0394                 1.0816
 Frc consts  --     13.9315                 4.0671                 5.7229
 IR Inten    --     40.7433                57.7081                32.6930

 - Thermochemistry -
 -------------------
 Temperature   298.150 Kelvin.  Pressure   1.00000 Atm.
 Atom     1 has atomic number 16 and mass  31.97207

 Molecular mass:    89.95979 amu.
 Principal axes and moments of inertia in atomic units:
                           1         2         3
     Eigenvalues --    31.342061117.568821148.91088
           X           -0.36753   0.93001   0.00000
           Y            0.93001   0.36753  -0.00000
           Z            0.00000  -0.00000   1.00000
 This molecule is an asymmetric top.
 Rotational symmetry number  1.
 Rotational temperatures (Kelvin)      2.76350     0.07750     0.07539
 Rotational constants (GHZ):          57.58208     1.61488     1.57083
 Zero-point vibrational energy      76180.3 (Joules/Mol)
                                   18.20753 (Kcal/Mol)
 Warning -- explicit consideration of   4 degrees of freedom as
           vibrations may cause significant error
 Vibrational temperatures:    249.51   303.31   489.33   520.49  1089.62
          (Kelvin)           1096.17  1295.24  1365.81  1720.88  2174.93
                             3707.91  4311.56

 Zero-point correction=                           0.029016 (Hartree/Particle)
 Thermal correction to Energy=                    0.034019
 Thermal correction to Enthalpy=                  0.034963
 Thermal correction to Gibbs Free Energy=        -0.000631
 Sum of electronic and zero-point Energies=           -873.426618
 Sum of electronic and thermal Energies=              -873.421615
 Sum of electronic and thermal Enthalpies=            -873.420670
 Sum of electronic and thermal Free Energies=         -873.456264

                     E (Thermal)             CV                S
                      KCal/Mol        Cal/Mol-Kelvin    Cal/Mol-Kelvin
 Total                   21.347             15.463             74.913
 Electronic               0.000              0.000              2.755
 Translational            0.889              2.981             39.403
 Rotational               0.889              2.981             25.201
 Vibrational             19.570              9.502              7.554
 Vibration     1          0.627              1.875              2.398
 Vibration     2          0.643              1.824              2.037
 Vibration     3          0.720              1.595              1.212
 Vibration     4          0.736              1.551              1.115

 Optimization completed.
    -- Stationary point found.
 Normal termination of Gaussian 09 at Wed Aug  3 22:51:46 2016.
