 Gaussian 09, Revision E.01,
 Gaussian 09:  EM64L-G09RevE.01 30-Nov-2015

 ------------------------------
 #p b3lyp/6-311++G(3df,2p) freq
 ------------------------------

 ---------
 b3lyp opt
 ---------
 Symbolic Z-matrix:
 Charge =  0 Multiplicity = 3

                         Standard orientation:
 ---------------------------------------------------------------------
 Center     Atomic      Atomic             Coordinates (Angstroms)
 Number     Number       Type             X           Y           Z
 ---------------------------------------------------------------------
      1         16           0        0.294322    0.944065    0.000150
      2         16           0       -1.949830   -0.401241   -0.000280
      3          6           0        2.495644   -0.864789   -0.000221
      4          6           0        1.563248   -0.076244   -0.000009
      5          1           0        3.322521   -1.531735   -0.000429
      6          1           0       -1.187743   -1.507253    0.003899
 ---------------------------------------------------------------------

 SCF Done:  E(UB3LYP) =  -873.754320358     A.U. after   19 cycles

 The electronic state is 3-A.
 Alpha  occ. eigenvalues --  -88.90774 -88.86882 -10.22938 -10.21750  -7.99047
 Alpha  occ. eigenvalues --   -7.95282  -5.95260  -5.95191  -5.94927  -5.91629
 Alpha  occ. eigenvalues --   -5.91270  -5.91234  -0.84132  -0.75824  -0.72607
 Alpha  occ. eigenvalues --   -0.56792  -0.47471  -0.40535  -0.39166  -0.38718
 Alpha  occ. eigenvalues --   -0.31257  -0.29713  -0.26814  -0.22138
 Alpha virt. eigenvalues --   -0.01751  -0.00683  -0.00271   0.00244   0.02054
 Alpha virt. eigenvalues --    0.03008   0.04872   0.04970   0.06259   0.06669
 Alpha virt. eigenvalues --    0.07404   0.07527   0.08102   0.09215   0.09841

  Beta  occ. eigenvalues --  -88.90196 -88.86256 -10.23198 -10.21021  -7.98506
  Beta  occ. eigenvalues --   -7.94710  -5.94771  -5.94125  -5.94089  -5.90917
  Beta  occ. eigenvalues --   -5.90301  -5.90287  -0.82587  -0.73285  -0.69140
  Beta  occ. eigenvalues --   -0.55971  -0.46218  -0.39138  -0.37108  -0.36122
  Beta  occ. eigenvalues --   -0.27703  -0.25149
  Beta virt. eigenvalues --   -0.18274  -0.12978  -0.01375   0.00361   0.00460
  Beta virt. eigenvalues --    0.00477   0.02397   0.03601   0.05268   0.05470
  Beta virt. eigenvalues --    0.06590   0.07079   0.07872   0.08020   0.08480

 Mulliken charges and spin densities:
               1          2
     1  S   -0.427254   0.809763
     2  S   -0.178918   0.926324
     3  C    0.468766   0.438571
     4  C   -0.333215  -0.145271
     5  H    0.339328  -0.015568
     6  H    0.131292  -0.013819
 Sum of Mulliken charges =  -0.00000   2.00000

 Dipole moment (field-independent basis, Debye):
    X=              1.9133    Y=             -0.9999    Z=              0.0017  Tot=              2.1589
 Quadrupole moment (field-independent basis, Debye-Ang):
   XX=            -35.8147   YY=            -35.3502   ZZ=            -40.0888
   XY=             -4.4884   XZ=             -0.0006   YZ=             -0.0079

  Exact polarizability: 176.373   8.034  71.321  -0.007   0.003  48.141
 Approx polarizability: 410.786  26.208 135.781   0.018   0.001  73.912

                      1                      2                      3
                      A                      A                      A
 Frequencies --     71.7749               214.0921               227.1198
 Red. masses --      6.9710                 1.0922                20.7554
 Frc consts  --      0.0212                 0.0295                 0.6308
 IR Inten    --      0.7386                 4.9327                 3.8329

                      4                      5                      6
                      A                      A                      A
 Frequencies --    359.5621               363.2142               496.2678
 Red. masses --      6.2169                 4.5679                 1.0690
 Frc consts  --      0.4736                 0.3551                 0.1551
 IR Inten    --      6.8876                 9.5189                 5.3367

                      7                      8                      9
                      A                      A                      A
 Frequencies --    542.2873               626.6051               767.2690
 Red. masses --      1.2328                 1.3095                11.1357
 Frc consts  --      0.2136                 0.3029                 3.8625
 IR Inten    --     47.8313                34.0377                45.9614

                     10                     11                     12
                      A                      A                      A
 Frequencies --   1944.8888              2676.9931              3447.5392
 Red. masses --      6.5659                 1.0388                 1.1368
 Frc consts  --     14.6330                 4.3860                 7.9608
 IR Inten    --    140.6624                 6.7906                84.8348

 - Thermochemistry -
 -------------------
 Temperature   298.150 Kelvin.  Pressure   1.00000 Atm.
 Atom     1 has atomic number 16 and mass  31.97207

 Molecular mass:    89.95979 amu.
 Principal axes and moments of inertia in atomic units:
                           1         2         3
     Eigenvalues --   168.49792 860.420491028.91828
           X            0.99985  -0.01710  -0.00002
           Y            0.01710   0.99985  -0.00011
           Z            0.00002   0.00011   1.00000
 This molecule is an asymmetric top.
 Rotational symmetry number  1.
 Rotational temperatures (Kelvin)      0.51403     0.10066     0.08418
 Rotational constants (GHZ):          10.71076     2.09751     1.75402
 Zero-point vibrational energy      70206.5 (Joules/Mol)
                                   16.77976 (Kcal/Mol)
 Warning -- explicit consideration of   7 degrees of freedom as
           vibrations may cause significant error
 Vibrational temperatures:    103.27   308.03   326.77   517.33   522.58
          (Kelvin)            714.02   780.23   901.54  1103.93  2798.26
                             3851.59  4960.23

 Zero-point correction=                           0.026740 (Hartree/Particle)
 Thermal correction to Energy=                    0.032776
 Thermal correction to Enthalpy=                  0.033720
 Thermal correction to Gibbs Free Energy=        -0.004389
 Sum of electronic and zero-point Energies=           -873.727580
 Sum of electronic and thermal Energies=              -873.721545
 Sum of electronic and thermal Enthalpies=            -873.720601
 Sum of electronic and thermal Free Energies=         -873.758709

                     E (Thermal)             CV                S
                      KCal/Mol        Cal/Mol-Kelvin    Cal/Mol-Kelvin
 Total                   20.567             18.764             80.207
 Electronic               0.000              0.000              2.183
 Translational            0.889              2.981             39.403
 Rotational               0.889              2.981             26.503
 Vibrational             18.790             12.803             12.118
 Vibration     1          0.598              1.967              4.104
 Vibration     2          0.644              1.819              2.009
 Vibration     3          0.651              1.800              1.902
 Vibration     4          0.734              1.556              1.124
 Vibration     5          0.737              1.548              1.108
 Vibration     6          0.852              1.258              0.668
 Vibration     7          0.897              1.157              0.560

 Normal termination of Gaussian 09 at Wed Aug  3 21:00:25 2016.
