 Gaussian 09, Revision E.01,
 Gaussian 09:  EM64L-G09RevE.01 30-Nov-2015

 ------------------------------
 #p b3lyp/6-311++G(3df,2p) freq
 ------------------------------

 ---------
 b3lyp opt
 ---------
 Symbolic Z-matrix:
 Charge =  2 Multiplicity = 1

                         Standard orientation:
 ---------------------------------------------------------------------
 Center     Atomic      Atomic             Coordinates (Angstroms)
 Number     Number       Type             X           Y           Z
 ---------------------------------------------------------------------
      1         16           0        0.371633    0.816548    0.000282
      2         16           0       -1.685735   -0.455804   -0.001612
      3          6           0        1.519007   -0.210622    0.000360
      4          6           0        2.735571   -0.848188   -0.000612
      5          1           0       -2.257412    0.302886   -0.984457
      6          1           0       -2.244427    0.278069    1.007254
 ---------------------------------------------------------------------

 SCF Done:  E(RB3LYP) =  -872.830599739     A.U. after   14 cycles

 The electronic state is 1-A.
 Alpha  occ. eigenvalues --  -89.43504 -89.37642 -10.75232 -10.70381  -8.51229
 Alpha  occ. eigenvalues --   -8.45833  -6.47386  -6.47240  -6.47001  -6.42001
 Alpha  occ. eigenvalues --   -6.41847  -6.41508  -1.33066  -1.23193  -1.18268
 Alpha  occ. eigenvalues --   -0.96637  -0.90784  -0.87991  -0.83141  -0.81408
 Alpha  occ. eigenvalues --   -0.74568  -0.73707
 Alpha virt. eigenvalues --   -0.63952  -0.58900  -0.45202  -0.44247  -0.42240
 Alpha virt. eigenvalues --   -0.39028  -0.38072  -0.30598  -0.28200  -0.28121
 Alpha virt. eigenvalues --   -0.25529  -0.25135  -0.23720  -0.22220  -0.22162

 Mulliken charges:
               1
     1  S    0.039432
     2  S    0.262970
     3  C    0.619704
     4  C    0.497259
     5  H    0.290249
     6  H    0.290386
 Sum of Mulliken charges =   2.00000

 Dipole moment (field-independent basis, Debye):
    X=             -1.9351    Y=              0.8191    Z=              0.0198  Tot=              2.1014
 Quadrupole moment (field-independent basis, Debye-Ang):
   XX=              0.2347   YY=            -27.4639   ZZ=            -27.4984
   XY=             -1.6214   XZ=             -0.0287   YZ=             -0.0301

  Exact polarizability: 111.224  -6.931  45.994  -0.024  -0.015  37.246
 Approx polarizability: 273.963 -29.487  96.500   0.011  -0.027  62.977

                      1                      2                      3
                      A                      A                      A
 Frequencies --     13.7538               116.5459               144.0752
 Red. masses --      1.0931                13.0893                11.9396
 Frc consts  --      0.0001                 0.1048                 0.1460
 IR Inten    --     27.9376                 2.1541                 7.3490

                      4                      5                      6
                      A                      A                      A
 Frequencies --    211.1052               348.6828               651.8026
 Red. masses --     15.0362                 8.2420                 1.0296
 Frc consts  --      0.3948                 0.5904                 0.2577
 IR Inten    --     14.5461                 1.7652                 4.8292

                      7                      8                      9
                      A                      A                      A
 Frequencies --    694.8548               849.6406              1161.5048
 Red. masses --      1.1840                11.4226                 1.0376
 Frc consts  --      0.3368                 4.8583                 0.8248
 IR Inten    --     22.0266                47.4493                 5.7630

                     10                     11                     12
                      A                      A                      A
 Frequencies --   1645.6015              2521.4665              2529.1614
 Red. masses --     12.3917                 1.0360                 1.0411
 Frc consts  --     19.7712                 3.8807                 3.9236
 IR Inten    --    947.1058               262.0759               122.7331

 - Thermochemistry -
 -------------------
 Temperature   298.150 Kelvin.  Pressure   1.00000 Atm.
 Atom     1 has atomic number 16 and mass  31.97207

 Molecular mass:    89.95979 amu.
 Principal axes and moments of inertia in atomic units:
                           1         2         3
     Eigenvalues --   140.27876 802.61521 928.61465
           X            0.99998  -0.00699  -0.00017
           Y            0.00699   0.99998  -0.00050
           Z            0.00018   0.00050   1.00000
 This molecule is an asymmetric top.
 Rotational symmetry number  1.
 Rotational temperatures (Kelvin)      0.61744     0.10791     0.09327
 Rotational constants (GHZ):          12.86539     2.24858     1.94348
 Zero-point vibrational energy      65125.9 (Joules/Mol)
                                   15.56546 (Kcal/Mol)
 Warning -- explicit consideration of   5 degrees of freedom as
           vibrations may cause significant error
 Vibrational temperatures:     19.79   167.68   207.29   303.73   501.68
          (Kelvin)            937.80   999.74  1222.44  1671.14  2367.65
                             3627.82  3638.89

 Zero-point correction=                           0.024805 (Hartree/Particle)
 Thermal correction to Energy=                    0.031150
 Thermal correction to Enthalpy=                  0.032094
 Thermal correction to Gibbs Free Energy=        -0.007317
 Sum of electronic and zero-point Energies=           -872.805795
 Sum of electronic and thermal Energies=              -872.799450
 Sum of electronic and thermal Enthalpies=            -872.798505
 Sum of electronic and thermal Free Energies=         -872.837917

                     E (Thermal)             CV                S
                      KCal/Mol        Cal/Mol-Kelvin    Cal/Mol-Kelvin
 Total                   19.547             17.809             82.949
 Electronic               0.000              0.000              0.000
 Translational            0.889              2.981             39.403
 Rotational               0.889              2.981             26.150
 Vibrational             17.770             11.848             17.396
 Vibration     1          0.593              1.986              7.378
 Vibration     2          0.608              1.936              3.157
 Vibration     3          0.616              1.909              2.749
 Vibration     4          0.643              1.824              2.034
 Vibration     5          0.726              1.578              1.172

 Normal termination of Gaussian 09 at Wed Aug  3 20:18:11 2016.
