 Gaussian 09, Revision E.01,
 Gaussian 09:  EM64L-G09RevE.01 30-Nov-2015

 ------------------------------
 #p b3lyp/6-311++G(3df,2p) freq
 ------------------------------

 ---------
 b3lyp opt
 ---------
 Symbolic Z-matrix:
 Charge =  0 Multiplicity = 1

                         Standard orientation:
 ---------------------------------------------------------------------
 Center     Atomic      Atomic             Coordinates (Angstroms)
 Number     Number       Type             X           Y           Z
 ---------------------------------------------------------------------
      1         16           0       -0.000000    0.000000    0.846563
      2          6           0        0.000000   -0.634868   -0.895493
      3          6           0        0.000000    0.634868   -0.895493
      4          1           0        0.000000   -1.581580   -1.399543
      5          1           0        0.000000    1.581580   -1.399543
 ---------------------------------------------------------------------

 SCF Done:  E(RB3LYP) =  -475.558518412     A.U. after   10 cycles

 The electronic state is 1-A1.
 Alpha  occ. eigenvalues --  -88.85010 -10.23471 -10.23340  -7.93350  -5.89849
 Alpha  occ. eigenvalues --   -5.89418  -5.88625  -0.88220  -0.63480  -0.60163
 Alpha  occ. eigenvalues --   -0.52375  -0.37304  -0.37084  -0.31908  -0.20183
 Alpha virt. eigenvalues --   -0.03526  -0.02574  -0.00661   0.00462   0.02297
 Alpha virt. eigenvalues --    0.05049   0.05576   0.06962   0.07108   0.08972
 Alpha virt. eigenvalues --    0.09044   0.10525   0.11354   0.11892   0.14057

 Mulliken charges:
               1
     1  S   -0.207151
     2  C   -0.144711
     3  C   -0.144711
     4  H    0.248287
     5  H    0.248287
 Sum of Mulliken charges =  -0.00000

 Dipole moment (field-independent basis, Debye):
    X=              0.0000    Y=             -0.0000    Z=             -2.3125  Tot=              2.3125
 Quadrupole moment (field-independent basis, Debye-Ang):
   XX=            -27.9943   YY=            -20.7662   ZZ=            -23.7478
   XY=             -0.0000   XZ=             -0.0000   YZ=             -0.0000

  Exact polarizability:  34.022   0.000  40.263  -0.000  -0.000  51.017
 Approx polarizability:  48.074  -0.000  72.880  -0.000  -0.000  85.399

                      1                      2                      3
                     B2                     B1                     A1
 Frequencies --    457.2361               592.1671               666.8919
 Red. masses --      6.0167                 1.1403                10.7766
 Frc consts  --      0.7411                 0.2356                 2.8239
 IR Inten    --      0.6603                72.0217                 8.3669

                      4                      5                      6
                     A2                     A1                     B2
 Frequencies --    773.8868               907.9096               941.0304
 Red. masses --      1.4688                 1.0619                 1.2477
 Frc consts  --      0.5183                 0.5157                 0.6510
 IR Inten    --      0.0000                 0.4218                45.7162

                      7                      8                      9
                     A1                     B2                     A1
 Frequencies --   1749.8259              3275.1298              3330.4821
 Red. masses --      5.1235                 1.0823                 1.1541
 Frc consts  --      9.2429                 6.8401                 7.5424
 IR Inten    --     18.2666                24.4299                 6.6288

 - Thermochemistry -
 -------------------
 Temperature   298.150 Kelvin.  Pressure   1.00000 Atm.
 Atom     1 has atomic number 16 and mass  31.97207

 Molecular mass:    57.98772 amu.
 Principal axes and moments of inertia in atomic units:
                           1         2         3
     Eigenvalues --    52.54931 164.18507 216.73438
           X            0.00000   0.00000   1.00000
           Y            0.00000   1.00000  -0.00000
           Z            1.00000  -0.00000  -0.00000
 This molecule is an asymmetric top.
 Rotational symmetry number  2.
 Rotational temperatures (Kelvin)      1.64824     0.52754     0.39963
 Rotational constants (GHZ):          34.34376    10.99212     8.32697
 Zero-point vibrational energy      75930.3 (Joules/Mol)
                                   18.14778 (Kcal/Mol)
 Warning -- explicit consideration of   2 degrees of freedom as
           vibrations may cause significant error
 Vibrational temperatures:    657.86   852.00   959.51  1113.45  1306.28
          (Kelvin)           1353.93  2517.61  4712.18  4791.81

 Zero-point correction=                           0.028920 (Hartree/Particle)
 Thermal correction to Energy=                    0.032488
 Thermal correction to Enthalpy=                  0.033432
 Thermal correction to Gibbs Free Energy=         0.004477
 Sum of electronic and zero-point Energies=           -475.529598
 Sum of electronic and thermal Energies=              -475.526030
 Sum of electronic and thermal Enthalpies=            -475.525086
 Sum of electronic and thermal Free Energies=         -475.554041

                     E (Thermal)             CV                S
                      KCal/Mol        Cal/Mol-Kelvin    Cal/Mol-Kelvin
 Total                   20.387             10.910             60.941
 Electronic               0.000              0.000              0.000
 Translational            0.889              2.981             38.094
 Rotational               0.889              2.981             20.775
 Vibrational             18.609              4.948              2.073
 Vibration     1          0.815              1.345              0.774
 Vibration     2          0.950              1.048              0.463

 Optimization completed.
    -- Stationary point found.
 Normal termination of Gaussian 09 at Wed Aug  3 22:57:41 2016.
