 Gaussian 09, Revision E.01,
 Gaussian 09:  EM64L-G09RevE.01 30-Nov-2015

 ------------------------------
 #p b3lyp/6-311++G(3df,2p) freq
 ------------------------------

 ---------
 b3lyp opt
 ---------
 Symbolic Z-matrix:
 Charge =  2 Multiplicity = 1

                         Standard orientation:
 ---------------------------------------------------------------------
 Center     Atomic      Atomic             Coordinates (Angstroms)
 Number     Number       Type             X           Y           Z
 ---------------------------------------------------------------------
      1         16           0        1.323164    1.167180   -0.000000
      2         16           0       -0.796910   -1.366310    0.000000
      3          6           0       -0.000000    0.210568   -0.000000
      4          6           0       -1.391471    0.170022    0.000000
      5          1           0       -2.332203    0.727606    0.000000
      6          1           0        2.260974    0.174944   -0.000000
 ---------------------------------------------------------------------

 SCF Done:  E(RB3LYP) =  -872.983297291     A.U. after   12 cycles

 The electronic state is 1-A'.
 Alpha  occ. eigenvalues --  -89.42947 -89.36721 -10.76142 -10.75969  -8.50810
 Alpha  occ. eigenvalues --   -8.44875  -6.46850  -6.46826  -6.46657  -6.41128
 Alpha  occ. eigenvalues --   -6.40719  -6.40641  -1.43243  -1.26931  -1.10864
 Alpha  occ. eigenvalues --   -1.04389  -0.96207  -0.89195  -0.88835  -0.86214
 Alpha  occ. eigenvalues --   -0.79563  -0.75282
 Alpha virt. eigenvalues --   -0.60788  -0.50730  -0.50309  -0.40717  -0.36911
 Alpha virt. eigenvalues --   -0.36696  -0.33698  -0.30364  -0.26269  -0.26159
 Alpha virt. eigenvalues --   -0.24869  -0.24669  -0.24131  -0.23556  -0.21390

 Mulliken charges:
               1
     1  S    0.239134
     2  S    0.582316
     3  C    0.088076
     4  C    0.425863
     5  H    0.408863
     6  H    0.255748
 Sum of Mulliken charges =   2.00000

 Dipole moment (field-independent basis, Debye):
    X=             -1.1616    Y=             -0.5696    Z=              0.0000  Tot=              1.2938
 Quadrupole moment (field-independent basis, Debye-Ang):
   XX=             -6.9213   YY=            -17.2123   ZZ=            -30.9513
   XY=              6.7049   XZ=             -0.0000   YZ=             -0.0000

  Exact polarizability:  62.674  17.269  58.637   0.000   0.000  28.967
 Approx polarizability: 122.017  50.444 145.720  -0.000  -0.000  48.287

                      1                      2                      3
                     A'                     A"                     A'
 Frequencies --    287.8723               385.8165               512.7255
 Red. masses --      5.5519                 7.2499                11.0605
 Frc consts  --      0.2711                 0.6358                 1.7131
 IR Inten    --      9.5192                 5.0853                 2.0537

                      4                      5                      6
                     A"                     A'                     A"
 Frequencies --    519.4962               822.4614               888.5844
 Red. masses --      1.0753                 3.0324                 1.3782
 Frc consts  --      0.1710                 1.2085                 0.6412
 IR Inten    --     34.9953                27.3852                13.6750

                      7                      8                      9
                     A'                     A'                     A'
 Frequencies --    956.8884              1009.1500              1060.3294
 Red. masses --      2.8827                 1.4084                 1.7639
 Frc consts  --      1.5551                 0.8451                 1.1684
 IR Inten    --     23.5895                74.9170                30.9361

                     10                     11                     12
                     A'                     A'                     A'
 Frequencies --   1474.7095              2533.9378              3123.2364
 Red. masses --      8.1747                 1.0396                 1.1133
 Frc consts  --     10.4746                 3.9327                 6.3983
 IR Inten    --     38.7177               123.6398               198.1116

 - Thermochemistry -
 -------------------
 Temperature   298.150 Kelvin.  Pressure   1.00000 Atm.
 Atom     1 has atomic number 16 and mass  31.97207

 Molecular mass:    89.95979 amu.
 Principal axes and moments of inertia in atomic units:
                           1         2         3
     Eigenvalues --    97.58432 669.56581 767.15013
           X            0.71908  -0.69492   0.00000
           Y            0.69492   0.71908   0.00000
           Z           -0.00000   0.00000   1.00000
 This molecule is an asymmetric top.
 Rotational symmetry number  1.
 Rotational temperatures (Kelvin)      0.88758     0.12936     0.11290
 Rotational constants (GHZ):          18.49417     2.69539     2.35253
 Zero-point vibrational energy      81197.8 (Joules/Mol)
                                   19.40673 (Kcal/Mol)
 Warning -- explicit consideration of   4 degrees of freedom as
           vibrations may cause significant error
 Vibrational temperatures:    414.18   555.10   737.70   747.44  1183.34
          (Kelvin)           1278.47  1376.75  1451.94  1525.58  2121.78
                             3645.77  4493.63

 Zero-point correction=                           0.030927 (Hartree/Particle)
 Thermal correction to Energy=                    0.035185
 Thermal correction to Enthalpy=                  0.036129
 Thermal correction to Gibbs Free Energy=         0.003257
 Sum of electronic and zero-point Energies=           -872.952371
 Sum of electronic and thermal Energies=              -872.948112
 Sum of electronic and thermal Enthalpies=            -872.947168
 Sum of electronic and thermal Free Energies=         -872.980041

                     E (Thermal)             CV                S
                      KCal/Mol        Cal/Mol-Kelvin    Cal/Mol-Kelvin
 Total                   22.079             13.910             69.187
 Electronic               0.000              0.000              0.000
 Translational            0.889              2.981             39.403
 Rotational               0.889              2.981             25.420
 Vibrational             20.302              7.949              4.365
 Vibration     1          0.685              1.696              1.486
 Vibration     2          0.754              1.500              1.016
 Vibration     3          0.868              1.222              0.627
 Vibration     4          0.874              1.207              0.611

 Normal termination of Gaussian 09 at Wed Aug  3 22:51:08 2016.
