 Gaussian 09, Revision E.01,
 Gaussian 09:  EM64L-G09RevE.01 30-Nov-2015

 ------------------------------
 #p b3lyp/6-311++G(3df,2p) freq
 ------------------------------

 ---------
 b3lyp opt
 ---------
 Symbolic Z-matrix:
 Charge =  1 Multiplicity = 2

                         Standard orientation:
 ---------------------------------------------------------------------
 Center     Atomic      Atomic             Coordinates (Angstroms)
 Number     Number       Type             X           Y           Z
 ---------------------------------------------------------------------
      1         16           0       -0.105684    0.711253   -0.053971
      2         16           0        1.575452   -0.390257    0.038829
      3          6           0       -1.552767   -0.167126    0.528869
      4          6           0       -1.992842   -0.812530   -0.518903
      5          1           0       -1.849741   -0.040499    1.562035
      6          1           0       -0.392899    0.782502   -1.379571
 ---------------------------------------------------------------------

 SCF Done:  E(UB3LYP) =  -873.377020746     A.U. after   24 cycles

 The electronic state is 2-A.
 Alpha  occ. eigenvalues --  -89.21803 -89.14122 -10.47332 -10.43719  -8.29629
 Alpha  occ. eigenvalues --   -8.22272  -6.25791  -6.25685  -6.25415  -6.19124
 Alpha  occ. eigenvalues --   -6.18516  -6.17453  -1.13369  -1.01579  -0.91393
 Alpha  occ. eigenvalues --   -0.80177  -0.71203  -0.69532  -0.63976  -0.53704
 Alpha  occ. eigenvalues --   -0.53553  -0.52274  -0.51178
 Alpha virt. eigenvalues --   -0.33832  -0.29133  -0.24825  -0.21997  -0.19373
 Alpha virt. eigenvalues --   -0.14449  -0.12393  -0.11523  -0.10764  -0.08862
 Alpha virt. eigenvalues --   -0.08432  -0.08176  -0.06275  -0.06128  -0.05365

  Beta  occ. eigenvalues --  -89.21773 -89.13542 -10.47308 -10.43692  -8.29593
  Beta  occ. eigenvalues --   -8.21743  -6.25790  -6.25679  -6.25311  -6.18195
  Beta  occ. eigenvalues --   -6.17306  -6.17121  -1.12874  -1.00442  -0.89003
  Beta  occ. eigenvalues --   -0.79962  -0.70992  -0.68362  -0.62324  -0.53245
  Beta  occ. eigenvalues --   -0.52219  -0.50199
  Beta virt. eigenvalues --   -0.41116  -0.33260  -0.28299  -0.24443  -0.21839
  Beta virt. eigenvalues --   -0.19118  -0.14223  -0.12230  -0.11143  -0.10537
  Beta virt. eigenvalues --   -0.08615  -0.08133  -0.07395  -0.05980  -0.05749

 Mulliken charges and spin densities:
               1          2
     1  S    0.426486   0.014840
     2  S    0.118534   0.913621
     3  C    0.507583   0.011727
     4  C   -0.519942   0.030962
     5  H    0.245958   0.002464
     6  H    0.221382   0.026386
 Sum of Mulliken charges =   1.00000   1.00000

 Dipole moment (field-independent basis, Debye):
    X=             -0.1993    Y=              1.4100    Z=              0.8419  Tot=              1.6543
 Quadrupole moment (field-independent basis, Debye-Ang):
   XX=            -25.3932   YY=            -33.2749   ZZ=            -31.1002
   XY=             -1.9072   XZ=             -3.7451   YZ=             -1.7123

  Exact polarizability:  80.707   0.994  46.715   2.206   0.137  45.268
 Approx polarizability: 143.334  -0.054  85.004   7.987   3.378  78.304

                      1                      2                      3
                      A                      A                      A
 Frequencies --     98.3093               193.7209               212.4880
 Red. masses --      7.0476                 5.8035                 5.3672
 Frc consts  --      0.0401                 0.1283                 0.1428
 IR Inten    --     12.1814                10.0582                 2.6027

                      4                      5                      6
                      A                      A                      A
 Frequencies --    432.0126               637.4096               657.2981
 Red. masses --      6.9725                 1.2933                 4.9468
 Frc consts  --      0.7667                 0.3096                 1.2592
 IR Inten    --      5.6114                 6.7736                45.0056

                      7                      8                      9
                      A                      A                      A
 Frequencies --    682.4127               885.6216              1039.2832
 Red. masses --      1.6240                 1.0516                 1.0995
 Frc consts  --      0.4456                 0.4860                 0.6997
 IR Inten    --     50.9084                 7.4609                10.1558

                     10                     11                     12
                      A                      A                      A
 Frequencies --   1636.1369              2550.8956              3201.1247
 Red. masses --      7.7904                 1.0392                 1.1033
 Frc consts  --     12.2870                 3.9842                 6.6610
 IR Inten    --    209.2148                59.1223               110.4152

 - Thermochemistry -
 -------------------
 Temperature   298.150 Kelvin.  Pressure   1.00000 Atm.
 Atom     1 has atomic number 16 and mass  31.97207

 Molecular mass:    89.95979 amu.
 Principal axes and moments of inertia in atomic units:
                           1         2         3
     Eigenvalues --   146.34982 610.27026 678.04469
           X            0.99987  -0.00313  -0.01553
           Y            0.00220   0.99822  -0.05962
           Z            0.01568   0.05958   0.99810
 This molecule is an asymmetric top.
 Rotational symmetry number  1.
 Rotational temperatures (Kelvin)      0.59183     0.14193     0.12774
 Rotational constants (GHZ):          12.33169     2.95728     2.66168
 Zero-point vibrational energy      73132.0 (Joules/Mol)
                                   17.47896 (Kcal/Mol)
 Warning -- explicit consideration of   4 degrees of freedom as
           vibrations may cause significant error
 Vibrational temperatures:    141.44   278.72   305.72   621.57   917.09
          (Kelvin)            945.70   981.84  1274.21  1495.29  2354.03
                             3670.17  4605.70

 Zero-point correction=                           0.027855 (Hartree/Particle)
 Thermal correction to Energy=                    0.033299
 Thermal correction to Enthalpy=                  0.034244
 Thermal correction to Gibbs Free Energy=        -0.001987
 Sum of electronic and zero-point Energies=           -873.349166
 Sum of electronic and thermal Energies=              -873.343721
 Sum of electronic and thermal Enthalpies=            -873.342777
 Sum of electronic and thermal Free Energies=         -873.379008

                     E (Thermal)             CV                S
                      KCal/Mol        Cal/Mol-Kelvin    Cal/Mol-Kelvin
 Total                   20.896             16.617             76.254
 Electronic               0.000              0.000              1.377
 Translational            0.889              2.981             39.403
 Rotational               0.889              2.981             25.607
 Vibrational             19.118             10.655              9.866
 Vibration     1          0.604              1.950              3.488
 Vibration     2          0.635              1.849              2.192
 Vibration     3          0.644              1.822              2.022
 Vibration     4          0.793              1.400              0.852

 Normal termination of Gaussian 09 at Wed Aug  3 21:12:11 2016.
