 Gaussian 09, Revision E.01,
 Gaussian 09:  EM64L-G09RevE.01 30-Nov-2015

 ------------------------------
 #p b3lyp/6-311++G(3df,2p) freq
 ------------------------------

 ---------
 b3lyp opt
 ---------
 Symbolic Z-matrix:
 Charge =  1 Multiplicity = 2

                         Standard orientation:
 ---------------------------------------------------------------------
 Center     Atomic      Atomic             Coordinates (Angstroms)
 Number     Number       Type             X           Y           Z
 ---------------------------------------------------------------------
      1         16           0        1.617719    0.699386   -0.000000
      2         16           0       -1.147581   -1.093211    0.000000
      3          6           0        0.000000    0.265728   -0.000000
      4          6           0       -1.268576    0.641657    0.000000
      5          1           0       -2.021122    1.412883    0.000000
      6          1           0        2.110357   -0.555989   -0.000000
 ---------------------------------------------------------------------

 SCF Done:  E(UB3LYP) =  -873.511661884     A.U. after   15 cycles

 The electronic state is 2-A".
 Alpha  occ. eigenvalues --  -89.14554 -89.11363 -10.50699 -10.47695  -8.22681
 Alpha  occ. eigenvalues --   -8.19816  -6.18843  -6.18816  -6.18547  -6.16146
 Alpha  occ. eigenvalues --   -6.15713  -6.15446  -1.16781  -1.02234  -0.88103
 Alpha  occ. eigenvalues --   -0.80037  -0.72710  -0.65457  -0.64985  -0.60954
 Alpha  occ. eigenvalues --   -0.56510  -0.52362  -0.44841
 Alpha virt. eigenvalues --   -0.26709  -0.26697  -0.20273  -0.17143  -0.16239
 Alpha virt. eigenvalues --   -0.13595  -0.12384  -0.09873  -0.09834  -0.08182
 Alpha virt. eigenvalues --   -0.06895  -0.06863  -0.06221  -0.05543  -0.05003

  Beta  occ. eigenvalues --  -89.14155 -89.11313 -10.50587 -10.47178  -8.22321
  Beta  occ. eigenvalues --   -8.19770  -6.18607  -6.18313  -6.17604  -6.16124
  Beta  occ. eigenvalues --   -6.15689  -6.15283  -1.15768  -1.01913  -0.85852
  Beta  occ. eigenvalues --   -0.79410  -0.72209  -0.64717  -0.62554  -0.60120
  Beta  occ. eigenvalues --   -0.56124  -0.50054
  Beta virt. eigenvalues --   -0.35320  -0.26242  -0.24701  -0.19779  -0.16741
  Beta virt. eigenvalues --   -0.15960  -0.13341  -0.12201  -0.09737  -0.09695
  Beta virt. eigenvalues --   -0.08088  -0.06868  -0.06631  -0.06210  -0.05121

 Mulliken charges and spin densities:
               1          2
     1  S   -0.047158   0.079424
     2  S    0.243533   0.610958
     3  C   -0.107417   0.029504
     4  C    0.355542   0.295336
     5  H    0.360159  -0.013283
     6  H    0.195340  -0.001939
 Sum of Mulliken charges =   1.00000   1.00000

 Dipole moment (field-independent basis, Debye):
    X=             -0.6810    Y=              0.0037    Z=              0.0000  Tot=              0.6810
 Quadrupole moment (field-independent basis, Debye-Ang):
   XX=            -18.8353   YY=            -27.6965   ZZ=            -35.6908
   XY=             -0.7263   XZ=              0.0000   YZ=             -0.0000

  Exact polarizability:  79.408  12.297  56.816   0.000   0.000  35.370
 Approx polarizability: 144.371  25.624 109.949  -0.000  -0.000  55.908

                      1                      2                      3
                     A'                     A"                     A"
 Frequencies --    263.4613               306.2645               410.9213
 Red. masses --      6.5154                 1.7396                 1.7835
 Frc consts  --      0.2665                 0.0961                 0.1774
 IR Inten    --      2.7078                 3.4922                29.3962

                      4                      5                      6
                     A'                     A"                     A'
 Frequencies --    486.3084               675.2599               776.2249
 Red. masses --      8.2200                 1.4737                 5.9444
 Frc consts  --      1.1454                 0.3959                 2.1102
 IR Inten    --      1.9849                23.2431                 4.7089

                      7                      8                      9
                     A'                     A'                     A'
 Frequencies --    848.4382               992.0454              1016.9862
 Red. masses --      5.0784                 1.2642                 1.2717
 Frc consts  --      2.1538                 0.7330                 0.7749
 IR Inten    --     34.5407                10.7547                35.8961

                     10                     11                     12
                     A'                     A'                     A'
 Frequencies --   1633.5054              2649.5200              3264.9837
 Red. masses --      7.8617                 1.0389                 1.1105
 Frc consts  --     12.3596                 4.2971                 6.9751
 IR Inten    --    133.6225                31.6693               119.7061

 - Thermochemistry -
 -------------------
 Temperature   298.150 Kelvin.  Pressure   1.00000 Atm.
 Atom     1 has atomic number 16 and mass  31.97207

 Molecular mass:    89.95979 amu.
 Principal axes and moments of inertia in atomic units:
                           1         2         3
     Eigenvalues --   108.32151 661.76455 770.08606
           X            0.89218  -0.45169   0.00000
           Y            0.45169   0.89218   0.00000
           Z            0.00000  -0.00000   1.00000
 This molecule is an asymmetric top.
 Rotational symmetry number  1.
 Rotational temperatures (Kelvin)      0.79960     0.13088     0.11247
 Rotational constants (GHZ):          16.66097     2.72717     2.34356
 Zero-point vibrational energy      79694.7 (Joules/Mol)
                                   19.04750 (Kcal/Mol)
 Warning -- explicit consideration of   4 degrees of freedom as
           vibrations may cause significant error
 Vibrational temperatures:    379.06   440.65   591.22   699.69   971.55
          (Kelvin)           1116.81  1220.71  1427.33  1463.21  2350.25
                             3812.06  4697.58

 Zero-point correction=                           0.030354 (Hartree/Particle)
 Thermal correction to Energy=                    0.034950
 Thermal correction to Enthalpy=                  0.035894
 Thermal correction to Gibbs Free Energy=         0.001751
 Sum of electronic and zero-point Energies=           -873.481308
 Sum of electronic and thermal Energies=              -873.476712
 Sum of electronic and thermal Enthalpies=            -873.475768
 Sum of electronic and thermal Free Energies=         -873.509911

                     E (Thermal)             CV                S
                      KCal/Mol        Cal/Mol-Kelvin    Cal/Mol-Kelvin
 Total                   21.931             15.025             71.860
 Electronic               0.000              0.000              1.377
 Translational            0.889              2.981             39.403
 Rotational               0.889              2.981             25.515
 Vibrational             20.154              9.063              5.564
 Vibration     1          0.670              1.740              1.639
 Vibration     2          0.697              1.662              1.382
 Vibration     3          0.775              1.447              0.923
 Vibration     4          0.842              1.280              0.693

 Normal termination of Gaussian 09 at Wed Aug  3 23:05:05 2016.
