 Gaussian 09, Revision E.01,
 Gaussian 09:  EM64L-G09RevE.01 30-Nov-2015

 ------------------------------
 #p b3lyp/6-311++G(3df,2p) freq
 ------------------------------

 ---------
 b3lyp opt
 ---------
 Symbolic Z-matrix:
 Charge =  0 Multiplicity = 3

                         Standard orientation:
 ---------------------------------------------------------------------
 Center     Atomic      Atomic             Coordinates (Angstroms)
 Number     Number       Type             X           Y           Z
 ---------------------------------------------------------------------
      1         16           0        0.000000    0.825861    0.000000
      2          6           0       -0.840284   -0.651315   -0.000000
      3          6           0        0.503286   -1.090598   -0.000000
      4          1           0        1.010995   -1.381145    0.918124
      5          1           0        1.010995   -1.381145   -0.918124
 ---------------------------------------------------------------------

 SCF Done:  E(UB3LYP) =  -475.484718258     A.U. after   15 cycles

 The electronic state is 3-A".
 Alpha  occ. eigenvalues --  -88.88421 -10.25156 -10.23335  -7.96725  -5.93152
 Alpha  occ. eigenvalues --   -5.92835  -5.92271  -0.88924  -0.67139  -0.57303
 Alpha  occ. eigenvalues --   -0.49096  -0.42052  -0.37959  -0.31252  -0.28197
 Alpha  occ. eigenvalues --   -0.18842
 Alpha virt. eigenvalues --   -0.05942  -0.00394   0.01733   0.02237   0.03743
 Alpha virt. eigenvalues --    0.06399   0.07189   0.07878   0.08160   0.09094
 Alpha virt. eigenvalues --    0.09726   0.12469   0.12882   0.13676   0.14223

  Beta  occ. eigenvalues --  -88.88120 -10.25126 -10.20794  -7.96449  -5.92803
  Beta  occ. eigenvalues --   -5.92375  -5.91803  -0.86878  -0.65975  -0.53594
  Beta  occ. eigenvalues --   -0.47768  -0.37194  -0.36103  -0.27885
  Beta virt. eigenvalues --   -0.14566  -0.05415  -0.04768  -0.00183   0.02364
  Beta virt. eigenvalues --    0.02422   0.04228   0.06469   0.07231   0.08056
  Beta virt. eigenvalues --    0.08634   0.10132   0.10835   0.12735   0.13024

 Mulliken charges and spin densities:
               1          2
     1  S   -0.090162   0.493995
     2  C   -0.101752   1.530068
     3  C   -0.079160  -0.089047
     4  H    0.135537   0.032492
     5  H    0.135537   0.032492
 Sum of Mulliken charges =  -0.00000   2.00000

 Dipole moment (field-independent basis, Debye):
    X=              1.3582    Y=             -1.0364    Z=             -0.0000  Tot=              1.7085
 Quadrupole moment (field-independent basis, Debye-Ang):
   XX=            -25.3148   YY=            -23.7597   ZZ=            -26.2515
   XY=             -2.1503   XZ=             -0.0000   YZ=              0.0000

  Exact polarizability:  41.891  -0.289  53.914   0.000   0.000  36.426
 Approx polarizability:  68.813   3.665  98.422   0.000   0.000  50.842

                      1                      2                      3
                     A'                     A"                     A'
 Frequencies --    403.3509               694.8112               851.9607
 Red. masses --      7.9430                 1.0597                13.7111
 Frc consts  --      0.7614                 0.3014                 5.8636
 IR Inten    --     13.8639                 0.9760                 5.3432

                      4                      5                      6
                     A"                     A'                     A'
 Frequencies --   1011.6567              1052.2999              1231.5418
 Red. masses --      1.2874                 1.1997                 5.2578
 Frc consts  --      0.7763                 0.7827                 4.6984
 IR Inten    --      0.1584                26.0185                 5.6632

                      7                      8                      9
                     A'                     A'                     A"
 Frequencies --   1487.2893              3045.3106              3116.8043
 Red. masses --      1.1643                 1.0478                 1.1176
 Frc consts  --      1.5174                 5.7250                 6.3969
 IR Inten    --      3.6707                16.6294                 6.1173

 - Thermochemistry -
 -------------------
 Temperature   298.150 Kelvin.  Pressure   1.00000 Atm.
 Atom     1 has atomic number 16 and mass  31.97207

 Molecular mass:    57.98772 amu.
 Principal axes and moments of inertia in atomic units:
                           1         2         3
     Eigenvalues --    53.44117 167.21108 208.51708
           X           -0.08631   0.99627   0.00000
           Y            0.99627   0.08631   0.00000
           Z           -0.00000  -0.00000   1.00000
 This molecule is an asymmetric top.
 Rotational symmetry number  1.
 Rotational temperatures (Kelvin)      1.62073     0.51799     0.41538
 Rotational constants (GHZ):          33.77062    10.79319     8.65512
 Zero-point vibrational energy      77129.4 (Joules/Mol)
                                   18.43436 (Kcal/Mol)
 Warning -- explicit consideration of   1 degrees of freedom as
           vibrations may cause significant error
 Vibrational temperatures:    580.33   999.68  1225.78  1455.55  1514.02
          (Kelvin)           1771.91  2139.87  4381.52  4484.38

 Zero-point correction=                           0.029377 (Hartree/Particle)
 Thermal correction to Energy=                    0.032780
 Thermal correction to Enthalpy=                  0.033725
 Thermal correction to Gibbs Free Energy=         0.003283
 Sum of electronic and zero-point Energies=           -475.455341
 Sum of electronic and thermal Energies=              -475.451938
 Sum of electronic and thermal Enthalpies=            -475.450994
 Sum of electronic and thermal Free Energies=         -475.481436

                     E (Thermal)             CV                S
                      KCal/Mol        Cal/Mol-Kelvin    Cal/Mol-Kelvin
 Total                   20.570              9.784             64.071
 Electronic               0.000              0.000              2.183
 Translational            0.889              2.981             38.094
 Rotational               0.889              2.981             22.148
 Vibrational             18.793              3.823              1.645
 Vibration     1          0.769              1.463              0.950

 Optimization completed.
    -- Stationary point found.
 Normal termination of Gaussian 09 at Wed Aug  3 23:00:55 2016.
