 Gaussian 09, Revision E.01,
 Gaussian 09:  EM64L-G09RevE.01 30-Nov-2015

 ------------------------------
 #p b3lyp/6-311++G(3df,2p) freq
 ------------------------------

 ---------
 b3lyp opt
 ---------
 Symbolic Z-matrix:
 Charge =  2 Multiplicity = 3

                         Standard orientation:
 ---------------------------------------------------------------------
 Center     Atomic      Atomic             Coordinates (Angstroms)
 Number     Number       Type             X           Y           Z
 ---------------------------------------------------------------------
      1         16           0       -0.485068   -0.970391    0.000000
      2          6           0        1.100247    1.334951   -0.000000
      3          6           0        0.000000    0.676779   -0.000000
      4          1           0        1.984307    1.991596   -0.000000
      5          1           0       -0.824691    1.464282   -0.000000
 ---------------------------------------------------------------------

 SCF Done:  E(UB3LYP) =  -474.608791104     A.U. after   15 cycles

 The electronic state is 3-A".
 Alpha  occ. eigenvalues --  -89.49462 -10.84155 -10.76336  -8.56851  -6.53495
 Alpha  occ. eigenvalues --   -6.53241  -6.52697  -1.38762  -1.28809  -1.09247
 Alpha  occ. eigenvalues --   -1.01349  -0.96957  -0.90195  -0.83914  -0.81254
 Alpha virt. eigenvalues --   -0.65752  -0.52870  -0.45208  -0.36312  -0.34900
 Alpha virt. eigenvalues --   -0.32707  -0.29005  -0.28795  -0.28014  -0.26969
 Alpha virt. eigenvalues --   -0.26789  -0.23032  -0.22468  -0.20621  -0.20019

  Beta  occ. eigenvalues --  -89.48240 -10.83433 -10.76613  -8.55741  -6.52020
  Beta  occ. eigenvalues --   -6.51144  -6.51086  -1.36652  -1.23465  -1.07820
  Beta  occ. eigenvalues --   -1.00148  -0.94510  -0.86299
  Beta virt. eigenvalues --   -0.68308  -0.67981  -0.64476  -0.50369  -0.43071
  Beta virt. eigenvalues --   -0.35473  -0.34147  -0.32060  -0.27709  -0.26893
  Beta virt. eigenvalues --   -0.25940  -0.25160  -0.24804  -0.21687  -0.21402

 Mulliken charges and spin densities:
               1          2
     1  S    0.781927   1.760403
     2  C    0.458269   0.417182
     3  C    0.003285  -0.195880
     4  H    0.457284  -0.007438
     5  H    0.299235   0.025733
 Sum of Mulliken charges =   2.00000   2.00000

 Dipole moment (field-independent basis, Debye):
    X=              2.0174    Y=              3.5960    Z=             -0.0000  Tot=              4.1233
 Quadrupole moment (field-independent basis, Debye-Ang):
   XX=             -7.1301   YY=             -0.0038   ZZ=            -20.1555
   XY=              9.9771   XZ=             -0.0000   YZ=             -0.0000

  Exact polarizability:  32.660  12.255  42.168   0.000   0.000  19.912
 Approx polarizability:  59.570  26.386  74.089  -0.000  -0.000  28.963

                      1                      2                      3
                     A'                     A"                     A'
 Frequencies --    201.3104               558.3374               665.3344
 Red. masses --      2.9982                 1.4425                 7.5549
 Frc consts  --      0.0716                 0.2649                 1.9704
 IR Inten    --     13.8893                84.0514                30.4185

                      4                      5                      6
                     A"                     A'                     A'
 Frequencies --    671.8895               817.7989              1042.7209
 Red. masses --      1.4395                 1.1586                 1.4284
 Frc consts  --      0.3829                 0.4565                 0.9150
 IR Inten    --     18.1208                 5.7440                 1.1464

                      7                      8                      9
                     A'                     A'                     A'
 Frequencies --   1610.4284              2647.4725              3080.7579
 Red. masses --      5.8014                 1.0730                 1.1354
 Frc consts  --      8.8648                 4.4313                 6.3489
 IR Inten    --    349.3970               394.6278               343.9064

 - Thermochemistry -
 -------------------
 Temperature   298.150 Kelvin.  Pressure   1.00000 Atm.
 Atom     1 has atomic number 16 and mass  31.97207

 Molecular mass:    57.98772 amu.
 Principal axes and moments of inertia in atomic units:
                           1         2         3
     Eigenvalues --    18.08071 301.98588 320.06658
           X            0.52145   0.85328  -0.00000
           Y            0.85328  -0.52145   0.00000
           Z           -0.00000   0.00000   1.00000
 This molecule is an asymmetric top.
 Rotational symmetry number  1.
 Rotational temperatures (Kelvin)      4.79040     0.28681     0.27061
 Rotational constants (GHZ):          99.81586     5.97624     5.63864
 Zero-point vibrational energy      67565.4 (Joules/Mol)
                                   16.14851 (Kcal/Mol)
 Warning -- explicit consideration of   2 degrees of freedom as
           vibrations may cause significant error
 Vibrational temperatures:    289.64   803.32   957.27   966.70  1176.63
          (Kelvin)           1500.24  2317.04  3809.12  4432.52

 Zero-point correction=                           0.025734 (Hartree/Particle)
 Thermal correction to Energy=                    0.029670
 Thermal correction to Enthalpy=                  0.030614
 Thermal correction to Gibbs Free Energy=        -0.000736
 Sum of electronic and zero-point Energies=           -474.583057
 Sum of electronic and thermal Energies=              -474.579122
 Sum of electronic and thermal Enthalpies=            -474.578177
 Sum of electronic and thermal Free Energies=         -474.609527

                     E (Thermal)             CV                S
                      KCal/Mol        Cal/Mol-Kelvin    Cal/Mol-Kelvin
 Total                   18.618             11.708             65.980
 Electronic               0.000              0.000              2.183
 Translational            0.889              2.981             38.094
 Rotational               0.889              2.981             22.085
 Vibrational             16.840              5.747              3.619
 Vibration     1          0.638              1.838              2.121
 Vibration     2          0.914              1.121              0.527

 Optimization completed.
    -- Stationary point found.
 Normal termination of Gaussian 09 at Wed Aug  3 23:05:17 2016.
