 Gaussian 09, Revision E.01,
 Gaussian 09:  EM64L-G09RevE.01 30-Nov-2015

 ------------------------------
 #p b3lyp/6-311++G(3df,2p) freq
 ------------------------------

 ---------
 b3lyp opt
 ---------
 Symbolic Z-matrix:
 Charge =  0 Multiplicity = 1

                         Standard orientation:
 ---------------------------------------------------------------------
 Center     Atomic      Atomic             Coordinates (Angstroms)
 Number     Number       Type             X           Y           Z
 ---------------------------------------------------------------------
      1         16           0        2.273856   -0.064357   -0.070334
      2         16           0       -2.273927    0.063876   -0.070460
      3          6           0       -0.605916   -0.022358    0.045632
      4          6           0        0.605926    0.023364    0.045838
      5          1           0        2.589126    0.869868    0.850723
      6          1           0       -2.588060   -0.868215    0.853168
 ---------------------------------------------------------------------

 SCF Done:  E(RB3LYP) =  -873.816719313     A.U. after   12 cycles

 The electronic state is 1-A.
 Alpha  occ. eigenvalues --  -88.89005 -88.89004 -10.20422 -10.20212  -7.97470
 Alpha  occ. eigenvalues --   -7.97469  -5.93842  -5.93841  -5.93463  -5.93462
 Alpha  occ. eigenvalues --   -5.92955  -5.92954  -0.83246  -0.80040  -0.70999
 Alpha  occ. eigenvalues --   -0.52470  -0.48965  -0.41179  -0.40386  -0.34714
 Alpha  occ. eigenvalues --   -0.34700  -0.24947  -0.24918
 Alpha virt. eigenvalues --   -0.02779  -0.02242  -0.00436  -0.00240   0.02086
 Alpha virt. eigenvalues --    0.02481   0.03798   0.04110   0.06309   0.06384
 Alpha virt. eigenvalues --    0.06611   0.06970   0.08970   0.09646   0.10450

 Mulliken charges:
               1
     1  S   -0.266799
     2  S   -0.266819
     3  C    0.117681
     4  C    0.117378
     5  H    0.149282
     6  H    0.149277
 Sum of Mulliken charges =  -0.00000

 Dipole moment (field-independent basis, Debye):
    X=              0.0002    Y=              0.0005    Z=              1.0233  Tot=              1.0233
 Quadrupole moment (field-independent basis, Debye-Ang):
   XX=            -32.2285   YY=            -38.1078   ZZ=            -38.1993
   XY=              3.5969   XZ=             -0.0036   YZ=             -0.0010

  Exact polarizability: 119.774   3.241  47.607   0.010   0.001  47.544
 Approx polarizability: 194.699   7.384  74.571   0.002  -0.002  74.370

                      1                      2                      3
                      A                      A                      A
 Frequencies --    147.3087               149.8032               322.0618
 Red. masses --      8.1398                 5.6835                 1.0755
 Frc consts  --      0.1041                 0.0751                 0.0657
 IR Inten    --      4.0720                 7.5219                14.0859

                      4                      5                      6
                      A                      A                      A
 Frequencies --    396.8663               402.1107               469.7737
 Red. masses --      8.7865                 8.2980                14.6753
 Frc consts  --      0.8154                 0.7905                 1.9082
 IR Inten    --      0.3994                 0.2376                 0.0175

                      7                      8                      9
                      A                      A                      A
 Frequencies --    951.5092               979.6532              1007.5450
 Red. masses --      3.4289                 1.1137                 1.4908
 Frc consts  --      1.8291                 0.6297                 0.8916
 IR Inten    --     11.5217                 6.6281                27.6512

                     10                     11                     12
                      A                      A                      A
 Frequencies --   2175.8160              2611.3497              2611.6348
 Red. masses --     11.1223                 1.0432                 1.0397
 Frc consts  --     31.0233                 4.1914                 4.1781
 IR Inten    --      1.4770                 2.3620                15.2098

 - Thermochemistry -
 -------------------
 Temperature   298.150 Kelvin.  Pressure   1.00000 Atm.
 Atom     1 has atomic number 16 and mass  31.97207

 Molecular mass:    89.95979 amu.
 Principal axes and moments of inertia in atomic units:
                           1         2         3
     Eigenvalues --    12.640271266.813781267.01839
           X            0.99992   0.00015   0.01269
           Y           -0.01269   0.01304   0.99983
           Z            0.00002   0.99991  -0.01304
 This molecule is an asymmetric top.
 Rotational symmetry number  1.
 Rotational temperatures (Kelvin)      6.85221     0.06837     0.06836
 Rotational constants (GHZ):         142.77716     1.42463     1.42440
 Zero-point vibrational energy      73124.3 (Joules/Mol)
                                   17.47713 (Kcal/Mol)
 Warning -- explicit consideration of   6 degrees of freedom as
           vibrations may cause significant error
 Vibrational temperatures:    211.94   215.53   463.37   571.00   578.55
          (Kelvin)            675.90  1369.01  1409.50  1449.63  3130.51
                             3757.15  3757.56

 Zero-point correction=                           0.027852 (Hartree/Particle)
 Thermal correction to Energy=                    0.033357
 Thermal correction to Enthalpy=                  0.034301
 Thermal correction to Gibbs Free Energy=        -0.000659
 Sum of electronic and zero-point Energies=           -873.788868
 Sum of electronic and thermal Energies=              -873.783363
 Sum of electronic and thermal Enthalpies=            -873.782418
 Sum of electronic and thermal Free Energies=         -873.817378

                     E (Thermal)             CV                S
                      KCal/Mol        Cal/Mol-Kelvin    Cal/Mol-Kelvin
 Total                   20.932             16.872             73.579
 Electronic               0.000              0.000              0.000
 Translational            0.889              2.981             39.403
 Rotational               0.889              2.981             24.521
 Vibrational             19.154             10.910              9.655
 Vibration     1          0.617              1.906              2.707
 Vibration     2          0.618              1.903              2.675
 Vibration     3          0.707              1.631              1.300
 Vibration     4          0.763              1.477              0.974
 Vibration     5          0.768              1.466              0.955
 Vibration     6          0.827              1.317              0.738

 Optimization completed.
    -- Stationary point found.
 Normal termination of Gaussian 09 at Wed Aug  3 20:58:49 2016.
