 Gaussian 09, Revision E.01,
 Gaussian 09:  EM64L-G09RevE.01 30-Nov-2015

 ------------------------------
 #p b3lyp/6-311++G(3df,2p) freq
 ------------------------------

 ---------
 b3lyp opt
 ---------
 Symbolic Z-matrix:
 Charge =  0 Multiplicity = 3

                         Standard orientation:
 ---------------------------------------------------------------------
 Center     Atomic      Atomic             Coordinates (Angstroms)
 Number     Number       Type             X           Y           Z
 ---------------------------------------------------------------------
      1         16           0        0.000000   -0.000000    0.507212
      2          6           0       -0.000000    1.364926   -0.423859
      3          6           0        0.000000   -1.364926   -0.423859
      4          1           0       -0.000000    1.307932   -1.514539
      5          1           0        0.000000   -1.307932   -1.514539
 ---------------------------------------------------------------------

 SCF Done:  E(UB3LYP) =  -475.437910423     A.U. after   12 cycles

 The electronic state is 3-B1.
 Alpha  occ. eigenvalues --  -88.92728 -10.23679 -10.23678  -8.00870  -5.97156
 Alpha  occ. eigenvalues --   -5.96760  -5.96532  -0.87211  -0.70358  -0.58978
 Alpha  occ. eigenvalues --   -0.48588  -0.38738  -0.38319  -0.31839  -0.25824
 Alpha  occ. eigenvalues --   -0.25042
 Alpha virt. eigenvalues --   -0.09626  -0.00545   0.01107   0.02594   0.04448
 Alpha virt. eigenvalues --    0.04474   0.05249   0.07292   0.07357   0.09156
 Alpha virt. eigenvalues --    0.09765   0.11948   0.12669   0.12684   0.14770

  Beta  occ. eigenvalues --  -88.92875 -10.22018 -10.22017  -8.00995  -5.97196
  Beta  occ. eigenvalues --   -5.97137  -5.96669  -0.85625  -0.65810  -0.56999
  Beta  occ. eigenvalues --   -0.47365  -0.36776  -0.36767  -0.25448
  Beta virt. eigenvalues --   -0.13451  -0.12521  -0.05224  -0.00335   0.01944
  Beta virt. eigenvalues --    0.02663   0.04669   0.04837   0.05514   0.07565
  Beta virt. eigenvalues --    0.08012   0.10024   0.10702   0.12577   0.13004

 Mulliken charges and spin densities:
               1          2
     1  S    0.084441  -0.180051
     2  C   -0.212530   1.100289
     3  C   -0.212530   1.100289
     4  H    0.170309  -0.010264
     5  H    0.170309  -0.010264
 Sum of Mulliken charges =   0.00000   2.00000

 Dipole moment (field-independent basis, Debye):
    X=             -0.0000    Y=              0.0000    Z=             -1.2199  Tot=              1.2199
 Quadrupole moment (field-independent basis, Debye-Ang):
   XX=            -25.9719   YY=            -30.6944   ZZ=            -22.8040
   XY=              0.0000   XZ=             -0.0000   YZ=              0.0000

  Exact polarizability:  31.764   0.000 101.393  -0.000  -0.000  42.804
 Approx polarizability:  49.181  -0.000 226.833   0.000   0.000  65.889

                      1                      2                      3
                     A1                     A2                     B2
 Frequencies --    351.9777               529.1918               594.4923
 Red. masses --      2.9471                 1.0786                 1.2682
 Frc consts  --      0.2151                 0.1780                 0.2641
 IR Inten    --     18.1186                 0.0000               686.5101

                      4                      5                      6
                     B2                     B1                     A1
 Frequencies --    709.0170               712.7517               893.1858
 Red. masses --      5.2118                 1.4422                 3.5128
 Frc consts  --      1.5437                 0.4317                 1.6512
 IR Inten    --     59.6002                39.5870                 3.2962

                      7                      8                      9
                     A1                     B2                     A1
 Frequencies --    996.3072              3085.4441              3088.5171
 Red. masses --      1.8095                 1.0861                 1.0875
 Frc consts  --      1.0582                 6.0920                 6.1119
 IR Inten    --      0.4254                31.3584                 6.0162

 - Thermochemistry -
 -------------------
 Temperature   298.150 Kelvin.  Pressure   1.00000 Atm.
 Atom     1 has atomic number 16 and mass  31.97207

 Molecular mass:    57.98772 amu.
 Principal axes and moments of inertia in atomic units:
                           1         2         3
     Eigenvalues --    60.73053 171.98501 232.71554
           X           -0.00000   0.00000   1.00000
           Y            1.00000   0.00000   0.00000
           Z           -0.00000   1.00000  -0.00000
 This molecule is an asymmetric top.
 Rotational symmetry number  2.
 Rotational temperatures (Kelvin)      1.42620     0.50361     0.37219
 Rotational constants (GHZ):          29.71720    10.49360     7.75514
 Zero-point vibrational energy      65560.6 (Joules/Mol)
                                   15.66937 (Kcal/Mol)
 Warning -- explicit consideration of   3 degrees of freedom as
           vibrations may cause significant error
 Vibrational temperatures:    506.42   761.39   855.34  1020.12  1025.49
          (Kelvin)           1285.09  1433.46  4439.26  4443.68

 Zero-point correction=                           0.024971 (Hartree/Particle)
 Thermal correction to Energy=                    0.028838
 Thermal correction to Enthalpy=                  0.029782
 Thermal correction to Gibbs Free Energy=        -0.000789
 Sum of electronic and zero-point Energies=           -475.412940
 Sum of electronic and thermal Energies=              -475.409072
 Sum of electronic and thermal Enthalpies=            -475.408128
 Sum of electronic and thermal Free Energies=         -475.438699

                     E (Thermal)             CV                S
                      KCal/Mol        Cal/Mol-Kelvin    Cal/Mol-Kelvin
 Total                   18.096             12.270             64.343
 Electronic               0.000              0.000              2.183
 Translational            0.889              2.981             38.094
 Rotational               0.889              2.981             21.035
 Vibrational             16.319              6.308              3.031
 Vibration     1          0.729              1.571              1.157
 Vibration     2          0.884              1.185              0.589
 Vibration     3          0.952              1.044              0.459

 Optimization completed.
    -- Stationary point found.
 Normal termination of Gaussian 09 at Wed Aug  3 22:58:13 2016.
