 Gaussian 09, Revision E.01,
 Gaussian 09:  EM64L-G09RevE.01 30-Nov-2015

 ------------------------------
 #p b3lyp/6-311++G(3df,2p) freq
 ------------------------------

 ---------
 b3lyp opt
 ---------
 Symbolic Z-matrix:
 Charge =  0 Multiplicity = 3

                         Standard orientation:
 ---------------------------------------------------------------------
 Center     Atomic      Atomic             Coordinates (Angstroms)
 Number     Number       Type             X           Y           Z
 ---------------------------------------------------------------------
      1         16           0        0.000000   -1.548023   -0.334911
      2         16           0        0.000000    1.548023   -0.334911
      3          6           0        0.000000   -0.000000    0.469568
      4          6           0        0.000000   -0.000000    1.859209
      5          1           0       -0.000000    1.164272   -1.627758
      6          1           0       -0.000000   -1.164272   -1.627758
 ---------------------------------------------------------------------

 SCF Done:  E(UB3LYP) =  -873.692263520     A.U. after   15 cycles

 The electronic state is 3-A2.
 Alpha  occ. eigenvalues --  -88.91285 -88.91284 -10.27469 -10.20478  -7.99793
 Alpha  occ. eigenvalues --   -7.99791  -5.96112  -5.96111  -5.95686  -5.95686
 Alpha  occ. eigenvalues --   -5.95500  -5.95500  -0.88500  -0.78727  -0.72520
 Alpha  occ. eigenvalues --   -0.53030  -0.51565  -0.44270  -0.40814  -0.37138
 Alpha  occ. eigenvalues --   -0.31339  -0.29765  -0.25255  -0.21493
 Alpha virt. eigenvalues --   -0.05968  -0.03729  -0.02895   0.00239   0.02712
 Alpha virt. eigenvalues --    0.02740   0.03930   0.04349   0.04611   0.06384
 Alpha virt. eigenvalues --    0.07004   0.07783   0.08302   0.09599   0.09648

  Beta  occ. eigenvalues --  -88.91106 -88.91106 -10.27152 -10.18698  -7.99617
  Beta  occ. eigenvalues --   -7.99615  -5.95962  -5.95962  -5.95548  -5.95548
  Beta  occ. eigenvalues --   -5.95063  -5.95063  -0.86907  -0.77665  -0.68861
  Beta  occ. eigenvalues --   -0.50827  -0.50549  -0.43759  -0.37934  -0.36499
  Beta  occ. eigenvalues --   -0.29055  -0.26632
  Beta virt. eigenvalues --   -0.16199  -0.08002  -0.05682  -0.02595  -0.00062
  Beta virt. eigenvalues --    0.01168   0.02903   0.03392   0.04396   0.04527
  Beta virt. eigenvalues --    0.04864   0.06452   0.07275   0.08103   0.09081

 Mulliken charges and spin densities:
               1          2
     1  S   -0.233186   0.245580
     2  S   -0.233186   0.245580
     3  C    0.658100   0.269405
     4  C   -0.439646   1.184690
     5  H    0.123959   0.027373
     6  H    0.123959   0.027373
 Sum of Mulliken charges =  -0.00000   2.00000

 Dipole moment (field-independent basis, Debye):
    X=             -0.0000    Y=              0.0000    Z=             -5.1437  Tot=              5.1437
 Quadrupole moment (field-independent basis, Debye-Ang):
   XX=            -40.3069   YY=            -37.5905   ZZ=            -43.4701
   XY=             -0.0000   XZ=             -0.0000   YZ=             -0.0000

  Exact polarizability:  49.004   0.000  94.878  -0.000  -0.000  81.245
 Approx polarizability:  75.652   0.000 159.844  -0.000  -0.000 139.043

                      1                      2                      3
                     A2                     B2                     A1
 Frequencies --    250.0453               272.2708               277.6067
 Red. masses --      1.0252                13.7241                 6.0112
 Frc consts  --      0.0378                 0.5994                 0.2729
 IR Inten    --      0.0000                 3.6321                 0.0000

                      4                      5                      6
                     B1                     B1                     A1
 Frequencies --    292.3229               399.1850               522.5792
 Red. masses --      1.1530                10.9666                17.2532
 Frc consts  --      0.0580                 1.0296                 2.7760
 IR Inten    --     10.0934                 4.8976                 3.3768

                      7                      8                      9
                     B2                     A1                     B2
 Frequencies --    801.3310               937.2966               940.3639
 Red. masses --      1.7158                 1.1928                 2.2258
 Frc consts  --      0.6491                 0.6174                 1.1596
 IR Inten    --     90.4279                 1.1317                84.7029

                     10                     11                     12
                     A1                     B2                     A1
 Frequencies --   1282.2231              2605.6647              2624.0158
 Red. masses --      8.2791                 1.0386                 1.0379
 Frc consts  --      8.0197                 4.1546                 4.2105
 IR Inten    --      0.4774                 0.0751                 7.1292

 - Thermochemistry -
 -------------------
 Temperature   298.150 Kelvin.  Pressure   1.00000 Atm.
 Atom     1 has atomic number 16 and mass  31.97207

 Molecular mass:    89.95979 amu.
 Principal axes and moments of inertia in atomic units:
                           1         2         3
     Eigenvalues --   201.84178 556.96631 758.80809
           X            0.00000  -0.00000   1.00000
           Y            1.00000   0.00000  -0.00000
           Z           -0.00000   1.00000   0.00000
 This molecule is an asymmetric top.
 Rotational symmetry number  2.
 Rotational temperatures (Kelvin)      0.42912     0.15551     0.11414
 Rotational constants (GHZ):           8.94137     3.24031     2.37839
 Zero-point vibrational energy      67020.2 (Joules/Mol)
                                   16.01822 (Kcal/Mol)
 Warning -- explicit consideration of   6 degrees of freedom as
           vibrations may cause significant error
 Vibrational temperatures:    359.76   391.74   399.41   420.59   574.34
          (Kelvin)            751.87  1152.94  1348.56  1352.97  1844.83
                             3748.97  3775.37

 Zero-point correction=                           0.025527 (Hartree/Particle)
 Thermal correction to Energy=                    0.030882
 Thermal correction to Enthalpy=                  0.031826
 Thermal correction to Gibbs Free Energy=        -0.003582
 Sum of electronic and zero-point Energies=           -873.666737
 Sum of electronic and thermal Energies=              -873.661382
 Sum of electronic and thermal Enthalpies=            -873.660438
 Sum of electronic and thermal Free Energies=         -873.695845

                     E (Thermal)             CV                S
                      KCal/Mol        Cal/Mol-Kelvin    Cal/Mol-Kelvin
 Total                   19.379             17.229             74.522
 Electronic               0.000              0.000              2.183
 Translational            0.889              2.981             39.403
 Rotational               0.889              2.981             24.570
 Vibrational             17.601             11.268              8.366
 Vibration     1          0.663              1.763              1.730
 Vibration     2          0.675              1.724              1.582
 Vibration     3          0.679              1.715              1.548
 Vibration     4          0.688              1.688              1.460
 Vibration     5          0.765              1.472              0.966
 Vibration     6          0.878              1.200              0.604

 Optimization completed.
    -- Stationary point found.
 Normal termination of Gaussian 09 at Wed Aug  3 23:01:03 2016.
