 Gaussian 09, Revision E.01,
 Gaussian 09:  EM64L-G09RevE.01 30-Nov-2015

 ------------------------------
 #p b3lyp/6-311++G(3df,2p) freq
 ------------------------------

 ---------
 b3lyp opt
 ---------
 Symbolic Z-matrix:
 Charge =  2 Multiplicity = 1

                         Standard orientation:
 ---------------------------------------------------------------------
 Center     Atomic      Atomic             Coordinates (Angstroms)
 Number     Number       Type             X           Y           Z
 ---------------------------------------------------------------------
      1         16           0       -1.538636   -0.442421    0.000312
      2         16           0        1.686608   -0.110623   -0.106444
      3          6           0       -0.052392    0.211924    0.025701
      4          6           0       -0.995897    1.297546    0.006853
      5          1           0        2.119011    0.914587    0.694530
      6          1           0        1.803181   -1.122703    0.808261
 ---------------------------------------------------------------------

 SCF Done:  E(RB3LYP) =  -872.880759712     A.U. after   15 cycles

 The electronic state is 1-A.
 Alpha  occ. eigenvalues --  -89.42592 -89.42051 -10.76200 -10.71882  -8.50715
 Alpha  occ. eigenvalues --   -8.49882  -6.46985  -6.46711  -6.46353  -6.46187
 Alpha  occ. eigenvalues --   -6.45843  -6.45525  -1.40917  -1.30184  -1.09125
 Alpha  occ. eigenvalues --   -1.03103  -0.95572  -0.90801  -0.88474  -0.82749
 Alpha  occ. eigenvalues --   -0.79957  -0.71719
 Alpha virt. eigenvalues --   -0.60610  -0.50722  -0.49143  -0.45772  -0.43605
 Alpha virt. eigenvalues --   -0.40020  -0.36898  -0.31781  -0.29740  -0.27494
 Alpha virt. eigenvalues --   -0.26722  -0.26012  -0.24730  -0.22611  -0.21224

 Mulliken charges:
               1
     1  S    0.565202
     2  S    0.222840
     3  C    0.507301
     4  C    0.107361
     5  H    0.301013
     6  H    0.296283
 Sum of Mulliken charges =   2.00000

 Dipole moment (field-independent basis, Debye):
    X=              3.2812    Y=             -1.7885    Z=              1.3674  Tot=              3.9793
 Quadrupole moment (field-independent basis, Debye-Ang):
   XX=             -2.0849   YY=            -27.6154   ZZ=            -28.8018
   XY=              2.8768   XZ=              3.2703   YZ=             -0.3904

  Exact polarizability:  66.840   1.829  46.621   1.555  -0.244  32.427
 Approx polarizability: 123.234  17.359  96.772   1.264  -0.340  56.580

                      1                      2                      3
                      A                      A                      A
 Frequencies --    176.8941               255.6000               360.2210
 Red. masses --      1.2115                 5.8938                 6.1249
 Frc consts  --      0.0223                 0.2269                 0.4683
 IR Inten    --     24.3002                 0.4446                 7.7552

                      4                      5                      6
                      A                      A                      A
 Frequencies --    457.5768               618.7531               820.2514
 Red. masses --     11.6715                12.8651                 1.2220
 Frc consts  --      1.4398                 2.9020                 0.4844
 IR Inten    --      3.5527                23.9684                24.1712

                      7                      8                      9
                      A                      A                      A
 Frequencies --    842.5797              1067.1946              1156.0851
 Red. masses --      1.3613                 3.9227                 1.0537
 Frc consts  --      0.5694                 2.6322                 0.8297
 IR Inten    --      6.3056                69.0409                17.1193

                     10                     11                     12
                      A                      A                      A
 Frequencies --   1286.5175              2483.1494              2501.2313
 Red. masses --     10.0615                 1.0359                 1.0424
 Frc consts  --      9.8117                 3.7633                 3.8424
 IR Inten    --     38.9186               195.8665               167.1703

 - Thermochemistry -
 -------------------
 Temperature   298.150 Kelvin.  Pressure   1.00000 Atm.
 Atom     1 has atomic number 16 and mass  31.97207

 Molecular mass:    89.95979 amu.
 Principal axes and moments of inertia in atomic units:
                           1         2         3
     Eigenvalues --   110.51601 670.27520 770.50381
           X            0.99987  -0.00034   0.01605
           Y            0.00049   0.99995  -0.00979
           Z           -0.01605   0.00980   0.99982
 This molecule is an asymmetric top.
 Rotational symmetry number  1.
 Rotational temperatures (Kelvin)      0.78372     0.12922     0.11241
 Rotational constants (GHZ):          16.33013     2.69254     2.34229
 Zero-point vibrational energy      71931.8 (Joules/Mol)
                                   17.19211 (Kcal/Mol)
 Warning -- explicit consideration of   5 degrees of freedom as
           vibrations may cause significant error
 Vibrational temperatures:    254.51   367.75   518.28   658.35   890.25
          (Kelvin)           1180.16  1212.28  1535.45  1663.35  1851.01
                             3572.69  3598.71

 Zero-point correction=                           0.027397 (Hartree/Particle)
 Thermal correction to Energy=                    0.032264
 Thermal correction to Enthalpy=                  0.033208
 Thermal correction to Gibbs Free Energy=        -0.000922
 Sum of electronic and zero-point Energies=           -872.853362
 Sum of electronic and thermal Energies=              -872.848496
 Sum of electronic and thermal Enthalpies=            -872.847552
 Sum of electronic and thermal Free Energies=         -872.881682

                     E (Thermal)             CV                S
                      KCal/Mol        Cal/Mol-Kelvin    Cal/Mol-Kelvin
 Total                   20.246             15.380             71.833
 Electronic               0.000              0.000              0.000
 Translational            0.889              2.981             39.403
 Rotational               0.889              2.981             25.549
 Vibrational             18.468              9.419              6.882
 Vibration     1          0.628              1.871              2.361
 Vibration     2          0.666              1.753              1.692
 Vibration     3          0.735              1.554              1.121
 Vibration     4          0.816              1.344              0.773
 Vibration     5          0.979              0.992              0.419

 Optimization completed.
    -- Stationary point found.
 Normal termination of Gaussian 09 at Wed Aug  3 20:23:07 2016.
