 Gaussian 09, Revision E.01,
 Gaussian 09:  EM64L-G09RevE.01 30-Nov-2015

 ------------------------------
 #p b3lyp/6-311++G(3df,2p) freq
 ------------------------------

 ---------
 b3lyp opt
 ---------
 Symbolic Z-matrix:
 Charge =  2 Multiplicity = 3

                         Standard orientation:
 ---------------------------------------------------------------------
 Center     Atomic      Atomic             Coordinates (Angstroms)
 Number     Number       Type             X           Y           Z
 ---------------------------------------------------------------------
      1         16           0        0.000000   -0.000000    1.148964
      2          6           0       -0.000000    0.000000   -0.484558
      3          6           0       -0.000000    0.000000   -1.779123
      4          1           0       -0.000000    0.936662   -2.400663
      5          1           0        0.000000   -0.936662   -2.400663
 ---------------------------------------------------------------------

 SCF Done:  E(UB3LYP) =  -474.613445783     A.U. after   15 cycles

 The electronic state is 3-A2.
 Alpha  occ. eigenvalues --  -89.51885 -10.83226 -10.75633  -8.59257  -6.56067
 Alpha  occ. eigenvalues --   -6.55349  -6.55055  -1.40288  -1.30574  -1.06577
 Alpha  occ. eigenvalues --   -0.99619  -0.97714  -0.91839  -0.89053  -0.80312
 Alpha virt. eigenvalues --   -0.63550  -0.53197  -0.47248  -0.37241  -0.31438
 Alpha virt. eigenvalues --   -0.30343  -0.29310  -0.29232  -0.26686  -0.26652
 Alpha virt. eigenvalues --   -0.24983  -0.23415  -0.23317  -0.21552  -0.19297

  Beta  occ. eigenvalues --  -89.50910 -10.83172 -10.74886  -8.58363  -6.54540
  Beta  occ. eigenvalues --   -6.54136  -6.53646  -1.36676  -1.26950  -1.04137
  Beta  occ. eigenvalues --   -0.97492  -0.95281  -0.87416
  Beta virt. eigenvalues --   -0.76548  -0.68795  -0.59799  -0.49387  -0.44633
  Beta virt. eigenvalues --   -0.36596  -0.30598  -0.29487  -0.26165  -0.26119
  Beta virt. eigenvalues --   -0.25439  -0.25429  -0.24667  -0.22317  -0.22262

 Mulliken charges and spin densities:
               1          2
     1  S    0.616393   1.448535
     2  C    0.611209   0.090711
     3  C    0.113988   0.397179
     4  H    0.329205   0.031787
     5  H    0.329205   0.031787
 Sum of Mulliken charges =   2.00000   2.00000

 Dipole moment (field-independent basis, Debye):
    X=              0.0000    Y=             -0.0000    Z=             -3.1893  Tot=              3.1893
 Quadrupole moment (field-independent basis, Debye-Ang):
   XX=            -20.0774   YY=            -15.4305   ZZ=              8.7708
   XY=             -0.0000   XZ=             -0.0000   YZ=              0.0000

  Exact polarizability:  19.704   0.000  22.160   0.000   0.000  61.215
 Approx polarizability:  28.400  -0.000  34.037   0.000  -0.000 123.867

                      1                      2                      3
                     B2                     B1                     B2
 Frequencies --    278.6720               307.0850               633.9514
 Red. masses --      1.9072                 5.3008                 2.1548
 Frc consts  --      0.0873                 0.2945                 0.5102
 IR Inten    --     13.2852                14.2883                22.4939

                      4                      5                      6
                     A1                     B1                     A1
 Frequencies --    712.4607               830.7165              1107.5812
 Red. masses --      9.4279                 1.3655                 1.0662
 Frc consts  --      2.8196                 0.5552                 0.7706
 IR Inten    --      0.2272                54.8913               261.0481

                      7                      8                      9
                     A1                     A1                     B2
 Frequencies --   1594.7653              2754.5816              2770.5369
 Red. masses --      9.2759                 1.0589                 1.0990
 Frc consts  --     13.8995                 4.7336                 4.9704
 IR Inten    --      7.5741               866.0986               416.2492

 - Thermochemistry -
 -------------------
 Temperature   298.150 Kelvin.  Pressure   1.00000 Atm.
 Atom     1 has atomic number 16 and mass  31.97207

 Molecular mass:    57.98772 amu.
 Principal axes and moments of inertia in atomic units:
                           1         2         3
     Eigenvalues --     6.31508 336.53096 342.84604
           X            0.00000  -0.00000   1.00000
           Y           -0.00000   1.00000   0.00000
           Z            1.00000   0.00000  -0.00000
 This molecule is an asymmetric top.
 Rotational symmetry number  2.
 Rotational temperatures (Kelvin)     13.71539     0.25737     0.25263
 Rotational constants (GHZ):         285.78279     5.36278     5.26400
 Zero-point vibrational energy      65736.9 (Joules/Mol)
                                   15.71149 (Kcal/Mol)
 Warning -- explicit consideration of   2 degrees of freedom as
           vibrations may cause significant error
 Vibrational temperatures:    400.95   441.83   912.11  1025.07  1195.21
          (Kelvin)           1593.56  2294.51  3963.22  3986.18

 Zero-point correction=                           0.025038 (Hartree/Particle)
 Thermal correction to Energy=                    0.029077
 Thermal correction to Enthalpy=                  0.030021
 Thermal correction to Gibbs Free Energy=        -0.000375
 Sum of electronic and zero-point Energies=           -474.588408
 Sum of electronic and thermal Energies=              -474.584369
 Sum of electronic and thermal Enthalpies=            -474.583425
 Sum of electronic and thermal Free Energies=         -474.613821

                     E (Thermal)             CV                S
                      KCal/Mol        Cal/Mol-Kelvin    Cal/Mol-Kelvin
 Total                   18.246             12.031             63.973
 Electronic               0.000              0.000              2.183
 Translational            0.889              2.981             38.094
 Rotational               0.889              2.981             19.838
 Vibrational             16.469              6.069              3.858
 Vibration     1          0.679              1.713              1.542
 Vibration     2          0.697              1.660              1.378

 Optimization completed.
    -- Stationary point found.
 Normal termination of Gaussian 09 at Wed Aug  3 23:04:56 2016.
