 Gaussian 09, Revision E.01,
 Gaussian 09:  EM64L-G09RevE.01 30-Nov-2015

 ------------------------------
 #p b3lyp/6-311++G(3df,2p) freq
 ------------------------------

 ---------
 b3lyp opt
 ---------
 Symbolic Z-matrix:
 Charge =  2 Multiplicity = 3

                         Standard orientation:
 ---------------------------------------------------------------------
 Center     Atomic      Atomic             Coordinates (Angstroms)
 Number     Number       Type             X           Y           Z
 ---------------------------------------------------------------------
      1         16           0       -0.036505   -2.253172   -0.076200
      2         16           0        0.036505    2.253172   -0.076200
      3          6           0       -0.036505    0.626426    0.057901
      4          6           0        0.036505   -0.626426    0.057901
      5          1           0        0.925873   -2.523934    0.871790
      6          1           0       -0.925873    2.523934    0.871790
 ---------------------------------------------------------------------

 SCF Done:  E(UB3LYP) =  -872.948970401     A.U. after   14 cycles

 The electronic state is 3-B.
 Alpha  occ. eigenvalues --  -89.38805 -89.38805 -10.71498 -10.71347  -8.46764
 Alpha  occ. eigenvalues --   -8.46763  -6.43145  -6.43145  -6.42883  -6.42882
 Alpha  occ. eigenvalues --   -6.42480  -6.42480  -1.32219  -1.28340  -1.19488
 Alpha  occ. eigenvalues --   -0.98390  -0.94971  -0.87647  -0.87073  -0.81857
 Alpha  occ. eigenvalues --   -0.81851  -0.72247  -0.72225
 Alpha virt. eigenvalues --   -0.47195  -0.47165  -0.40453  -0.39286  -0.38155
 Alpha virt. eigenvalues --   -0.35426  -0.29942  -0.26826  -0.24631  -0.24453
 Alpha virt. eigenvalues --   -0.23852  -0.22304  -0.22217  -0.20518  -0.19958

  Beta  occ. eigenvalues --  -89.38375 -89.38375 -10.70912 -10.70769  -8.46366
  Beta  occ. eigenvalues --   -8.46365  -6.42659  -6.42659  -6.42201  -6.42201
  Beta  occ. eigenvalues --   -6.41834  -6.41834  -1.29853  -1.26281  -1.16589
  Beta  occ. eigenvalues --   -0.96736  -0.93713  -0.85066  -0.84580  -0.78253
  Beta  occ. eigenvalues --   -0.78243
  Beta virt. eigenvalues --   -0.62176  -0.62156  -0.44670  -0.44593  -0.38824
  Beta virt. eigenvalues --   -0.38177  -0.36321  -0.34013  -0.28792  -0.25840
  Beta virt. eigenvalues --   -0.24177  -0.24176  -0.22388  -0.21568  -0.20724

 Mulliken charges and spin densities:
               1          2
     1  S    0.321182   0.651945
     2  S    0.321182   0.651945
     3  C    0.391215   0.312111
     4  C    0.391215   0.312111
     5  H    0.287603   0.035944
     6  H    0.287603   0.035944
 Sum of Mulliken charges =   2.00000   2.00000

 Dipole moment (field-independent basis, Debye):
    X=              0.0000    Y=             -0.0000    Z=              1.5501  Tot=              1.5501
 Quadrupole moment (field-independent basis, Debye-Ang):
   XX=            -28.7968   YY=             20.0034   ZZ=            -29.0391
   XY=             -5.4384   XZ=             -0.0000   YZ=              0.0000

  Exact polarizability:  33.821  -4.738 121.899   0.000  -0.000  33.504
 Approx polarizability:  53.986  -6.663 233.116  -0.000   0.000  53.665

                      1                      2                      3
                      A                      B                      A
 Frequencies --    162.8433               167.3403               385.6003
 Red. masses --      8.1816                 5.0938                 9.3666
 Frc consts  --      0.1278                 0.0840                 0.8206
 IR Inten    --      3.1394                12.3488                 0.0147

                      4                      5                      6
                      B                      A                      A
 Frequencies --    393.0906               488.6645               493.2396
 Red. masses --      6.7389                 1.4979                 2.6100
 Frc consts  --      0.6135                 0.2107                 0.3741
 IR Inten    --      4.2356                22.7096                 8.3365

                      7                      8                      9
                      A                      B                      B
 Frequencies --    910.6185               911.1826               995.4800
 Red. masses --      1.1697                 1.2326                 8.3433
 Frc consts  --      0.5715                 0.6030                 4.8714
 IR Inten    --      6.4600                18.8279                24.2967

                     10                     11                     12
                      A                      B                      A
 Frequencies --   1811.5475              2430.3849              2439.5947
 Red. masses --     11.7182                 1.0388                 1.0406
 Frc consts  --     22.6575                 3.6154                 3.6489
 IR Inten    --      0.8821               411.2489               113.0479

 - Thermochemistry -
 -------------------
 Temperature   298.150 Kelvin.  Pressure   1.00000 Atm.
 Atom     1 has atomic number 16 and mass  31.97207

 Molecular mass:    89.95979 amu.
 Principal axes and moments of inertia in atomic units:
                           1         2         3
     Eigenvalues --    13.554601245.350331245.72700
           X            0.00000   0.00000   1.00000
           Y            1.00000   0.00000  -0.00000
           Z            0.00000   1.00000   0.00000
 This molecule is an asymmetric top.
 Rotational symmetry number  2.
 Rotational temperatures (Kelvin)      6.39000     0.06955     0.06953
 Rotational constants (GHZ):         133.14608     1.44918     1.44875
 Zero-point vibrational energy      69321.1 (Joules/Mol)
                                   16.56815 (Kcal/Mol)
 Warning -- explicit consideration of   6 degrees of freedom as
           vibrations may cause significant error
 Vibrational temperatures:    234.29   240.76   554.79   565.57   703.08
          (Kelvin)            709.66  1310.18  1310.99  1432.27  2606.41
                             3496.78  3510.03

 Zero-point correction=                           0.026403 (Hartree/Particle)
 Thermal correction to Energy=                    0.031715
 Thermal correction to Enthalpy=                  0.032659
 Thermal correction to Gibbs Free Energy=        -0.002254
 Sum of electronic and zero-point Energies=           -872.922567
 Sum of electronic and thermal Energies=              -872.917256
 Sum of electronic and thermal Enthalpies=            -872.916311
 Sum of electronic and thermal Free Energies=         -872.951224

                     E (Thermal)             CV                S
                      KCal/Mol        Cal/Mol-Kelvin    Cal/Mol-Kelvin
 Total                   19.901             16.640             73.481
 Electronic               0.000              0.000              2.183
 Translational            0.889              2.981             39.403
 Rotational               0.889              2.981             23.179
 Vibrational             18.124             10.678              8.716
 Vibration     1          0.623              1.888              2.517
 Vibration     2          0.624              1.883              2.465
 Vibration     3          0.754              1.501              1.017
 Vibration     4          0.760              1.485              0.988
 Vibration     5          0.845              1.275              0.687
 Vibration     6          0.849              1.265              0.675

 Optimization completed.
    -- Stationary point found.
 Normal termination of Gaussian 09 at Wed Aug  3 22:55:58 2016.
