 Gaussian 09, Revision E.01,
 Gaussian 09:  EM64L-G09RevE.01 30-Nov-2015

 ------------------------------
 #p b3lyp/6-311++G(3df,2p) freq
 ------------------------------

 ---------
 b3lyp opt
 ---------
 Symbolic Z-matrix:
 Charge =  0 Multiplicity = 1

                         Standard orientation:
 ---------------------------------------------------------------------
 Center     Atomic      Atomic             Coordinates (Angstroms)
 Number     Number       Type             X           Y           Z
 ---------------------------------------------------------------------
      1         16           0        0.074193    0.650309   -0.005027
      2         16           0       -1.609410   -0.348965   -0.090828
      3          6           0        1.482146   -0.540060    0.371330
      4          6           0        2.364227   -0.246020   -0.520790
      5          1           0        1.324524   -1.244678    1.170221
      6          1           0        0.160703    1.139652    1.260220
 ---------------------------------------------------------------------

 SCF Done:  E(RB3LYP) =  -873.702978815     A.U. after   14 cycles

 The electronic state is 1-A.
 Alpha  occ. eigenvalues --  -88.98471 -88.84716 -10.25340 -10.22594  -8.06191
 Alpha  occ. eigenvalues --   -7.93267  -6.02471  -6.02292  -6.01821  -5.89848
 Alpha  occ. eigenvalues --   -5.89013  -5.88742  -0.89546  -0.79396  -0.66202
 Alpha  occ. eigenvalues --   -0.57982  -0.50275  -0.45567  -0.39132  -0.33216
 Alpha  occ. eigenvalues --   -0.32469  -0.27049  -0.24899
 Alpha virt. eigenvalues --   -0.14090  -0.05511  -0.03671  -0.02157  -0.01491
 Alpha virt. eigenvalues --    0.00578   0.03262   0.03976   0.04650   0.05491
 Alpha virt. eigenvalues --    0.06409   0.06978   0.07410   0.07955   0.09833

 Mulliken charges:
               1
     1  S    0.263013
     2  S   -0.361606
     3  C    0.290792
     4  C   -0.519880
     5  H    0.193831
     6  H    0.133850
 Sum of Mulliken charges =  -0.00000

 Dipole moment (field-independent basis, Debye):
    X=              0.4470    Y=              0.5510    Z=              2.7119  Tot=              2.8032
 Quadrupole moment (field-independent basis, Debye-Ang):
   XX=            -46.4515   YY=            -36.5947   ZZ=            -38.6688
   XY=             -1.8451   XZ=              3.9901   YZ=              0.0323

  Exact polarizability: 109.317   1.805  55.397  -2.446   0.943  53.562
 Approx polarizability: 222.040  12.583  95.022  -8.911   2.446  89.732

                      1                      2                      3
                      A                      A                      A
 Frequencies --    128.3903               149.0445               223.0578
 Red. masses --      7.3609                10.2777                 4.7353
 Frc consts  --      0.0715                 0.1345                 0.1388
 IR Inten    --     11.9941                10.0722                 3.2988

                      4                      5                      6
                      A                      A                      A
 Frequencies --    454.5704               581.5913               659.6992
 Red. masses --      9.4410                14.3417                 1.3603
 Frc consts  --      1.1494                 2.8582                 0.3488
 IR Inten    --    146.4327                42.3609                45.3845

                      7                      8                      9
                      A                      A                      A
 Frequencies --    790.6969               921.4778               959.7173
 Red. masses --      1.1413                 1.0632                 1.1272
 Frc consts  --      0.4204                 0.5319                 0.6117
 IR Inten    --      9.2626                41.9494                 9.3121

                     10                     11                     12
                      A                      A                      A
 Frequencies --   1696.1439              2493.8093              3251.7566
 Red. masses --      7.6460                 1.0399                 1.1091
 Frc consts  --     12.9602                 3.8105                 6.9098
 IR Inten    --    177.6709                13.9257                34.5847

 - Thermochemistry -
 -------------------
 Temperature   298.150 Kelvin.  Pressure   1.00000 Atm.
 Atom     1 has atomic number 16 and mass  31.97207

 Molecular mass:    89.95979 amu.
 Principal axes and moments of inertia in atomic units:
                           1         2         3
     Eigenvalues --   116.30599 665.29214 723.95151
           X            0.99990  -0.00933   0.01049
           Y            0.00936   0.99995  -0.00225
           Z           -0.01047   0.00235   0.99994
 This molecule is an asymmetric top.
 Rotational symmetry number  1.
 Rotational temperatures (Kelvin)      0.74471     0.13019     0.11964
 Rotational constants (GHZ):          15.51718     2.71270     2.49290
 Zero-point vibrational energy      73629.9 (Joules/Mol)
                                   17.59796 (Kcal/Mol)
 Warning -- explicit consideration of   5 degrees of freedom as
           vibrations may cause significant error
 Vibrational temperatures:    184.72   214.44   320.93   654.02   836.78
          (Kelvin)            949.16  1137.64  1325.80  1380.82  2440.37
                             3588.03  4678.55

 Zero-point correction=                           0.028044 (Hartree/Particle)
 Thermal correction to Energy=                    0.033465
 Thermal correction to Enthalpy=                  0.034409
 Thermal correction to Gibbs Free Energy=        -0.001036
 Sum of electronic and zero-point Energies=           -873.674935
 Sum of electronic and thermal Energies=              -873.669514
 Sum of electronic and thermal Enthalpies=            -873.668569
 Sum of electronic and thermal Free Energies=         -873.704015

                     E (Thermal)             CV                S
                      KCal/Mol        Cal/Mol-Kelvin    Cal/Mol-Kelvin
 Total                   21.000             16.526             74.602
 Electronic               0.000              0.000              0.000
 Translational            0.889              2.981             39.403
 Rotational               0.889              2.981             25.530
 Vibrational             19.222             10.565              9.669
 Vibration     1          0.611              1.925              2.970
 Vibration     2          0.618              1.904              2.684
 Vibration     3          0.649              1.806              1.934
 Vibration     4          0.813              1.351              0.782
 Vibration     5          0.938              1.071              0.482

 Optimization completed.
    -- Stationary point found.
 Normal termination of Gaussian 09 at Wed Aug  3 20:54:31 2016.
