 Gaussian 09, Revision E.01,
 Gaussian 09:  EM64L-G09RevE.01 30-Nov-2015

 ------------------------------
 #p b3lyp/6-311++G(3df,2p) freq
 ------------------------------

 ---------
 b3lyp opt
 ---------
 Symbolic Z-matrix:
 Charge =  2 Multiplicity = 1

                         Standard orientation:
 ---------------------------------------------------------------------
 Center     Atomic      Atomic             Coordinates (Angstroms)
 Number     Number       Type             X           Y           Z
 ---------------------------------------------------------------------
      1         16           0       -0.000000    0.622631   -0.000000
      2         16           0       -1.575242   -0.579260   -0.000000
      3          6           0        1.468229   -0.183782    0.000000
      4          6           0        2.620236    0.580719    0.000000
      5          1           0        1.631634   -1.274849    0.000000
      6          1           0       -0.958556   -1.800699    0.000000
 ---------------------------------------------------------------------

 SCF Done:  E(RB3LYP) =  -872.846616663     A.U. after   14 cycles

 The electronic state is 1-A'.
 Alpha  occ. eigenvalues --  -89.45321 -89.40924 -10.77145 -10.69753  -8.52983
 Alpha  occ. eigenvalues --   -8.48918  -6.49152  -6.49101  -6.48652  -6.45209
 Alpha  occ. eigenvalues --   -6.44766  -6.44651  -1.36729  -1.26764  -1.15418
 Alpha  occ. eigenvalues --   -1.01304  -0.97319  -0.86131  -0.85802  -0.84287
 Alpha  occ. eigenvalues --   -0.76118  -0.75638
 Alpha virt. eigenvalues --   -0.64064  -0.58741  -0.49034  -0.47016  -0.46034
 Alpha virt. eigenvalues --   -0.37636  -0.34021  -0.31143  -0.28644  -0.27311
 Alpha virt. eigenvalues --   -0.26994  -0.25430  -0.25294  -0.24796  -0.23574

 Mulliken charges:
               1
     1  S    0.272884
     2  S    0.578777
     3  C    0.520878
     4  C    0.099324
     5  H    0.287200
     6  H    0.240937
 Sum of Mulliken charges =   2.00000

 Dipole moment (field-independent basis, Debye):
    X=              0.9945    Y=             -2.6056    Z=              0.0000  Tot=              2.7889
 Quadrupole moment (field-independent basis, Debye-Ang):
   XX=             -7.0954   YY=            -21.4907   ZZ=            -31.8599
   XY=              3.7854   XZ=             -0.0000   YZ=              0.0000

  Exact polarizability:  98.652  15.358  46.658   0.000   0.000  32.367
 Approx polarizability: 291.335  59.975  96.321   0.000   0.000  53.924

                      1                      2                      3
                     A"                     A'                     A'
 Frequencies --    152.2334               182.6993               289.9716
 Red. masses --      5.9966                10.2440                 6.9657
 Frc consts  --      0.0819                 0.2015                 0.3451
 IR Inten    --      6.0675                 7.9266                 1.8103

                      4                      5                      6
                     A"                     A'                     A"
 Frequencies --    427.6084               572.7868               687.4159
 Red. masses --      1.0956                24.2856                 1.4048
 Frc consts  --      0.1180                 4.6945                 0.3911
 IR Inten    --     19.2372                 7.3876                32.5024

                      7                      8                      9
                     A'                     A'                     A'
 Frequencies --    842.0530               869.7707               983.2307
 Red. masses --      2.9724                 1.3854                 1.2033
 Frc consts  --      1.2417                 0.6175                 0.6854
 IR Inten    --      2.2579                25.7306                38.8530

                     10                     11                     12
                     A'                     A'                     A'
 Frequencies --   1388.3375              2517.6768              2983.2845
 Red. masses --      6.9269                 1.0397                 1.0857
 Frc consts  --      7.8665                 3.8828                 5.6933
 IR Inten    --    780.3643               119.1223               153.9102

 - Thermochemistry -
 -------------------
 Temperature   298.150 Kelvin.  Pressure   1.00000 Atm.
 Atom     1 has atomic number 16 and mass  31.97207

 Molecular mass:    89.95979 amu.
 Principal axes and moments of inertia in atomic units:
                           1         2         3
     Eigenvalues --    75.24182 723.15145 798.39327
           X            0.96834  -0.24964   0.00000
           Y            0.24964   0.96834   0.00000
           Z           -0.00000   0.00000   1.00000
 This molecule is an asymmetric top.
 Rotational symmetry number  1.
 Rotational temperatures (Kelvin)      1.15114     0.11977     0.10849
 Rotational constants (GHZ):          23.98588     2.49566     2.26047
 Zero-point vibrational energy      71160.3 (Joules/Mol)
                                   17.00771 (Kcal/Mol)
 Warning -- explicit consideration of   5 degrees of freedom as
           vibrations may cause significant error
 Vibrational temperatures:    219.03   262.86   417.20   615.23   824.11
          (Kelvin)            989.04  1211.52  1251.40  1414.65  1997.51
                             3622.37  4292.28

 Zero-point correction=                           0.027104 (Hartree/Particle)
 Thermal correction to Energy=                    0.032348
 Thermal correction to Enthalpy=                  0.033293
 Thermal correction to Gibbs Free Energy=        -0.001505
 Sum of electronic and zero-point Energies=           -872.819513
 Sum of electronic and thermal Energies=              -872.814268
 Sum of electronic and thermal Enthalpies=            -872.813324
 Sum of electronic and thermal Free Energies=         -872.848122

                     E (Thermal)             CV                S
                      KCal/Mol        Cal/Mol-Kelvin    Cal/Mol-Kelvin
 Total                   20.299             16.406             73.238
 Electronic               0.000              0.000              0.000
 Translational            0.889              2.981             39.403
 Rotational               0.889              2.981             25.277
 Vibrational             18.521             10.444              8.558
 Vibration     1          0.619              1.900              2.644
 Vibration     2          0.630              1.863              2.301
 Vibration     3          0.686              1.692              1.474
 Vibration     4          0.789              1.410              0.867
 Vibration     5          0.929              1.090              0.499

 Optimization completed.
    -- Stationary point found.
 Normal termination of Gaussian 09 at Wed Aug  3 22:55:44 2016.
