 Gaussian 09, Revision E.01,
 Gaussian 09:  EM64L-G09RevE.01 30-Nov-2015

 ------------------------------
 #p b3lyp/6-311++G(3df,2p) freq
 ------------------------------

 ---------
 b3lyp opt
 ---------
 Symbolic Z-matrix:
 Charge =  2 Multiplicity = 3

                         Standard orientation:
 ---------------------------------------------------------------------
 Center     Atomic      Atomic             Coordinates (Angstroms)
 Number     Number       Type             X           Y           Z
 ---------------------------------------------------------------------
      1         16           0       -0.243335   -0.918257   -0.000000
      2          6           0       -0.000000    0.787134    0.000000
      3          6           0        1.059131    1.544743    0.000000
      4          1           0       -0.843374    1.549485   -0.000000
      5          1           0       -1.618045   -0.848634   -0.000000
 ---------------------------------------------------------------------

 SCF Done:  E(UB3LYP) =  -474.517247815     A.U. after   14 cycles

 The electronic state is 3-A".
 Alpha  occ. eigenvalues --  -89.47138 -10.91030 -10.78827  -8.54874  -6.51460
 Alpha  occ. eigenvalues --   -6.51044  -6.50426  -1.40064  -1.30118  -1.05649
 Alpha  occ. eigenvalues --   -1.01841  -0.94973  -0.91052  -0.89262  -0.82061
 Alpha virt. eigenvalues --   -0.68056  -0.54792  -0.48585  -0.42427  -0.35602
 Alpha virt. eigenvalues --   -0.33501  -0.30146  -0.29906  -0.27344  -0.26950
 Alpha virt. eigenvalues --   -0.23873  -0.22913  -0.22203  -0.20403  -0.19523

  Beta  occ. eigenvalues --  -89.46608 -10.88091 -10.78860  -8.54387  -6.50724
  Beta  occ. eigenvalues --   -6.50141  -6.49825  -1.37835  -1.26352  -1.03266
  Beta  occ. eigenvalues --   -1.00860  -0.88222  -0.86922
  Beta virt. eigenvalues --   -0.72736  -0.68863  -0.63708  -0.50172  -0.48240
  Beta virt. eigenvalues --   -0.40183  -0.35449  -0.32731  -0.29717  -0.28672
  Beta virt. eigenvalues --   -0.26184  -0.26169  -0.23734  -0.21862  -0.21167

 Mulliken charges and spin densities:
               1          2
     1  S    0.556829   0.771826
     2  C    0.357229  -0.171567
     3  C    0.490458   1.417438
     4  H    0.298481  -0.009262
     5  H    0.297003  -0.008434
 Sum of Mulliken charges =   2.00000   2.00000

 Dipole moment (field-independent basis, Debye):
    X=             -0.2711    Y=              3.1913    Z=             -0.0000  Tot=              3.2028
 Quadrupole moment (field-independent basis, Debye-Ang):
   XX=             -9.2602   YY=             -1.2062   ZZ=            -20.2633
   XY=              7.2524   XZ=              0.0000   YZ=              0.0000

  Exact polarizability:  33.053  10.300  43.867  -0.000  -0.000  20.643
 Approx polarizability:  62.671  25.643  82.044   0.000   0.000  29.738

                      1                      2                      3
                     A'                     A"                     A"
 Frequencies --    286.7721               398.3920               596.2028
 Red. masses --      7.8828                 1.3073                 1.5135
 Frc consts  --      0.3819                 0.1222                 0.3170
 IR Inten    --      4.4602                41.8891                29.0469

                      4                      5                      6
                     A'                     A'                     A'
 Frequencies --    691.2201               874.4525               984.1438
 Red. masses --     11.4132                 1.0458                 1.1267
 Frc consts  --      3.2129                 0.4712                 0.6430
 IR Inten    --     10.9397                 5.7501                16.9298

                      7                      8                      9
                     A'                     A'                     A'
 Frequencies --   1460.5541              2459.2969              2688.0104
 Red. masses --      9.6125                 1.0398                 1.0745
 Frc consts  --     12.0816                 3.7052                 4.5743
 IR Inten    --    143.2787               195.4755               380.2010

 - Thermochemistry -
 -------------------
 Temperature   298.150 Kelvin.  Pressure   1.00000 Atm.
 Atom     1 has atomic number 16 and mass  31.97207

 Molecular mass:    57.98772 amu.
 Principal axes and moments of inertia in atomic units:
                           1         2         3
     Eigenvalues --    23.22287 279.50504 302.72791
           X            0.41067   0.91179   0.00000
           Y            0.91179  -0.41067   0.00000
           Z           -0.00000  -0.00000   1.00000
 This molecule is an asymmetric top.
 Rotational symmetry number  1.
 Rotational temperatures (Kelvin)      3.72968     0.30988     0.28611
 Rotational constants (GHZ):          77.71396     6.45692     5.96160
 Zero-point vibrational energy      62439.4 (Joules/Mol)
                                   14.92336 (Kcal/Mol)
 Warning -- explicit consideration of   3 degrees of freedom as
           vibrations may cause significant error
 Vibrational temperatures:    412.60   573.20   857.80   994.51  1258.14
          (Kelvin)           1415.96  2101.41  3538.38  3867.44

 Zero-point correction=                           0.023782 (Hartree/Particle)
 Thermal correction to Energy=                    0.027745
 Thermal correction to Enthalpy=                  0.028689
 Thermal correction to Gibbs Free Energy=        -0.002660
 Sum of electronic and zero-point Energies=           -474.493466
 Sum of electronic and thermal Energies=              -474.489503
 Sum of electronic and thermal Enthalpies=            -474.488558
 Sum of electronic and thermal Free Energies=         -474.519908

                     E (Thermal)             CV                S
                      KCal/Mol        Cal/Mol-Kelvin    Cal/Mol-Kelvin
 Total                   17.410             12.039             65.981
 Electronic               0.000              0.000              2.183
 Translational            0.889              2.981             38.094
 Rotational               0.889              2.981             22.201
 Vibrational             15.633              6.077              3.503
 Vibration     1          0.684              1.698              1.493
 Vibration     2          0.765              1.474              0.969
 Vibration     3          0.954              1.040              0.456

 Optimization completed.
    -- Stationary point found.
 Normal termination of Gaussian 09 at Wed Aug  3 23:05:12 2016.
