 Gaussian 09, Revision E.01,
 Gaussian 09:  EM64L-G09RevE.01 30-Nov-2015

 ------------------------------
 #p b3lyp/6-311++G(3df,2p) freq
 ------------------------------

 ---------
 b3lyp opt
 ---------
 Symbolic Z-matrix:
 Charge =  2 Multiplicity = 1

                         Standard orientation:
 ---------------------------------------------------------------------
 Center     Atomic      Atomic             Coordinates (Angstroms)
 Number     Number       Type             X           Y           Z
 ---------------------------------------------------------------------
      1         16           0        0.093253    2.219490    0.000000
      2         16           0       -0.093253   -2.219490   -0.000000
      3          6           0       -0.093253   -0.626720    0.000000
      4          6           0        0.093253    0.626720    0.000000
      5          1           0        1.458295    2.396544   -0.000000
      6          1           0       -1.458295   -2.396544   -0.000000
 ---------------------------------------------------------------------

 SCF Done:  E(RB3LYP) =  -872.974802058     A.U. after   11 cycles

 The electronic state is 1-AG.
 Alpha  occ. eigenvalues --  -89.38927 -89.38927 -10.71582 -10.71449  -8.46918
 Alpha  occ. eigenvalues --   -8.46916  -6.43077  -6.43077  -6.42956  -6.42955
 Alpha  occ. eigenvalues --   -6.42625  -6.42624  -1.32040  -1.28432  -1.18160
 Alpha  occ. eigenvalues --   -0.98275  -0.94790  -0.87480  -0.84549  -0.83988
 Alpha  occ. eigenvalues --   -0.76479  -0.74071
 Alpha virt. eigenvalues --   -0.61832  -0.49411  -0.42903  -0.39980  -0.38128
 Alpha virt. eigenvalues --   -0.37011  -0.33715  -0.29803  -0.26172  -0.24650
 Alpha virt. eigenvalues --   -0.24221  -0.23667  -0.22514  -0.21390  -0.20386

 Mulliken charges:
               1
     1  S    0.197970
     2  S    0.197970
     3  C    0.520335
     4  C    0.520335
     5  H    0.281695
     6  H    0.281695
 Sum of Mulliken charges =   2.00000

 Dipole moment (field-independent basis, Debye):
    X=             -0.0000    Y=             -0.0000    Z=             -0.0000  Tot=              0.0000
 Quadrupole moment (field-independent basis, Debye-Ang):
   XX=            -25.5323   YY=             17.9606   ZZ=            -30.9095
   XY=             10.3493   XZ=              0.0000   YZ=             -0.0000

  Exact polarizability:  37.806  12.426 120.414  -0.000   0.000  30.345
 Approx polarizability:  61.777  24.970 301.110   0.000   0.000  48.547

                      1                      2                      3
                     AU                     BU                     AG
 Frequencies --    168.4483               175.8918               348.7351
 Red. masses --     11.7247                 5.8011                 6.9879
 Frc consts  --      0.1960                 0.1057                 0.5007
 IR Inten    --      2.9462                10.6134                 0.0000

                      4                      5                      6
                     BG                     AG                     AU
 Frequencies --    526.8781               533.2046               623.7890
 Red. masses --      9.3083                10.5951                 1.0473
 Frc consts  --      1.5224                 1.7748                 0.2401
 IR Inten    --      0.0000                 0.0000                51.6934

                      7                      8                      9
                     BU                     AG                     BU
 Frequencies --    968.1622               969.2694              1145.2379
 Red. masses --      1.1736                 1.1725                10.6822
 Frc consts  --      0.6481                 0.6490                 8.2547
 IR Inten    --     29.8563                 0.0000                 1.9845

                     10                     11                     12
                     AG                     BU                     AG
 Frequencies --   1973.7223              2448.9954              2454.7801
 Red. masses --     11.6872                 1.0393                 1.0413
 Frc consts  --     26.8247                 3.6724                 3.6971
 IR Inten    --      0.0000               417.2632                 0.0000

 - Thermochemistry -
 -------------------
 Temperature   298.150 Kelvin.  Pressure   1.00000 Atm.
 Atom     1 has atomic number 16 and mass  31.97207

 Molecular mass:    89.95979 amu.
 Principal axes and moments of inertia in atomic units:
                           1         2         3
     Eigenvalues --    12.987541204.932411217.91996
           X            0.06510   0.99788  -0.00000
           Y            0.99788  -0.06510  -0.00000
           Z            0.00000  -0.00000   1.00000
 This molecule is an asymmetric top.
 Rotational symmetry number  2.
 Rotational temperatures (Kelvin)      6.66899     0.07188     0.07112
 Rotational constants (GHZ):         138.95941     1.49779     1.48182
 Zero-point vibrational energy      73792.3 (Joules/Mol)
                                   17.63679 (Kcal/Mol)
 Warning -- explicit consideration of   5 degrees of freedom as
           vibrations may cause significant error
 Vibrational temperatures:    242.36   253.07   501.75   758.06   767.16
          (Kelvin)            897.49  1392.97  1394.56  1647.74  2839.74
                             3523.55  3531.88

 Zero-point correction=                           0.028106 (Hartree/Particle)
 Thermal correction to Energy=                    0.033170
 Thermal correction to Enthalpy=                  0.034115
 Thermal correction to Gibbs Free Energy=         0.000698
 Sum of electronic and zero-point Energies=           -872.946696
 Sum of electronic and thermal Energies=              -872.941632
 Sum of electronic and thermal Enthalpies=            -872.940687
 Sum of electronic and thermal Free Energies=         -872.974104

                     E (Thermal)             CV                S
                      KCal/Mol        Cal/Mol-Kelvin    Cal/Mol-Kelvin
 Total                   20.815             15.728             70.331
 Electronic               0.000              0.000              0.000
 Translational            0.889              2.981             39.403
 Rotational               0.889              2.981             23.081
 Vibrational             19.037              9.766              7.847
 Vibration     1          0.625              1.881              2.453
 Vibration     2          0.628              1.872              2.372
 Vibration     3          0.726              1.578              1.172
 Vibration     4          0.882              1.191              0.594
 Vibration     5          0.888              1.177              0.580

 Optimization completed.
    -- Stationary point found.
 Normal termination of Gaussian 09 at Wed Aug  3 22:54:30 2016.
