 Gaussian 09, Revision E.01,
 Gaussian 09:  EM64L-G09RevE.01 30-Nov-2015

 ------------------------------
 #p b3lyp/6-311++G(3df,2p) freq
 ------------------------------

 ---------
 b3lyp opt
 ---------
 Symbolic Z-matrix:
 Charge =  1 Multiplicity = 2

                         Standard orientation:
 ---------------------------------------------------------------------
 Center     Atomic      Atomic             Coordinates (Angstroms)
 Number     Number       Type             X           Y           Z
 ---------------------------------------------------------------------
      1         16           0       -0.188208    2.241629   -0.000000
      2         16           0        0.188482   -2.241563    0.000000
      3          6           0       -0.000805   -0.615755    0.000000
      4          6           0        0.000000    0.615691   -0.000000
      5          1           0        1.130456    2.556582    0.000000
      6          1           0       -1.130006   -2.557251   -0.000000
 ---------------------------------------------------------------------

 SCF Done:  E(UB3LYP) =  -873.511841678     A.U. after   15 cycles

 The electronic state is 2-A".
 Alpha  occ. eigenvalues --  -89.12981 -89.12981 -10.45590 -10.45407  -8.21295
 Alpha  occ. eigenvalues --   -8.21293  -6.17536  -6.17536  -6.17248  -6.17247
 Alpha  occ. eigenvalues --   -6.17124  -6.17124  -1.07691  -1.04001  -0.95066
 Alpha  occ. eigenvalues --   -0.75119  -0.71413  -0.64480  -0.61917  -0.61604
 Alpha  occ. eigenvalues --   -0.54564  -0.51698  -0.45583
 Alpha virt. eigenvalues --   -0.25853  -0.20497  -0.19353  -0.18155  -0.17401
 Alpha virt. eigenvalues --   -0.15064  -0.11299  -0.09729  -0.09111  -0.08957
 Alpha virt. eigenvalues --   -0.07171  -0.06320  -0.05921  -0.04519  -0.03807

  Beta  occ. eigenvalues --  -89.12752 -89.12752 -10.45288 -10.45110  -8.21087
  Beta  occ. eigenvalues --   -8.21086  -6.17413  -6.17413  -6.17004  -6.17004
  Beta  occ. eigenvalues --   -6.16531  -6.16530  -1.06591  -1.03136  -0.93416
  Beta  occ. eigenvalues --   -0.74539  -0.71041  -0.63888  -0.61286  -0.58524
  Beta  occ. eigenvalues --   -0.51266  -0.51191
  Beta virt. eigenvalues --   -0.37516  -0.25666  -0.19015  -0.17998  -0.17983
  Beta virt. eigenvalues --   -0.16790  -0.14669  -0.10909  -0.09740  -0.08994
  Beta virt. eigenvalues --   -0.08451  -0.06989  -0.06160  -0.05673  -0.04400

 Mulliken charges and spin densities:
               1          2
     1  S   -0.112783   0.390788
     2  S   -0.112384   0.390746
     3  C    0.396460   0.115249
     4  C    0.397021   0.115337
     5  H    0.215851  -0.006061
     6  H    0.215835  -0.006060
 Sum of Mulliken charges =   1.00000   1.00000

 Dipole moment (field-independent basis, Debye):
    X=              0.0008    Y=             -0.0006    Z=              0.0000  Tot=              0.0010
 Quadrupole moment (field-independent basis, Debye-Ang):
   XX=            -31.0798   YY=             -5.3512   ZZ=            -35.6521
   XY=              4.5701   XZ=             -0.0000   YZ=              0.0000

  Exact polarizability:  41.131   0.177 137.034  -0.000   0.000  36.619
 Approx polarizability:  67.674  -2.393 253.313   0.000  -0.000  56.253

                      1                      2                      3
                     A'                     A"                     A"
 Frequencies --    161.0145               166.2649               352.7164
 Red. masses --      6.0192                13.6537                 1.0342
 Frc consts  --      0.0919                 0.2224                 0.0758
 IR Inten    --      6.9124                 2.0170                42.6651

                      4                      5                      6
                     A'                     A"                     A'
 Frequencies --    364.8607               435.8348               505.5528
 Red. masses --      6.8155                10.2040                11.2567
 Frc consts  --      0.5346                 1.1420                 1.6951
 IR Inten    --      0.0000                 0.0000                 0.0000

                      7                      8                      9
                     A'                     A'                     A'
 Frequencies --    962.5099               979.9227              1044.5520
 Red. masses --      1.3612                 1.1685                 4.6107
 Frc consts  --      0.7430                 0.6611                 2.9640
 IR Inten    --     20.8396                 0.0000                17.1005

                     10                     11                     12
                     A'                     A'                     A'
 Frequencies --   2129.0519              2586.0650              2587.9548
 Red. masses --     11.7719                 1.0388                 1.0402
 Frc consts  --     31.4390                 4.0934                 4.1049
 IR Inten    --      0.0000               112.8880                 0.0163

 - Thermochemistry -
 -------------------
 Temperature   298.150 Kelvin.  Pressure   1.00000 Atm.
 Atom     1 has atomic number 16 and mass  31.97207

 Molecular mass:    89.95979 amu.
 Principal axes and moments of inertia in atomic units:
                           1         2         3
     Eigenvalues --    12.590781231.651941244.24272
           X           -0.06212   0.99807  -0.00000
           Y            0.99807   0.06212   0.00000
           Z           -0.00000   0.00000   1.00000
 This molecule is an asymmetric top.
 Rotational symmetry number  1.
 Rotational temperatures (Kelvin)      6.87915     0.07032     0.06961
 Rotational constants (GHZ):         143.33833     1.46530     1.45047
 Zero-point vibrational energy      73428.6 (Joules/Mol)
                                   17.54985 (Kcal/Mol)
 Warning -- explicit consideration of   6 degrees of freedom as
           vibrations may cause significant error
 Vibrational temperatures:    231.66   239.22   507.48   524.95   627.07
          (Kelvin)            727.38  1384.84  1409.89  1502.88  3063.23
                             3720.77  3723.49

 Zero-point correction=                           0.027967 (Hartree/Particle)
 Thermal correction to Energy=                    0.033353
 Thermal correction to Enthalpy=                  0.034297
 Thermal correction to Gibbs Free Energy=        -0.001002
 Sum of electronic and zero-point Energies=           -873.483874
 Sum of electronic and thermal Energies=              -873.478488
 Sum of electronic and thermal Enthalpies=            -873.477544
 Sum of electronic and thermal Free Energies=         -873.512844

                     E (Thermal)             CV                S
                      KCal/Mol        Cal/Mol-Kelvin    Cal/Mol-Kelvin
 Total                   20.930             16.640             74.295
 Electronic               0.000              0.000              1.377
 Translational            0.889              2.981             39.403
 Rotational               0.889              2.981             24.471
 Vibrational             19.152             10.679              9.044
 Vibration     1          0.622              1.890              2.538
 Vibration     2          0.624              1.884              2.477
 Vibration     3          0.729              1.570              1.154
 Vibration     4          0.738              1.545              1.101
 Vibration     5          0.796              1.392              0.840
 Vibration     6          0.861              1.238              0.644

 Optimization completed.
    -- Stationary point found.
 Normal termination of Gaussian 09 at Wed Aug  3 22:51:40 2016.
