 Gaussian 09, Revision E.01,
 Gaussian 09:  EM64L-G09RevE.01 30-Nov-2015

 ------------------------------
 #p b3lyp/6-311++G(3df,2p) freq
 ------------------------------

 ---------
 b3lyp opt
 ---------
 Symbolic Z-matrix:
 Charge =  0 Multiplicity = 1

                         Standard orientation:
 ---------------------------------------------------------------------
 Center     Atomic      Atomic             Coordinates (Angstroms)
 Number     Number       Type             X           Y           Z
 ---------------------------------------------------------------------
      1         16           0        0.001725    0.883394    0.012148
      2         16           0       -1.552751   -0.505279   -0.087094
      3          6           0        2.451692   -0.641440   -0.003499
      4          6           0        1.401750   -0.050680   -0.000865
      5          1           0        3.374026   -1.167682   -0.009688
      6          1           0       -1.678264   -0.729425    1.235004
 ---------------------------------------------------------------------

 SCF Done:  E(RB3LYP) =  -873.814504181     A.U. after   13 cycles

 The electronic state is 1-A.
 Alpha  occ. eigenvalues --  -88.90812 -88.88646 -10.20607 -10.18886  -7.99017
 Alpha  occ. eigenvalues --   -7.97113  -5.95438  -5.95065  -5.94426  -5.93523
 Alpha  occ. eigenvalues --   -5.93128  -5.92512  -0.84386  -0.76545  -0.69732
 Alpha  occ. eigenvalues --   -0.55003  -0.48810  -0.42969  -0.39153  -0.34840
 Alpha  occ. eigenvalues --   -0.30169  -0.28016  -0.25227
 Alpha virt. eigenvalues --   -0.07593  -0.02158   0.00149   0.00918   0.01093
 Alpha virt. eigenvalues --    0.02606   0.03766   0.04454   0.05074   0.05886
 Alpha virt. eigenvalues --    0.07562   0.07824   0.08228   0.08473   0.09918

 Mulliken charges:
               1
     1  S   -0.598360
     2  S   -0.148291
     3  C    0.617453
     4  C   -0.355282
     5  H    0.327882
     6  H    0.156599
 Sum of Mulliken charges =   0.00000

 Dipole moment (field-independent basis, Debye):
    X=              0.2597    Y=             -0.6624    Z=              0.7621  Tot=              1.0426
 Quadrupole moment (field-independent basis, Debye-Ang):
   XX=            -33.0532   YY=            -37.7743   ZZ=            -38.2261
   XY=             -1.1770   XZ=             -1.5699   YZ=             -0.8712

  Exact polarizability:  98.586  -3.831  58.593  -1.092  -0.464  46.914
 Approx polarizability: 162.598  -8.864 100.492  -1.208  -1.178  75.221

                      1                      2                      3
                      A                      A                      A
 Frequencies --    146.2687               272.8660               392.3017
 Red. masses --      5.8317                 1.3058                 7.6614
 Frc consts  --      0.0735                 0.0573                 0.6947
 IR Inten    --      0.8900                10.8227                10.1189

                      4                      5                      6
                      A                      A                      A
 Frequencies --    396.3490               484.8483               574.7492
 Red. masses --      3.0746                22.0321                 1.2388
 Frc consts  --      0.2846                 3.0515                 0.2411
 IR Inten    --      7.8318                 8.8623                56.2725

                      7                      8                      9
                      A                      A                      A
 Frequencies --    704.4370               733.3117               867.9327
 Red. masses --     11.1883                 1.2880                 1.0546
 Frc consts  --      3.2711                 0.4081                 0.4681
 IR Inten    --      4.8621                31.1821                 6.6372

                     10                     11                     12
                      A                      A                      A
 Frequencies --   2126.5207              2638.9571              3459.2548
 Red. masses --      6.0464                 1.0394                 1.1539
 Frc consts  --     16.1098                 4.2648                 8.1354
 IR Inten    --      3.1227                 0.5901                91.1858

 - Thermochemistry -
 -------------------
 Temperature   298.150 Kelvin.  Pressure   1.00000 Atm.
 Atom     1 has atomic number 16 and mass  31.97207

 Molecular mass:    89.95979 amu.
 Principal axes and moments of inertia in atomic units:
                           1         2         3
     Eigenvalues --   148.72770 674.48286 810.88882
           X            0.99977  -0.01870  -0.01079
           Y            0.01845   0.99957  -0.02294
           Z            0.01122   0.02273   0.99968
 This molecule is an asymmetric top.
 Rotational symmetry number  1.
 Rotational temperatures (Kelvin)      0.58237     0.12842     0.10681
 Rotational constants (GHZ):          12.13453     2.67574     2.22563
 Zero-point vibrational energy      76547.8 (Joules/Mol)
                                   18.29537 (Kcal/Mol)
 Warning -- explicit consideration of   6 degrees of freedom as
           vibrations may cause significant error
 Vibrational temperatures:    210.45   392.59   564.43   570.26   697.59
          (Kelvin)            826.93  1013.53  1055.07  1248.76  3059.59
                             3796.87  4977.09

 Zero-point correction=                           0.029156 (Hartree/Particle)
 Thermal correction to Energy=                    0.034405
 Thermal correction to Enthalpy=                  0.035349
 Thermal correction to Gibbs Free Energy=         0.000431
 Sum of electronic and zero-point Energies=           -873.785349
 Sum of electronic and thermal Energies=              -873.780099
 Sum of electronic and thermal Enthalpies=            -873.779155
 Sum of electronic and thermal Free Energies=         -873.814073

                     E (Thermal)             CV                S
                      KCal/Mol        Cal/Mol-Kelvin    Cal/Mol-Kelvin
 Total                   21.590             17.067             73.491
 Electronic               0.000              0.000              0.000
 Translational            0.889              2.981             39.403
 Rotational               0.889              2.981             25.901
 Vibrational             19.812             11.105              8.187
 Vibration     1          0.617              1.907              2.720
 Vibration     2          0.676              1.723              1.578
 Vibration     3          0.760              1.487              0.991
 Vibration     4          0.763              1.478              0.976
 Vibration     5          0.841              1.284              0.697
 Vibration     6          0.931              1.086              0.495

 Optimization completed.
    -- Stationary point found.
 Normal termination of Gaussian 09 at Wed Aug  3 20:54:21 2016.
