 Gaussian 09, Revision E.01,
 Gaussian 09:  EM64L-G09RevE.01 30-Nov-2015

 ------------------------------
 #p b3lyp/6-311++G(3df,2p) freq
 ------------------------------

 ---------
 b3lyp opt
 ---------
 Symbolic Z-matrix:
 Charge =  0 Multiplicity = 1

                         Standard orientation:
 ---------------------------------------------------------------------
 Center     Atomic      Atomic             Coordinates (Angstroms)
 Number     Number       Type             X           Y           Z
 ---------------------------------------------------------------------
      1         16           0       -0.064680    0.655747    0.105478
      2         16           0        1.577981   -0.359913   -0.066767
      3          6           0       -1.566641   -0.380324    0.504990
      4          6           0       -2.090986   -0.441471   -0.670881
      5          1           0       -1.676377   -0.707896    1.522563
      6          1           0       -0.590690    0.905314   -1.146589
 ---------------------------------------------------------------------

 SCF Done:  E(RB3LYP) =  -873.710955469     A.U. after   14 cycles

 The electronic state is 1-A.
 Alpha  occ. eigenvalues --  -88.98677 -88.85085 -10.24296 -10.22523  -8.06357
 Alpha  occ. eigenvalues --   -7.93668  -6.02592  -6.02430  -6.02066  -5.90183
 Alpha  occ. eigenvalues --   -5.89389  -5.89227  -0.90226  -0.79026  -0.65731
 Alpha  occ. eigenvalues --   -0.59304  -0.48068  -0.45790  -0.41101  -0.32542
 Alpha  occ. eigenvalues --   -0.31715  -0.27043  -0.25760
 Alpha virt. eigenvalues --   -0.12714  -0.04345  -0.03872  -0.02273  -0.00379
 Alpha virt. eigenvalues --   -0.00044   0.03393   0.03491   0.04376   0.05975
 Alpha virt. eigenvalues --    0.06467   0.07292   0.07799   0.08058   0.09643

 Mulliken charges:
               1
     1  S    0.315402
     2  S   -0.371472
     3  C    0.461021
     4  C   -0.763416
     5  H    0.216651
     6  H    0.141813
 Sum of Mulliken charges =  -0.00000

 Dipole moment (field-independent basis, Debye):
    X=             -0.7394    Y=              1.1858    Z=              1.7074  Tot=              2.2064
 Quadrupole moment (field-independent basis, Debye-Ang):
   XX=            -43.5020   YY=            -38.3528   ZZ=            -38.2592
   XY=             -0.0413   XZ=             -4.8531   YZ=             -2.7850

  Exact polarizability: 108.704   1.211  54.084   4.834  -0.093  54.929
 Approx polarizability: 240.351  -0.739  95.238  19.625   1.410  97.059

                      1                      2                      3
                      A                      A                      A
 Frequencies --    183.2529               237.2312               250.9466
 Red. masses --     12.2450                 4.1045                 4.6402
 Frc consts  --      0.2423                 0.1361                 0.1722
 IR Inten    --     10.8818                 4.8192                17.5988

                      4                      5                      6
                      A                      A                      A
 Frequencies --    503.8584               613.6295               675.3452
 Red. masses --      9.2535                11.0283                 1.4822
 Frc consts  --      1.3841                 2.4466                 0.3983
 IR Inten    --     34.9619                87.6322                83.6403

                      7                      8                      9
                      A                      A                      A
 Frequencies --    695.9429               888.7093              1014.4119
 Red. masses --      1.2167                 1.0764                 1.0957
 Frc consts  --      0.3472                 0.5009                 0.6643
 IR Inten    --     13.8264                 1.7391                38.6086

                     10                     11                     12
                      A                      A                      A
 Frequencies --   1685.8117              2343.5825              3281.0751
 Red. masses --      7.1655                 1.0377                 1.1111
 Frc consts  --     11.9982                 3.3581                 7.0477
 IR Inten    --     93.0816                14.8179                33.3294

 - Thermochemistry -
 -------------------
 Temperature   298.150 Kelvin.  Pressure   1.00000 Atm.
 Atom     1 has atomic number 16 and mass  31.97207

 Molecular mass:    89.95979 amu.
 Principal axes and moments of inertia in atomic units:
                           1         2         3
     Eigenvalues --   128.15960 632.13788 673.18259
           X            0.99992   0.00188  -0.01282
           Y           -0.00423   0.98249  -0.18626
           Z            0.01225   0.18630   0.98242
 This molecule is an asymmetric top.
 Rotational symmetry number  1.
 Rotational temperatures (Kelvin)      0.67583     0.13702     0.12866
 Rotational constants (GHZ):          14.08198     2.85498     2.68091
 Zero-point vibrational energy      74011.7 (Joules/Mol)
                                   17.68923 (Kcal/Mol)
 Warning -- explicit consideration of   5 degrees of freedom as
           vibrations may cause significant error
 Vibrational temperatures:    263.66   341.32   361.06   724.94   882.87
          (Kelvin)            971.67  1001.31  1278.65  1459.51  2425.50
                             3371.89  4720.73

 Zero-point correction=                           0.028190 (Hartree/Particle)
 Thermal correction to Energy=                    0.033304
 Thermal correction to Enthalpy=                  0.034248
 Thermal correction to Gibbs Free Energy=        -0.000299
 Sum of electronic and zero-point Energies=           -873.682766
 Sum of electronic and thermal Energies=              -873.677651
 Sum of electronic and thermal Enthalpies=            -873.676707
 Sum of electronic and thermal Free Energies=         -873.711255

                     E (Thermal)             CV                S
                      KCal/Mol        Cal/Mol-Kelvin    Cal/Mol-Kelvin
 Total                   20.899             16.247             72.711
 Electronic               0.000              0.000              0.000
 Translational            0.889              2.981             39.403
 Rotational               0.889              2.981             25.503
 Vibrational             19.121             10.285              7.805
 Vibration     1          0.631              1.863              2.295
 Vibration     2          0.656              1.784              1.824
 Vibration     3          0.663              1.761              1.724
 Vibration     4          0.859              1.241              0.649
 Vibration     5          0.973              1.003              0.427

 Optimization completed.
    -- Stationary point found.
 Normal termination of Gaussian 09 at Wed Aug  3 20:54:36 2016.
