 Gaussian 09, Revision E.01,
 Gaussian 09:  EM64L-G09RevE.01 30-Nov-2015

 ------------------------------
 #p b3lyp/6-311++G(3df,2p) freq
 ------------------------------

 ---------
 b3lyp opt
 ---------
 Symbolic Z-matrix:
 Charge =  1 Multiplicity = 2

                         Standard orientation:
 ---------------------------------------------------------------------
 Center     Atomic      Atomic             Coordinates (Angstroms)
 Number     Number       Type             X           Y           Z
 ---------------------------------------------------------------------
      1         16           0        0.001573    0.858521    0.000820
      2         16           0        1.588395   -0.451578    0.000175
      3          6           0       -2.451121   -0.589260   -0.003123
      4          6           0       -1.367732   -0.045745   -0.002893
      5          1           0       -3.382102   -1.114916    0.021564
      6          1           0        0.855728   -1.586146   -0.001390
 ---------------------------------------------------------------------

 SCF Done:  E(UB3LYP) =  -873.494720628     A.U. after   17 cycles

 The electronic state is 2-A.
 Alpha  occ. eigenvalues --  -89.17638 -89.13665 -10.43639 -10.43005  -8.25591
 Alpha  occ. eigenvalues --   -8.21983  -6.21815  -6.21710  -6.21403  -6.18294
 Alpha  occ. eigenvalues --   -6.17845  -6.17819  -1.10025  -1.00170  -0.94008
 Alpha  occ. eigenvalues --   -0.77295  -0.73048  -0.63709  -0.62313  -0.62227
 Alpha  occ. eigenvalues --   -0.53744  -0.52369  -0.47368
 Alpha virt. eigenvalues --   -0.29834  -0.23888  -0.20373  -0.19011  -0.15592
 Alpha virt. eigenvalues --   -0.13290  -0.11444  -0.09669  -0.09316  -0.09052
 Alpha virt. eigenvalues --   -0.08439  -0.07498  -0.06293  -0.05554  -0.05474

  Beta  occ. eigenvalues --  -89.17305 -89.13422 -10.43249 -10.43037  -8.25289
  Beta  occ. eigenvalues --   -8.21764  -6.21624  -6.21229  -6.20679  -6.18166
  Beta  occ. eigenvalues --   -6.17691  -6.17083  -1.08979  -0.99182  -0.92399
  Beta  occ. eigenvalues --   -0.76733  -0.72714  -0.63105  -0.61551  -0.59342
  Beta  occ. eigenvalues --   -0.51982  -0.50556
  Beta virt. eigenvalues --   -0.38835  -0.29121  -0.23550  -0.18765  -0.18668
  Beta virt. eigenvalues --   -0.15275  -0.12975  -0.11316  -0.09451  -0.09187
  Beta virt. eigenvalues --   -0.08819  -0.08097  -0.07047  -0.06208  -0.05310

 Mulliken charges and spin densities:
               1          2
     1  S   -0.181269   0.485681
     2  S    0.174644   0.341930
     3  C    0.618670   0.258118
     4  C   -0.206983  -0.070936
     5  H    0.384277  -0.008993
     6  H    0.210659  -0.005800
 Sum of Mulliken charges =   1.00000   1.00000

 Dipole moment (field-independent basis, Debye):
    X=             -1.4332    Y=             -1.6324    Z=              0.0211  Tot=              2.1724
 Quadrupole moment (field-independent basis, Debye-Ang):
   XX=            -14.5867   YY=            -27.7409   ZZ=            -35.7650
   XY=              2.4376   XZ=             -0.0838   YZ=             -0.0248

  Exact polarizability: 107.777   0.093  50.443   0.077   0.006  36.113
 Approx polarizability: 224.541   0.460  93.918   0.291   0.073  56.452

                      1                      2                      3
                      A                      A                      A
 Frequencies --    148.7835               193.8404               306.8330
 Red. masses --      5.2662                 1.1026                 4.8791
 Frc consts  --      0.0687                 0.0244                 0.2706
 IR Inten    --      1.2696                14.8713                14.0098

                      4                      5                      6
                      A                      A                      A
 Frequencies --    381.5107               518.0932               708.5820
 Red. masses --      6.8829                25.1644                 1.2943
 Frc consts  --      0.5902                 3.9797                 0.3829
 IR Inten    --     16.2791                18.8158                27.8266

                      7                      8                      9
                      A                      A                      A
 Frequencies --    761.5656               770.6186               873.6557
 Red. masses --      4.3927                 1.4103                 1.1561
 Frc consts  --      1.5011                 0.4935                 0.5199
 IR Inten    --     23.3535                32.0203                 5.4317

                     10                     11                     12
                      A                      A                      A
 Frequencies --   2056.7109              2632.6627              3393.4819
 Red. masses --      6.0711                 1.0390                 1.1547
 Frc consts  --     15.1309                 4.2429                 7.8342
 IR Inten    --    363.4112                35.7465               118.7504

 - Thermochemistry -
 -------------------
 Temperature   298.150 Kelvin.  Pressure   1.00000 Atm.
 Atom     1 has atomic number 16 and mass  31.97207

 Molecular mass:    89.95979 amu.
 Principal axes and moments of inertia in atomic units:
                           1         2         3
     Eigenvalues --   135.51013 669.39352 804.89892
           X            0.99987   0.01637  -0.00040
           Y           -0.01637   0.99987  -0.00061
           Z            0.00039   0.00062   1.00000
 This molecule is an asymmetric top.
 Rotational symmetry number  1.
 Rotational temperatures (Kelvin)      0.63917     0.12939     0.10761
 Rotational constants (GHZ):          13.31813     2.69608     2.24220
 Zero-point vibrational energy      76240.0 (Joules/Mol)
                                   18.22180 (Kcal/Mol)
 Warning -- explicit consideration of   5 degrees of freedom as
           vibrations may cause significant error
 Vibrational temperatures:    214.07   278.89   441.46   548.91   745.42
          (Kelvin)           1019.49  1095.72  1108.75  1256.99  2959.14
                             3787.81  4882.46

 Zero-point correction=                           0.029038 (Hartree/Particle)
 Thermal correction to Energy=                    0.034384
 Thermal correction to Enthalpy=                  0.035328
 Thermal correction to Gibbs Free Energy=        -0.000499
 Sum of electronic and zero-point Energies=           -873.465682
 Sum of electronic and thermal Energies=              -873.460336
 Sum of electronic and thermal Enthalpies=            -873.459392
 Sum of electronic and thermal Free Energies=         -873.495219

                     E (Thermal)             CV                S
                      KCal/Mol        Cal/Mol-Kelvin    Cal/Mol-Kelvin
 Total                   21.576             16.871             75.405
 Electronic               0.000              0.000              1.377
 Translational            0.889              2.981             39.403
 Rotational               0.889              2.981             25.793
 Vibrational             19.799             10.910              8.831
 Vibration     1          0.618              1.904              2.688
 Vibration     2          0.635              1.848              2.191
 Vibration     3          0.697              1.661              1.379
 Vibration     4          0.751              1.510              1.033
 Vibration     5          0.873              1.210              0.614

 Normal termination of Gaussian 09 at Wed Aug  3 21:07:43 2016.
