 Gaussian 09, Revision E.01,
 Gaussian 09:  EM64L-G09RevE.01 30-Nov-2015

 ------------------------------
 #p b3lyp/6-311++G(3df,2p) freq
 ------------------------------

 ---------
 b3lyp opt
 ---------
 Symbolic Z-matrix:
 Charge =  0 Multiplicity = 1

                         Standard orientation:
 ---------------------------------------------------------------------
 Center     Atomic      Atomic             Coordinates (Angstroms)
 Number     Number       Type             X           Y           Z
 ---------------------------------------------------------------------
      1         16           0       -0.046913   -1.039947   -0.000000
      2          6           0       -0.000000    0.647604    0.000000
      3          6           0       -0.068972    1.848286    0.000000
      4          1           0        1.283414   -1.244961    0.000000
      5          1           0       -0.118977    2.908767    0.000000
 ---------------------------------------------------------------------

 SCF Done:  E(RB3LYP) =  -475.587409811     A.U. after   12 cycles

 The electronic state is 1-A'.
 Alpha  occ. eigenvalues --  -88.88984 -10.20420 -10.18068  -7.97483  -5.93867
 Alpha  occ. eigenvalues --   -5.93490  -5.92934  -0.81986  -0.73321  -0.55060
 Alpha  occ. eigenvalues --   -0.49314  -0.40804  -0.35226  -0.29759  -0.24992
 Alpha virt. eigenvalues --   -0.02873  -0.00637   0.01026   0.01569   0.01709
 Alpha virt. eigenvalues --    0.04517   0.05857   0.05944   0.08211   0.08378
 Alpha virt. eigenvalues --    0.08852   0.09209   0.11025   0.12459   0.14941

 Mulliken charges:
               1
     1  S   -0.391736
     2  C   -0.522035
     3  C    0.436400
     4  H    0.154836
     5  H    0.322535
 Sum of Mulliken charges =   0.00000

 Dipole moment (field-independent basis, Debye):
    X=              0.7767    Y=              0.0534    Z=             -0.0000  Tot=              0.7785
 Quadrupole moment (field-independent basis, Debye-Ang):
   XX=            -24.1361   YY=            -19.8158   ZZ=            -27.6227
   XY=             -1.7576   XZ=             -0.0000   YZ=             -0.0000

  Exact polarizability:  33.565  -2.691  67.364  -0.000  -0.000  33.131
 Approx polarizability:  51.724  -5.910 114.048   0.000   0.000  46.850

                      1                      2                      3
                     A'                     A"                     A"
 Frequencies --    301.8472               366.1267               577.5762
 Red. masses --      3.9205                 5.5904                 1.2366
 Frc consts  --      0.2105                 0.4415                 0.2430
 IR Inten    --      8.3714                 9.6610                58.2656

                      4                      5                      6
                     A'                     A'                     A'
 Frequencies --    716.3475               726.2365               981.4866
 Red. masses --      8.7773                 1.3127                 1.1300
 Frc consts  --      2.6537                 0.4079                 0.6413
 IR Inten    --      2.2305                32.9139                12.6949

                      7                      8                      9
                     A'                     A'                     A'
 Frequencies --   2150.2848              2646.9661              3461.9428
 Red. masses --      5.9804                 1.0393                 1.1558
 Frc consts  --     16.2918                 4.2901                 8.1613
 IR Inten    --     18.9307                 0.8025                89.3822

 - Thermochemistry -
 -------------------
 Temperature   298.150 Kelvin.  Pressure   1.00000 Atm.
 Atom     1 has atomic number 16 and mass  31.97207

 Molecular mass:    57.98772 amu.
 Principal axes and moments of inertia in atomic units:
                           1         2         3
     Eigenvalues --     6.19768 323.86406 330.06174
           X           -0.02205   0.99976  -0.00000
           Y            0.99976   0.02205  -0.00000
           Z            0.00000   0.00000   1.00000
 This molecule is an asymmetric top.
 Rotational symmetry number  1.
 Rotational temperatures (Kelvin)     13.97520     0.26744     0.26242
 Rotational constants (GHZ):         291.19625     5.57253     5.46789
 Zero-point vibrational energy      71350.2 (Joules/Mol)
                                   17.05310 (Kcal/Mol)
 Warning -- explicit consideration of   3 degrees of freedom as
           vibrations may cause significant error
 Vibrational temperatures:    434.29   526.77   831.00  1030.66  1044.89
          (Kelvin)           1412.14  3093.78  3808.39  4980.96

 Zero-point correction=                           0.027176 (Hartree/Particle)
 Thermal correction to Energy=                    0.031191
 Thermal correction to Enthalpy=                  0.032136
 Thermal correction to Gibbs Free Energy=         0.002263
 Sum of electronic and zero-point Energies=           -475.560234
 Sum of electronic and thermal Energies=              -475.556218
 Sum of electronic and thermal Enthalpies=            -475.555274
 Sum of electronic and thermal Free Energies=         -475.585147

                     E (Thermal)             CV                S
                      KCal/Mol        Cal/Mol-Kelvin    Cal/Mol-Kelvin
 Total                   19.573             12.237             62.872
 Electronic               0.000              0.000              0.000
 Translational            0.889              2.981             38.094
 Rotational               0.889              2.981             21.121
 Vibrational             17.796              6.276              3.658
 Vibration     1          0.694              1.670              1.407
 Vibration     2          0.739              1.542              1.096
 Vibration     3          0.934              1.080              0.490

 Optimization completed.
    -- Stationary point found.
 Normal termination of Gaussian 09 at Wed Aug  3 22:58:06 2016.
