 Gaussian 09, Revision E.01,
 Gaussian 09:  EM64L-G09RevE.01 30-Nov-2015

 ------------------------------
 #p b3lyp/6-311++G(3df,2p) freq
 ------------------------------

 ---------
 b3lyp opt
 ---------
 Symbolic Z-matrix:
 Charge =  0 Multiplicity = 1

                         Standard orientation:
 ---------------------------------------------------------------------
 Center     Atomic      Atomic             Coordinates (Angstroms)
 Number     Number       Type             X           Y           Z
 ---------------------------------------------------------------------
      1         16           0        1.647617   -0.414865   -0.094766
      2         16           0       -0.201146    0.727483    0.113508
      3          6           0       -1.533820   -0.175386   -0.076196
      4          6           0       -2.625811   -0.794147    0.004964
      5          1           0        1.812210   -0.469284    1.237586
      6          1           0        0.002042    1.284600   -1.110074
 ---------------------------------------------------------------------

 SCF Done:  E(RB3LYP) =  -873.698977544     A.U. after   15 cycles

 The electronic state is 1-A.
 Alpha  occ. eigenvalues --  -88.99989 -88.91168 -10.18162 -10.16857  -8.07759
 Alpha  occ. eigenvalues --   -7.99703  -6.03968  -6.03885  -6.03439  -5.96071
 Alpha  occ. eigenvalues --   -5.95747  -5.95097  -0.90178  -0.77324  -0.71196
 Alpha  occ. eigenvalues --   -0.57332  -0.48931  -0.47078  -0.40574  -0.31532
 Alpha  occ. eigenvalues --   -0.28785  -0.27166  -0.26593
 Alpha virt. eigenvalues --   -0.12737  -0.06926  -0.03148  -0.01665   0.01159
 Alpha virt. eigenvalues --    0.01843   0.02257   0.03126   0.04134   0.05073
 Alpha virt. eigenvalues --    0.05838   0.07022   0.07599   0.08413   0.08813

 Mulliken charges:
               1
     1  S   -0.105942
     2  S   -0.591427
     3  C    0.592209
     4  C   -0.232060
     5  H    0.158453
     6  H    0.178767
 Sum of Mulliken charges =  -0.00000

 Dipole moment (field-independent basis, Debye):
    X=              5.5133    Y=              2.9130    Z=              0.1176  Tot=              6.2366
 Quadrupole moment (field-independent basis, Debye-Ang):
   XX=            -53.4317   YY=            -39.2094   ZZ=            -35.8839
   XY=             -6.6224   XZ=              1.7898   YZ=             -2.0740

  Exact polarizability: 121.492   7.985  60.525  -0.097  -1.943  50.074
 Approx polarizability: 237.221  23.052 105.452  -4.077  -4.547  83.424

                      1                      2                      3
                      A                      A                      A
 Frequencies --    104.2289               151.0753               214.1290
 Red. masses --      9.2534                 1.9256                 1.9226
 Frc consts  --      0.0592                 0.0259                 0.0519
 IR Inten    --      4.8607                11.0757                 9.5073

                      4                      5                      6
                      A                      A                      A
 Frequencies --    277.6198               395.6701               695.1583
 Red. masses --     13.6153                20.1680                 1.0670
 Frc consts  --      0.6183                 1.8603                 0.3038
 IR Inten    --      8.4886                54.3438                12.9865

                      7                      8                      9
                      A                      A                      A
 Frequencies --    793.5296               896.6866              1006.7158
 Red. masses --     13.1196                 1.1501                 1.0608
 Frc consts  --      4.8674                 0.5448                 0.6335
 IR Inten    --     87.6533                 0.2208                31.1933

                     10                     11                     12
                      A                      A                      A
 Frequencies --   1969.3163              2500.1969              2679.2211
 Red. masses --     11.6994                 1.0409                 1.0390
 Frc consts  --     26.7328                 3.8335                 4.3941
 IR Inten    --    705.7029                11.3365                 6.5392

 - Thermochemistry -
 -------------------
 Temperature   298.150 Kelvin.  Pressure   1.00000 Atm.
 Atom     1 has atomic number 16 and mass  31.97207

 Molecular mass:    89.95979 amu.
 Principal axes and moments of inertia in atomic units:
                           1         2         3
     Eigenvalues --   127.71473 734.74171 838.23426
           X            0.99993  -0.00407   0.01143
           Y            0.00485   0.99760  -0.06903
           Z           -0.01112   0.06908   0.99755
 This molecule is an asymmetric top.
 Rotational symmetry number  1.
 Rotational temperatures (Kelvin)      0.67818     0.11788     0.10333
 Rotational constants (GHZ):          14.13103     2.45629     2.15303
 Zero-point vibrational energy      69883.1 (Joules/Mol)
                                   16.70247 (Kcal/Mol)
 Warning -- explicit consideration of   5 degrees of freedom as
           vibrations may cause significant error
 Vibrational temperatures:    149.96   217.36   308.08   399.43   569.28
          (Kelvin)           1000.18  1141.71  1290.13  1448.44  2833.40
                             3597.22  3854.80

 Zero-point correction=                           0.026617 (Hartree/Particle)
 Thermal correction to Energy=                    0.032405
 Thermal correction to Enthalpy=                  0.033349
 Thermal correction to Gibbs Free Energy=        -0.003044
 Sum of electronic and zero-point Energies=           -873.672360
 Sum of electronic and thermal Energies=              -873.666572
 Sum of electronic and thermal Enthalpies=            -873.665628
 Sum of electronic and thermal Free Energies=         -873.702021

                     E (Thermal)             CV                S
                      KCal/Mol        Cal/Mol-Kelvin    Cal/Mol-Kelvin
 Total                   20.335             17.213             76.596
 Electronic               0.000              0.000              0.000
 Translational            0.889              2.981             39.403
 Rotational               0.889              2.981             25.867
 Vibrational             18.557             11.251             11.326
 Vibration     1          0.605              1.946              3.374
 Vibration     2          0.618              1.901              2.659
 Vibration     3          0.644              1.819              2.008
 Vibration     4          0.679              1.715              1.548
 Vibration     5          0.762              1.479              0.979

 Normal termination of Gaussian 09 at Wed Aug  3 20:59:06 2016.
