 Gaussian 09, Revision E.01,
 Gaussian 09:  EM64L-G09RevE.01 30-Nov-2015

 ------------------------------
 #p b3lyp/6-311++G(3df,2p) freq
 ------------------------------

 ---------
 b3lyp opt
 ---------
 Symbolic Z-matrix:
 Charge =  2 Multiplicity = 1

                         Standard orientation:
 ---------------------------------------------------------------------
 Center     Atomic      Atomic             Coordinates (Angstroms)
 Number     Number       Type             X           Y           Z
 ---------------------------------------------------------------------
      1         16           0        0.291669   -1.926361   -0.000000
      2         16           0       -0.831099    1.966139    0.000000
      3          6           0        0.000000    0.737912    0.000000
      4          6           0        0.864477   -0.390357   -0.000000
      5          1           0        1.937557   -0.170362   -0.000000
      6          1           0        1.506462   -2.551426   -0.000000
 ---------------------------------------------------------------------

 SCF Done:  E(RB3LYP) =  -873.018749118     A.U. after   12 cycles

 The electronic state is 1-A'.
 Alpha  occ. eigenvalues --  -89.38420 -89.38071 -10.73729 -10.73216  -8.46510
 Alpha  occ. eigenvalues --   -8.46208  -6.42559  -6.42444  -6.42402  -6.42339
 Alpha  occ. eigenvalues --   -6.42275  -6.41882  -1.33323  -1.28665  -1.15552
 Alpha  occ. eigenvalues --   -0.98264  -0.94787  -0.90151  -0.84393  -0.82028
 Alpha  occ. eigenvalues --   -0.79248  -0.77091
 Alpha virt. eigenvalues --   -0.60453  -0.53476  -0.46499  -0.41764  -0.35564
 Alpha virt. eigenvalues --   -0.32360  -0.31169  -0.28593  -0.27748  -0.25657
 Alpha virt. eigenvalues --   -0.24789  -0.24625  -0.22378  -0.21188  -0.20673

 Mulliken charges:
               1
     1  S    0.364233
     2  S    0.443022
     3  C    0.309623
     4  C    0.302332
     5  H    0.288252
     6  H    0.292538
 Sum of Mulliken charges =   2.00000

 Dipole moment (field-independent basis, Debye):
    X=              1.9035    Y=             -0.8228    Z=             -0.0000  Tot=              2.0737
 Quadrupole moment (field-independent basis, Debye-Ang):
   XX=            -19.8690   YY=              5.7260   ZZ=            -30.9564
   XY=            -13.7516   XZ=              0.0000   YZ=              0.0000

  Exact polarizability:  43.838 -17.138  87.806  -0.000  -0.000  30.138
 Approx polarizability:  80.758 -39.537 193.926  -0.000   0.000  48.836

                      1                      2                      3
                     A'                     A"                     A'
 Frequencies --    165.6367               286.2302               469.9178
 Red. masses --     10.5617                 2.4542                11.4543
 Frc consts  --      0.1707                 0.1185                 1.4903
 IR Inten    --      1.8964                27.7338                 1.4264

                      4                      5                      6
                     A"                     A'                     A"
 Frequencies --    634.8580               743.8902               906.4870
 Red. masses --      1.6841                 3.4455                 1.2973
 Frc consts  --      0.3999                 1.1234                 0.6281
 IR Inten    --     10.7290                 8.5863                12.2645

                      7                      8                      9
                     A'                     A'                     A'
 Frequencies --   1030.2140              1052.9570              1304.5313
 Red. masses --      2.2429                 1.4867                 1.4947
 Frc consts  --      1.4025                 0.9712                 1.4987
 IR Inten    --     21.7545                 1.7068                 0.4354

                     10                     11                     12
                     A'                     A'                     A'
 Frequencies --   1654.1583              2531.3746              3063.2555
 Red. masses --     12.9332                 1.0396                 1.0891
 Frc consts  --     20.8501                 3.9248                 6.0211
 IR Inten    --     11.9690               192.1345               136.7066

 - Thermochemistry -
 -------------------
 Temperature   298.150 Kelvin.  Pressure   1.00000 Atm.
 Atom     1 has atomic number 16 and mass  31.97207

 Molecular mass:    89.95979 amu.
 Principal axes and moments of inertia in atomic units:
                           1         2         3
     Eigenvalues --    51.467741008.509881059.97762
           X           -0.30726   0.95163   0.00000
           Y            0.95163   0.30726   0.00000
           Z            0.00000   0.00000   1.00000
 This molecule is an asymmetric top.
 Rotational symmetry number  1.
 Rotational temperatures (Kelvin)      1.68288     0.08588     0.08171
 Rotational constants (GHZ):          35.06549     1.78951     1.70262
 Zero-point vibrational energy      82802.6 (Joules/Mol)
                                   19.79029 (Kcal/Mol)
 Warning -- explicit consideration of   3 degrees of freedom as
           vibrations may cause significant error
 Vibrational temperatures:    238.31   411.82   676.11   913.42  1070.29
          (Kelvin)           1304.23  1482.25  1514.97  1876.93  2379.96
                             3642.08  4407.34

 Zero-point correction=                           0.031538 (Hartree/Particle)
 Thermal correction to Energy=                    0.036039
 Thermal correction to Enthalpy=                  0.036983
 Thermal correction to Gibbs Free Energy=         0.003433
 Sum of electronic and zero-point Energies=           -872.987211
 Sum of electronic and thermal Energies=              -872.982710
 Sum of electronic and thermal Enthalpies=            -872.981766
 Sum of electronic and thermal Free Energies=         -873.015316

                     E (Thermal)             CV                S
                      KCal/Mol        Cal/Mol-Kelvin    Cal/Mol-Kelvin
 Total                   22.615             13.919             70.612
 Electronic               0.000              0.000              0.000
 Translational            0.889              2.981             39.403
 Rotational               0.889              2.981             25.512
 Vibrational             20.837              7.957              5.697
 Vibration     1          0.624              1.885              2.484
 Vibration     2          0.684              1.699              1.496
 Vibration     3          0.827              1.317              0.738

 Optimization completed.
    -- Stationary point found.
 Normal termination of Gaussian 09 at Wed Aug  3 22:50:34 2016.
