 Gaussian 09, Revision E.01,
 Gaussian 09:  EM64L-G09RevE.01 30-Nov-2015

 ------------------------------
 #p b3lyp/6-311++G(3df,2p) freq
 ------------------------------

 ---------
 b3lyp opt
 ---------
 Symbolic Z-matrix:
 Charge =  0 Multiplicity = 3

                         Standard orientation:
 ---------------------------------------------------------------------
 Center     Atomic      Atomic             Coordinates (Angstroms)
 Number     Number       Type             X           Y           Z
 ---------------------------------------------------------------------
      1         16           0       -0.337262   -0.835426   -0.000000
      2          6           0       -0.000000    0.852243    0.000000
      3          6           0        1.326315    1.257631    0.000000
      4          1           0       -0.871995    1.510197    0.000000
      5          1           0       -1.689706   -0.802616   -0.000000
 ---------------------------------------------------------------------

 SCF Done:  E(UB3LYP) =  -475.460079259     A.U. after   16 cycles

 The electronic state is 3-A".
 Alpha  occ. eigenvalues --  -88.92776 -10.24772 -10.20369  -8.01254  -5.97468
 Alpha  occ. eigenvalues --   -5.97258  -5.97058  -0.86544  -0.73593  -0.56308
 Alpha  occ. eigenvalues --   -0.51037  -0.40210  -0.39067  -0.29433  -0.27370
 Alpha  occ. eigenvalues --   -0.20762
 Alpha virt. eigenvalues --   -0.04122  -0.03545  -0.01043   0.01653   0.03469
 Alpha virt. eigenvalues --    0.04005   0.05271   0.06423   0.08078   0.08596
 Alpha virt. eigenvalues --    0.09090   0.10702   0.11518   0.12390   0.13434

  Beta  occ. eigenvalues --  -88.92463 -10.24368 -10.18661  -8.00953  -5.97255
  Beta  occ. eigenvalues --   -5.96807  -5.96439  -0.84560  -0.69826  -0.53829
  Beta  occ. eigenvalues --   -0.49620  -0.39089  -0.34955  -0.26381
  Beta virt. eigenvalues --   -0.17251  -0.07311  -0.03042  -0.00377   0.00378
  Beta virt. eigenvalues --    0.01977   0.03689   0.04262   0.05688   0.06861
  Beta virt. eigenvalues --    0.08224   0.09097   0.09849   0.11786   0.11898

 Mulliken charges and spin densities:
               1          2
     1  S   -0.019956   0.413568
     2  C    0.276567   0.319756
     3  C   -0.544121   1.191120
     4  H    0.149874   0.047215
     5  H    0.137636   0.028341
 Sum of Mulliken charges =  -0.00000   2.00000

 Dipole moment (field-independent basis, Debye):
    X=             -4.3857    Y=             -1.8585    Z=             -0.0000  Tot=              4.7632
 Quadrupole moment (field-independent basis, Debye-Ang):
   XX=            -29.1564   YY=            -27.4817   ZZ=            -26.4203
   XY=             -3.8035   XZ=              0.0000   YZ=              0.0000

  Exact polarizability:  57.317  15.324  62.696  -0.000  -0.000  37.341
 Approx polarizability:  88.054  26.167  98.909   0.000   0.000  52.529

                      1                      2                      3
                     A'                     A"                     A"
 Frequencies --    315.6555               347.2333               712.1786
 Red. masses --      8.4227                 1.3437                 1.2471
 Frc consts  --      0.4945                 0.0955                 0.3727
 IR Inten    --      8.9350                 0.2220                 0.0505

                      4                      5                      6
                     A'                     A'                     A'
 Frequencies --    762.4837               906.6186              1159.9816
 Red. masses --      4.1144                 1.2870                 1.2170
 Frc consts  --      1.4094                 0.6233                 0.9648
 IR Inten    --     30.0184                 6.5739                 7.7616

                      7                      8                      9
                     A'                     A'                     A'
 Frequencies --   1298.7504              2587.9567              3030.8948
 Red. masses --      4.8936                 1.0382                 1.0854
 Frc consts  --      4.8633                 4.0968                 5.8745
 IR Inten    --     11.4679                 8.2387                13.3076

 - Thermochemistry -
 -------------------
 Temperature   298.150 Kelvin.  Pressure   1.00000 Atm.
 Atom     1 has atomic number 16 and mass  31.97207

 Molecular mass:    57.98772 amu.
 Principal axes and moments of inertia in atomic units:
                           1         2         3
     Eigenvalues --    32.18381 257.88429 290.06810
           X            0.55210   0.83378   0.00000
           Y            0.83378  -0.55210   0.00000
           Z           -0.00000  -0.00000   1.00000
 This molecule is an asymmetric top.
 Rotational symmetry number  1.
 Rotational temperatures (Kelvin)      2.69122     0.33586     0.29860
 Rotational constants (GHZ):          56.07606     6.99826     6.22178
 Zero-point vibrational energy      66522.9 (Joules/Mol)
                                   15.89934 (Kcal/Mol)
 Warning -- explicit consideration of   2 degrees of freedom as
           vibrations may cause significant error
 Vibrational temperatures:    454.16   499.59  1024.66  1097.04  1304.42
          (Kelvin)           1668.95  1868.61  3723.49  4360.78

 Zero-point correction=                           0.025337 (Hartree/Particle)
 Thermal correction to Energy=                    0.029216
 Thermal correction to Enthalpy=                  0.030161
 Thermal correction to Gibbs Free Energy=        -0.001167
 Sum of electronic and zero-point Energies=           -475.434742
 Sum of electronic and thermal Energies=              -475.430863
 Sum of electronic and thermal Enthalpies=            -475.429919
 Sum of electronic and thermal Free Energies=         -475.461247

                     E (Thermal)             CV                S
                      KCal/Mol        Cal/Mol-Kelvin    Cal/Mol-Kelvin
 Total                   18.334             11.581             65.936
 Electronic               0.000              0.000              2.183
 Translational            0.889              2.981             38.094
 Rotational               0.889              2.981             22.403
 Vibrational             16.556              5.619              3.256
 Vibration     1          0.703              1.644              1.333
 Vibration     2          0.725              1.581              1.179

 Optimization completed.
    -- Stationary point found.
 Normal termination of Gaussian 09 at Wed Aug  3 22:58:41 2016.
