 Gaussian 09, Revision E.01,
 Gaussian 09:  EM64L-G09RevE.01 30-Nov-2015

 ------------------------------
 #p b3lyp/6-311++G(3df,2p) freq
 ------------------------------

 ---------
 b3lyp opt
 ---------
 Symbolic Z-matrix:
 Charge =  1 Multiplicity = 4

                         Standard orientation:
 ---------------------------------------------------------------------
 Center     Atomic      Atomic             Coordinates (Angstroms)
 Number     Number       Type             X           Y           Z
 ---------------------------------------------------------------------
      1         16           0       -0.724046   -0.807388    0.000000
      2          6           0       -0.000000    0.727605   -0.000000
      3          6           0        1.308996    1.034233   -0.000000
      4          1           0        1.635889    2.074607   -0.000000
      5          1           0        2.094875    0.272571   -0.000000
 ---------------------------------------------------------------------

 SCF Done:  E(UB3LYP) =  -475.174450628     A.U. after   15 cycles

 The electronic state is 4-A".
 Alpha  occ. eigenvalues --  -89.20250 -10.51278 -10.47815  -8.28167  -6.24977
 Alpha  occ. eigenvalues --   -6.24213  -6.23999  -1.11433  -1.00596  -0.80961
 Alpha  occ. eigenvalues --   -0.72822  -0.70125  -0.63515  -0.61575  -0.53211
 Alpha  occ. eigenvalues --   -0.50484
 Alpha virt. eigenvalues --   -0.28267  -0.20969  -0.16204  -0.12947  -0.11991
 Alpha virt. eigenvalues --   -0.10161  -0.09114  -0.08209  -0.07081  -0.06427
 Alpha virt. eigenvalues --   -0.06024  -0.05603  -0.04274  -0.02455  -0.00589

  Beta  occ. eigenvalues --  -89.19189 -10.49688 -10.47031  -8.27199  -6.23313
  Beta  occ. eigenvalues --   -6.22688  -6.22687  -1.06640  -0.95738  -0.77129
  Beta  occ. eigenvalues --   -0.69814  -0.66484  -0.58137
  Beta virt. eigenvalues --   -0.46459  -0.41912  -0.33489  -0.23717  -0.18133
  Beta virt. eigenvalues --   -0.15426  -0.12373  -0.11624  -0.09681  -0.07938
  Beta virt. eigenvalues --   -0.07470  -0.05929  -0.05694  -0.04487  -0.04458

 Mulliken charges and spin densities:
               1          2
     1  S    0.411126   1.573369
     2  C    0.093191   0.926330
     3  C    0.054720   0.403103
     4  H    0.235439   0.027538
     5  H    0.205525   0.069659
 Sum of Mulliken charges =   1.00000   3.00000

 Dipole moment (field-independent basis, Debye):
    X=              1.5033    Y=              0.5791    Z=             -0.0000  Tot=              1.6109
 Quadrupole moment (field-independent basis, Debye-Ang):
   XX=            -13.0281   YY=            -15.3300   ZZ=            -22.7517
   XY=              5.8761   XZ=              0.0000   YZ=             -0.0000

  Exact polarizability:  46.712  17.042  45.447   0.000  -0.000  25.064
 Approx polarizability:  79.233  33.185  77.229  -0.000  -0.000  36.709

                      1                      2                      3
                     A'                     A"                     A'
 Frequencies --    283.6431               486.6331               735.3535
 Red. masses --      3.3092                 1.2450                 2.9540
 Frc consts  --      0.1569                 0.1737                 0.9411
 IR Inten    --      1.7746                 5.4769                 3.2063

                      4                      5                      6
                     A"                     A'                     A'
 Frequencies --    955.7130               969.6622              1350.5510
 Red. masses --      1.3591                 2.1079                 1.3049
 Frc consts  --      0.7314                 1.1677                 1.4023
 IR Inten    --     26.1501                 0.1917                68.8974

                      7                      8                      9
                     A'                     A'                     A'
 Frequencies --   1464.8134              3023.6249              3124.1034
 Red. masses --      3.6782                 1.0558                 1.1080
 Frc consts  --      4.6500                 5.6873                 6.3713
 IR Inten    --     23.9191                69.0793                61.4800

 - Thermochemistry -
 -------------------
 Temperature   298.150 Kelvin.  Pressure   1.00000 Atm.
 Atom     1 has atomic number 16 and mass  31.97207

 Molecular mass:    57.98772 amu.
 Principal axes and moments of inertia in atomic units:
                           1         2         3
     Eigenvalues --    19.62112 296.63309 316.25421
           X            0.70646   0.70775   0.00000
           Y            0.70775  -0.70646   0.00000
           Z           -0.00000   0.00000   1.00000
 This molecule is an asymmetric top.
 Rotational symmetry number  1.
 Rotational temperatures (Kelvin)      4.41432     0.29199     0.27387
 Rotational constants (GHZ):          91.97952     6.08409     5.70662
 Zero-point vibrational energy      74133.2 (Joules/Mol)
                                   17.71825 (Kcal/Mol)
 Warning -- explicit consideration of   2 degrees of freedom as
           vibrations may cause significant error
 Vibrational temperatures:    408.10   700.16  1058.01  1375.06  1395.13
          (Kelvin)           1943.14  2107.54  4350.32  4494.88

 Zero-point correction=                           0.028236 (Hartree/Particle)
 Thermal correction to Energy=                    0.031943
 Thermal correction to Enthalpy=                  0.032887
 Thermal correction to Gibbs Free Energy=         0.001666
 Sum of electronic and zero-point Energies=           -475.146215
 Sum of electronic and thermal Energies=              -475.142508
 Sum of electronic and thermal Enthalpies=            -475.141564
 Sum of electronic and thermal Free Energies=         -475.172784

                     E (Thermal)             CV                S
                      KCal/Mol        Cal/Mol-Kelvin    Cal/Mol-Kelvin
 Total                   20.044             10.758             65.709
 Electronic               0.000              0.000              2.755
 Translational            0.889              2.981             38.094
 Rotational               0.889              2.981             22.136
 Vibrational             18.267              4.797              2.724
 Vibration     1          0.682              1.704              1.512
 Vibration     2          0.843              1.280              0.692

 Optimization completed.
    -- Stationary point found.
 Normal termination of Gaussian 09 at Wed Aug  3 23:00:49 2016.
