 Gaussian 09, Revision E.01,
 Gaussian 09:  EM64L-G09RevE.01 30-Nov-2015

 ------------------------------
 #p b3lyp/6-311++G(3df,2p) freq
 ------------------------------

 ---------
 b3lyp opt
 ---------
 Symbolic Z-matrix:
 Charge =  0 Multiplicity = 3

                         Standard orientation:
 ---------------------------------------------------------------------
 Center     Atomic      Atomic             Coordinates (Angstroms)
 Number     Number       Type             X           Y           Z
 ---------------------------------------------------------------------
      1         16           0       -0.699616   -0.823058    0.000000
      2          6           0        0.000000    0.625861   -0.000000
      3          6           0        1.267034    1.124417   -0.000000
      4          1           0        1.450000    2.192525   -0.000000
      5          1           0        2.141657    0.474731   -0.000000
 ---------------------------------------------------------------------

 SCF Done:  E(UB3LYP) =  -475.550619997     A.U. after   14 cycles

 The electronic state is 3-A".
 Alpha  occ. eigenvalues --  -88.87609 -10.23075 -10.22835  -7.96077  -5.92567
 Alpha  occ. eigenvalues --   -5.92157  -5.91740  -0.83737  -0.74021  -0.55196
 Alpha  occ. eigenvalues --   -0.48042  -0.43619  -0.37431  -0.32795  -0.27252
 Alpha  occ. eigenvalues --   -0.20213
 Alpha virt. eigenvalues --   -0.03626  -0.00453   0.02244   0.02507   0.03487
 Alpha virt. eigenvalues --    0.05143   0.06487   0.08076   0.08934   0.10627
 Alpha virt. eigenvalues --    0.11919   0.11926   0.12622   0.13725   0.14489

  Beta  occ. eigenvalues --  -88.87073 -10.22190 -10.21878  -7.95588  -5.91742
  Beta  occ. eigenvalues --   -5.91392  -5.91064  -0.81129  -0.71034  -0.52722
  Beta  occ. eigenvalues --   -0.46408  -0.41297  -0.33363  -0.28835
  Beta virt. eigenvalues --   -0.16539  -0.08572  -0.00672  -0.00146   0.02408
  Beta virt. eigenvalues --    0.02744   0.03960   0.05960   0.06633   0.08761
  Beta virt. eigenvalues --    0.09203   0.11089   0.12262   0.12437   0.13340

 Mulliken charges and spin densities:
               1          2
     1  S   -0.086826   0.849164
     2  C   -0.083674   0.504530
     3  C   -0.134100   0.596457
     4  H    0.178499  -0.016940
     5  H    0.126101   0.066789
 Sum of Mulliken charges =  -0.00000   2.00000

 Dipole moment (field-independent basis, Debye):
    X=              1.7085    Y=              0.6529    Z=             -0.0000  Tot=              1.8290
 Quadrupole moment (field-independent basis, Debye-Ang):
   XX=            -23.9079   YY=            -24.0352   ZZ=            -25.7584
   XY=              2.4626   XZ=              0.0000   YZ=             -0.0000

  Exact polarizability:  56.406  17.811  60.497   0.000   0.000  32.114
 Approx polarizability:  88.638  36.932 104.762  -0.000  -0.000  48.086

                      1                      2                      3
                     A'                     A"                     A'
 Frequencies --    325.4173               385.1000               843.2205
 Red. masses --      3.4109                 1.3759                 4.6358
 Frc consts  --      0.2128                 0.1202                 1.9420
 IR Inten    --      5.8336                 1.5342                 4.9696

                      4                      5                      6
                     A"                     A'                     A'
 Frequencies --    911.9874              1058.3895              1331.4842
 Red. masses --      1.3591                 1.6006                 3.6026
 Frc consts  --      0.6660                 1.0564                 3.7631
 IR Inten    --     22.3194                 7.4313                 7.8505

                      7                      8                      9
                     A'                     A'                     A'
 Frequencies --   1481.7943              3058.0669              3172.4068
 Red. masses --      1.3531                 1.0578                 1.1072
 Frc consts  --      1.7504                 5.8282                 6.5650
 IR Inten    --      2.0247                18.5051                 2.7221

 - Thermochemistry -
 -------------------
 Temperature   298.150 Kelvin.  Pressure   1.00000 Atm.
 Atom     1 has atomic number 16 and mass  31.97207

 Molecular mass:    57.98772 amu.
 Principal axes and moments of inertia in atomic units:
                           1         2         3
     Eigenvalues --    15.37782 298.59964 313.97746
           X            0.68425   0.72925   0.00000
           Y            0.72925  -0.68425   0.00000
           Z           -0.00000   0.00000   1.00000
 This molecule is an asymmetric top.
 Rotational symmetry number  1.
 Rotational temperatures (Kelvin)      5.63239     0.29007     0.27586
 Rotational constants (GHZ):         117.36002     6.04402     5.74800
 Zero-point vibrational energy      75172.5 (Joules/Mol)
                                   17.96667 (Kcal/Mol)
 Warning -- explicit consideration of   2 degrees of freedom as
           vibrations may cause significant error
 Vibrational temperatures:    468.20   554.07  1213.20  1312.14  1522.78
          (Kelvin)           1915.71  2131.97  4399.87  4564.38

 Zero-point correction=                           0.028632 (Hartree/Particle)
 Thermal correction to Energy=                    0.032341
 Thermal correction to Enthalpy=                  0.033285
 Thermal correction to Gibbs Free Energy=         0.002453
 Sum of electronic and zero-point Energies=           -475.521988
 Sum of electronic and thermal Energies=              -475.518279
 Sum of electronic and thermal Enthalpies=            -475.517335
 Sum of electronic and thermal Free Energies=         -475.548167

                     E (Thermal)             CV                S
                      KCal/Mol        Cal/Mol-Kelvin    Cal/Mol-Kelvin
 Total                   20.294             10.685             64.891
 Electronic               0.000              0.000              2.183
 Translational            0.889              2.981             38.094
 Rotational               0.889              2.981             21.894
 Vibrational             18.517              4.724              2.720
 Vibration     1          0.710              1.625              1.283
 Vibration     2          0.754              1.502              1.019

 Optimization completed.
    -- Stationary point found.
 Normal termination of Gaussian 09 at Wed Aug  3 23:01:02 2016.
