 Gaussian 09, Revision E.01,
 Gaussian 09:  EM64L-G09RevE.01 30-Nov-2015

 ------------------------------
 #p b3lyp/6-311++G(3df,2p) freq
 ------------------------------

 ---------
 b3lyp opt
 ---------
 Symbolic Z-matrix:
 Charge =  0 Multiplicity = 3

                         Standard orientation:
 ---------------------------------------------------------------------
 Center     Atomic      Atomic             Coordinates (Angstroms)
 Number     Number       Type             X           Y           Z
 ---------------------------------------------------------------------
      1         16           0       -0.047241   -0.772143   -0.000000
      2          6           0       -0.047241    0.833291    0.713885
      3          6           0       -0.047241    0.833291   -0.713885
      4          1           0        0.661374    1.177392    1.459488
      5          1           0        0.661374    1.177392   -1.459488
 ---------------------------------------------------------------------

 SCF Done:  E(UB3LYP) =  -475.505776138     A.U. after   13 cycles

 The electronic state is 3-A".
 Alpha  occ. eigenvalues --  -88.89687 -10.22723 -10.22686  -7.98029  -5.94176
 Alpha  occ. eigenvalues --   -5.94114  -5.93913  -0.90414  -0.63746  -0.60074
 Alpha  occ. eigenvalues --   -0.50401  -0.40091  -0.36180  -0.35435  -0.24281
 Alpha  occ. eigenvalues --   -0.19593
 Alpha virt. eigenvalues --   -0.01934  -0.00149   0.00716   0.02662   0.04083
 Alpha virt. eigenvalues --    0.06779   0.06881   0.07450   0.08414   0.09014
 Alpha virt. eigenvalues --    0.10861   0.11943   0.13242   0.14489   0.14632

  Beta  occ. eigenvalues --  -88.89340 -10.21508 -10.21471  -7.97712  -5.93961
  Beta  occ. eigenvalues --   -5.93620  -5.93154  -0.88586  -0.60917  -0.57426
  Beta  occ. eigenvalues --   -0.48727  -0.35395  -0.34829  -0.32178
  Beta virt. eigenvalues --   -0.12138  -0.05716  -0.00713   0.00065   0.01148
  Beta virt. eigenvalues --    0.03189   0.04411   0.07034   0.07075   0.07460
  Beta virt. eigenvalues --    0.09052   0.10282   0.11360   0.12315   0.13655

 Mulliken charges and spin densities:
               1          2
     1  S    0.012348   0.564717
     2  C   -0.152224   0.682240
     3  C   -0.152224   0.682240
     4  H    0.146050   0.035402
     5  H    0.146050   0.035402
 Sum of Mulliken charges =  -0.00000   2.00000

 Dipole moment (field-independent basis, Debye):
    X=              1.2338    Y=              0.0533    Z=             -0.0000  Tot=              1.2350
 Quadrupole moment (field-independent basis, Debye-Ang):
   XX=            -26.2111   YY=            -24.6197   ZZ=            -24.2625
   XY=              1.8695   XZ=              0.0000   YZ=              0.0000

  Exact polarizability:  34.230  -0.318  52.300  -0.000   0.000  43.493
 Approx polarizability:  48.855  -1.875  96.603  -0.000   0.000  66.776

                      1                      2                      3
                     A"                     A'                     A'
 Frequencies --    681.8102               693.7361               796.1359
 Red. masses --      6.2118                 5.4140                 1.1322
 Frc consts  --      1.7013                 1.5352                 0.4228
 IR Inten    --      5.0331                11.7612                28.1864

                      4                      5                      6
                     A"                     A'                     A"
 Frequencies --    824.8542               928.1853              1014.6910
 Red. masses --      1.2640                 1.1789                 1.3177
 Frc consts  --      0.5067                 0.5984                 0.7994
 IR Inten    --     23.7382                13.7338                30.3062

                      7                      8                      9
                     A'                     A"                     A'
 Frequencies --   1257.6964              3121.1098              3136.1039
 Red. masses --      7.1748                 1.0843                 1.0989
 Frc consts  --      6.6867                 6.2232                 6.3679
 IR Inten    --      4.7468                18.2872                 3.6678

 - Thermochemistry -
 -------------------
 Temperature   298.150 Kelvin.  Pressure   1.00000 Atm.
 Atom     1 has atomic number 16 and mass  31.97207

 Molecular mass:    57.98772 amu.
 Principal axes and moments of inertia in atomic units:
                           1         2         3
     Eigenvalues --    62.21196 140.72003 196.52977
           X            0.04628   0.00000   0.99893
           Y            0.99893  -0.00000  -0.04628
           Z            0.00000   1.00000  -0.00000
 This molecule is an asymmetric top.
 Rotational symmetry number  1.
 Rotational temperatures (Kelvin)      1.39224     0.61550     0.44072
 Rotational constants (GHZ):          29.00956    12.82505     9.18304
 Zero-point vibrational energy      74493.4 (Joules/Mol)
                                   17.80435 (Kcal/Mol)
 Vibrational temperatures:    980.97   998.13  1145.46  1186.78  1335.45
          (Kelvin)           1459.91  1809.54  4490.58  4512.15

 Zero-point correction=                           0.028373 (Hartree/Particle)
 Thermal correction to Energy=                    0.031689
 Thermal correction to Enthalpy=                  0.032633
 Thermal correction to Gibbs Free Energy=         0.002399
 Sum of electronic and zero-point Energies=           -475.477403
 Sum of electronic and thermal Energies=              -475.474087
 Sum of electronic and thermal Enthalpies=            -475.473143
 Sum of electronic and thermal Free Energies=         -475.503377

                     E (Thermal)             CV                S
                      KCal/Mol        Cal/Mol-Kelvin    Cal/Mol-Kelvin
 Total                   19.885              9.930             63.632
 Electronic               0.000              0.000              2.183
 Translational            0.889              2.981             38.094
 Rotational               0.889              2.981             22.069
 Vibrational             18.107              3.968              1.286

 Optimization completed.
    -- Stationary point found.
 Normal termination of Gaussian 09 at Wed Aug  3 22:58:18 2016.
