 Gaussian 09, Revision E.01,
 Gaussian 09:  EM64L-G09RevE.01 30-Nov-2015

 ------------------------------
 #p b3lyp/6-311++G(3df,2p) freq
 ------------------------------

 ---------
 b3lyp opt
 ---------
 Symbolic Z-matrix:
 Charge =  0 Multiplicity = 1

                         Standard orientation:
 ---------------------------------------------------------------------
 Center     Atomic      Atomic             Coordinates (Angstroms)
 Number     Number       Type             X           Y           Z
 ---------------------------------------------------------------------
      1         16           0        1.775161   -0.089800   -0.043309
      2         16           0       -1.543775   -0.520711   -0.023446
      3          6           0        0.112762    0.301380    0.057028
      4          6           0       -0.814687    1.180986    0.041283
      5          1           0       -1.157234    2.195201   -0.006078
      6          1           0        1.666593   -1.321236    0.484297
 ---------------------------------------------------------------------

 SCF Done:  E(RB3LYP) =  -873.787780591     A.U. after   13 cycles

 The electronic state is 1-A.
 Alpha  occ. eigenvalues --  -88.89740 -88.85521 -10.25709 -10.22790  -7.98281
 Alpha  occ. eigenvalues --   -7.93849  -5.94642  -5.94280  -5.93748  -5.90330
 Alpha  occ. eigenvalues --   -5.89935  -5.89127  -0.89363  -0.79343  -0.63425
 Alpha  occ. eigenvalues --   -0.57139  -0.50287  -0.42977  -0.39547  -0.36469
 Alpha  occ. eigenvalues --   -0.32014  -0.28788  -0.20012
 Alpha virt. eigenvalues --   -0.05258  -0.02706  -0.02207  -0.00274   0.00741
 Alpha virt. eigenvalues --    0.02786   0.03927   0.04664   0.04967   0.06601
 Alpha virt. eigenvalues --    0.06937   0.07605   0.08413   0.09430   0.10012

 Mulliken charges:
               1
     1  S   -0.320031
     2  S   -0.258105
     3  C   -0.247011
     4  C    0.364937
     5  H    0.306505
     6  H    0.153705
 Sum of Mulliken charges =  -0.00000

 Dipole moment (field-independent basis, Debye):
    X=              1.3520    Y=              0.8575    Z=              0.2782  Tot=              1.6250
 Quadrupole moment (field-independent basis, Debye-Ang):
   XX=            -37.9909   YY=            -33.0078   ZZ=            -41.3456
   XY=             -4.4248   XZ=              0.5090   YZ=             -1.2317

  Exact polarizability:  87.701  -1.340  61.804   0.424   0.262  48.636
 Approx polarizability: 145.181  -5.514 112.637   0.437  -0.337  73.189

                      1                      2                      3
                      A                      A                      A
 Frequencies --    121.2280               234.9820               317.6858
 Red. masses --      1.3765                 5.7312                 2.5846
 Frc consts  --      0.0119                 0.1864                 0.1537
 IR Inten    --     10.7631                 2.4557                19.4211

                      4                      5                      6
                      A                      A                      A
 Frequencies --    429.9788               622.9270               625.4805
 Red. masses --      5.4988                 1.6163                 8.7730
 Frc consts  --      0.5990                 0.3695                 2.0222
 IR Inten    --      1.5920                26.6069                 3.3255

                      7                      8                      9
                      A                      A                      A
 Frequencies --    763.3006               935.5766               985.0928
 Red. masses --      6.3750                 1.1975                 1.1784
 Frc consts  --      2.1884                 0.6175                 0.6738
 IR Inten    --     21.2340                13.0798                13.5256

                     10                     11                     12
                      A                      A                      A
 Frequencies --   1798.2421              2658.3487              3311.8642
 Red. masses --      7.3568                 1.0387                 1.1165
 Frc consts  --     14.0164                 4.3248                 7.2151
 IR Inten    --     25.1584                 0.9543                29.6729

 - Thermochemistry -
 -------------------
 Temperature   298.150 Kelvin.  Pressure   1.00000 Atm.
 Atom     1 has atomic number 16 and mass  31.97207

 Molecular mass:    89.95979 amu.
 Principal axes and moments of inertia in atomic units:
                           1         2         3
     Eigenvalues --   119.94644 677.46163 794.87896
           X            0.99954  -0.02989   0.00478
           Y            0.02999   0.99935  -0.02016
           Z           -0.00418   0.02030   0.99979
 This molecule is an asymmetric top.
 Rotational symmetry number  1.
 Rotational temperatures (Kelvin)      0.72210     0.12785     0.10896
 Rotational constants (GHZ):          15.04623     2.66398     2.27046
 Zero-point vibrational energy      76589.2 (Joules/Mol)
                                   18.30525 (Kcal/Mol)
 Warning -- explicit consideration of   4 degrees of freedom as
           vibrations may cause significant error
 Vibrational temperatures:    174.42   338.09   457.08   618.64   896.25
          (Kelvin)            899.93  1098.22  1346.08  1417.33  2587.27
                             3824.77  4765.03

 Zero-point correction=                           0.029171 (Hartree/Particle)
 Thermal correction to Energy=                    0.034358
 Thermal correction to Enthalpy=                  0.035302
 Thermal correction to Gibbs Free Energy=         0.000399
 Sum of electronic and zero-point Energies=           -873.758609
 Sum of electronic and thermal Energies=              -873.753423
 Sum of electronic and thermal Enthalpies=            -873.752479
 Sum of electronic and thermal Free Energies=         -873.787381

                     E (Thermal)             CV                S
                      KCal/Mol        Cal/Mol-Kelvin    Cal/Mol-Kelvin
 Total                   21.560             16.274             73.459
 Electronic               0.000              0.000              0.000
 Translational            0.889              2.981             39.403
 Rotational               0.889              2.981             25.671
 Vibrational             19.782             10.312              8.385
 Vibration     1          0.609              1.931              3.081
 Vibration     2          0.655              1.787              1.841
 Vibration     3          0.704              1.640              1.322
 Vibration     4          0.791              1.405              0.859

 Optimization completed.
    -- Stationary point found.
 Normal termination of Gaussian 09 at Wed Aug  3 20:54:33 2016.
