 Gaussian 09, Revision E.01,
 Gaussian 09:  EM64L-G09RevE.01 30-Nov-2015

 ------------------------------
 #p b3lyp/6-311++G(3df,2p) freq
 ------------------------------

 ---------
 b3lyp opt
 ---------
 Symbolic Z-matrix:
 Charge =  2 Multiplicity = 3

                         Standard orientation:
 ---------------------------------------------------------------------
 Center     Atomic      Atomic             Coordinates (Angstroms)
 Number     Number       Type             X           Y           Z
 ---------------------------------------------------------------------
      1         16           0       -0.460136   -2.311642    0.000000
      2         16           0        0.557888    2.096198   -0.000000
      3          6           0       -0.000000    0.478729   -0.000000
      4          6           0       -0.185322   -0.763956    0.000000
      5          1           0       -0.226053    2.579227    1.018934
      6          1           0       -0.226053    2.579227   -1.018934
 ---------------------------------------------------------------------

 SCF Done:  E(UB3LYP) =  -872.955225825     A.U. after   17 cycles

 The electronic state is 3-A".
 Alpha  occ. eigenvalues --  -89.40925 -89.37379 -10.71172 -10.68287  -8.48945
 Alpha  occ. eigenvalues --   -8.45202  -6.45208  -6.44939  -6.44600  -6.41613
 Alpha  occ. eigenvalues --   -6.41537  -6.41026  -1.32014  -1.27647  -1.18522
 Alpha  occ. eigenvalues --   -0.99189  -0.93824  -0.89873  -0.86191  -0.81952
 Alpha  occ. eigenvalues --   -0.80421  -0.72003  -0.70783
 Alpha virt. eigenvalues --   -0.46805  -0.46461  -0.42346  -0.39749  -0.39422
 Alpha virt. eigenvalues --   -0.32753  -0.29626  -0.27213  -0.25471  -0.24261
 Alpha virt. eigenvalues --   -0.23049  -0.22043  -0.21225  -0.19903  -0.19731

  Beta  occ. eigenvalues --  -89.40936 -89.36499 -10.69559 -10.68837  -8.48946
  Beta  occ. eigenvalues --   -8.44404  -6.45266  -6.44960  -6.44554  -6.40544
  Beta  occ. eigenvalues --   -6.39973  -6.39937  -1.30461  -1.25902  -1.14903
  Beta  occ. eigenvalues --   -0.97732  -0.92904  -0.87447  -0.84131  -0.78475
  Beta  occ. eigenvalues --   -0.77517
  Beta virt. eigenvalues --   -0.60086  -0.59380  -0.45306  -0.44691  -0.40305
  Beta virt. eigenvalues --   -0.38674  -0.38125  -0.31061  -0.29316  -0.26996
  Beta virt. eigenvalues --   -0.25345  -0.24078  -0.22360  -0.21077  -0.20482

 Mulliken charges and spin densities:
               1          2
     1  S    0.374086   1.325991
     2  S   -0.175822   0.005252
     3  C    0.098617   0.764761
     4  C    1.084375  -0.168751
     5  H    0.309372   0.036374
     6  H    0.309372   0.036374
 Sum of Mulliken charges =   2.00000   2.00000

 Dipole moment (field-independent basis, Debye):
    X=             -0.5992    Y=              3.5619    Z=              0.0000  Tot=              3.6119
 Quadrupole moment (field-independent basis, Debye-Ang):
   XX=            -29.4467   YY=             20.2924   ZZ=            -27.7445
   XY=              6.3429   XZ=              0.0000   YZ=              0.0000

  Exact polarizability:  34.397  11.353 101.984  -0.000  -0.000  34.045
 Approx polarizability:  54.964  22.463 189.408  -0.000   0.000  54.478

                      1                      2                      3
                     A"                     A'                     A'
 Frequencies --    143.2820               146.4125               359.4877
 Red. masses --      4.7321                 8.6532                11.2648
 Frc consts  --      0.0572                 0.1093                 0.8577
 IR Inten    --     10.3791                 7.0289                 0.0890

                      4                      5                      6
                     A"                     A'                     A'
 Frequencies --    361.4226               473.0026               841.0294
 Red. masses --      9.6309                14.8513                 1.2167
 Frc consts  --      0.7412                 1.9577                 0.5071
 IR Inten    --      0.0004                 3.7006                 2.1117

                      7                      8                      9
                     A"                     A'                     A'
 Frequencies --    913.4141               997.1591              1139.7959
 Red. masses --      1.1023                 8.2518                 1.0382
 Frc consts  --      0.5418                 4.8342                 0.7947
 IR Inten    --     11.0544                62.5809                19.0927

                     10                     11                     12
                     A'                     A'                     A"
 Frequencies --   1743.3417              2458.6415              2463.6083
 Red. masses --     11.6156                 1.0348                 1.0432
 Frc consts  --     20.7997                 3.6854                 3.7304
 IR Inten    --     43.2095               224.3906               160.2366

 - Thermochemistry -
 -------------------
 Temperature   298.150 Kelvin.  Pressure   1.00000 Atm.
 Atom     1 has atomic number 16 and mass  31.97207

 Molecular mass:    89.95979 amu.
 Principal axes and moments of inertia in atomic units:
                           1         2         3
     Eigenvalues --    13.427281255.018141256.53722
           X            0.21146  -0.00000   0.97739
           Y            0.97739   0.00000  -0.21146
           Z           -0.00000   1.00000   0.00000
 This molecule is an asymmetric top.
 Rotational symmetry number  1.
 Rotational temperatures (Kelvin)      6.45058     0.06901     0.06893
 Rotational constants (GHZ):         134.40853     1.43802     1.43628
 Zero-point vibrational energy      72018.8 (Joules/Mol)
                                   17.21290 (Kcal/Mol)
 Warning -- explicit consideration of   5 degrees of freedom as
           vibrations may cause significant error
 Vibrational temperatures:    206.15   210.65   517.22   520.01   680.54
          (Kelvin)           1210.05  1314.20  1434.69  1639.91  2508.28
                             3537.43  3544.58

 Zero-point correction=                           0.027430 (Hartree/Particle)
 Thermal correction to Energy=                    0.032691
 Thermal correction to Enthalpy=                  0.033636
 Thermal correction to Gibbs Free Energy=        -0.002027
 Sum of electronic and zero-point Energies=           -872.927795
 Sum of electronic and thermal Energies=              -872.922534
 Sum of electronic and thermal Enthalpies=            -872.921590
 Sum of electronic and thermal Free Energies=         -872.957252

                     E (Thermal)             CV                S
                      KCal/Mol        Cal/Mol-Kelvin    Cal/Mol-Kelvin
 Total                   20.514             15.926             75.057
 Electronic               0.000              0.000              2.183
 Translational            0.889              2.981             39.403
 Rotational               0.889              2.981             24.563
 Vibrational             18.737              9.964              8.908
 Vibration     1          0.616              1.910              2.760
 Vibration     2          0.617              1.907              2.718
 Vibration     3          0.734              1.556              1.124
 Vibration     4          0.736              1.552              1.116
 Vibration     5          0.830              1.310              0.729

 Normal termination of Gaussian 09 at Wed Aug  3 22:56:38 2016.
