 Gaussian 09, Revision E.01,
 Gaussian 09:  EM64L-G09RevE.01 30-Nov-2015

 ------------------------------
 #p b3lyp/6-311++G(3df,2p) freq
 ------------------------------

 ---------
 b3lyp opt
 ---------
 Symbolic Z-matrix:
 Charge =  2 Multiplicity = 1

                         Standard orientation:
 ---------------------------------------------------------------------
 Center     Atomic      Atomic             Coordinates (Angstroms)
 Number     Number       Type             X           Y           Z
 ---------------------------------------------------------------------
      1         16           0       -1.576274   -0.744376    0.000000
      2         16           0       -0.000000    0.528069   -0.000000
      3          6           0        1.534953    0.336157   -0.000000
      4          6           0        2.880185    0.247657   -0.000000
      5          1           0       -0.777976   -1.859799    0.000000
      6          1           0       -0.492470    1.817814   -0.000000
 ---------------------------------------------------------------------

 SCF Done:  E(RB3LYP) =  -872.770659815     A.U. after   16 cycles

 The electronic state is 1-A'.
 Alpha  occ. eigenvalues --  -89.48572 -89.40470 -10.73508 -10.69166  -8.56221
 Alpha  occ. eigenvalues --   -8.48470  -6.52300  -6.52296  -6.52239  -6.44959
 Alpha  occ. eigenvalues --   -6.44257  -6.44066  -1.38659  -1.25098  -1.18115
 Alpha  occ. eigenvalues --   -1.06147  -0.96145  -0.87834  -0.87542  -0.75947
 Alpha  occ. eigenvalues --   -0.75302  -0.73506
 Alpha virt. eigenvalues --   -0.63816  -0.56661  -0.50750  -0.45336  -0.44221
 Alpha virt. eigenvalues --   -0.39628  -0.35350  -0.33902  -0.31329  -0.29213
 Alpha virt. eigenvalues --   -0.26136  -0.26034  -0.24435  -0.24309  -0.22090

 Mulliken charges:
               1
     1  S    0.476989
     2  S    0.027363
     3  C    0.582096
     4  C    0.309711
     5  H    0.283356
     6  H    0.320485
 Sum of Mulliken charges =   2.00000

 Dipole moment (field-independent basis, Debye):
    X=             -1.2291    Y=              0.4105    Z=              0.0000  Tot=              1.2958
 Quadrupole moment (field-independent basis, Debye-Ang):
   XX=            -10.3462   YY=            -18.2111   ZZ=            -31.6161
   XY=              5.7622   XZ=             -0.0000   YZ=              0.0000

  Exact polarizability: 109.431  15.796  48.491   0.000   0.000  32.919
 Approx polarizability: 368.663  65.174  94.231  -0.000  -0.000  53.420

                      1                      2                      3
                     A"                     A'                     A"
 Frequencies --     66.1730               105.9426               265.7807
 Red. masses --      4.7168                10.6426                 1.7137
 Frc consts  --      0.0122                 0.0704                 0.0713
 IR Inten    --      3.1196                 0.3240                 0.0013

                      4                      5                      6
                     A'                     A"                     A'
 Frequencies --    284.6895               430.0151               468.0256
 Red. masses --      7.6913                 1.0412                11.3949
 Frc consts  --      0.3673                 0.1134                 1.4706
 IR Inten    --     17.5315                77.0833                33.0368

                      7                      8                      9
                     A'                     A'                     A'
 Frequencies --    826.5650               848.5767              1035.7801
 Red. masses --      1.3210                 3.6179                 1.1678
 Frc consts  --      0.5317                 1.5349                 0.7382
 IR Inten    --     22.5102                23.8829                 3.6728

                     10                     11                     12
                     A'                     A'                     A'
 Frequencies --   1698.1708              2382.4048              2496.1197
 Red. masses --     11.9238                 1.0442                 1.0397
 Frc consts  --     20.2595                 3.4918                 3.8166
 IR Inten    --   1064.5314               283.8675               159.6034

 - Thermochemistry -
 -------------------
 Temperature   298.150 Kelvin.  Pressure   1.00000 Atm.
 Atom     1 has atomic number 16 and mass  31.97207

 Molecular mass:    89.95979 amu.
 Principal axes and moments of inertia in atomic units:
                           1         2         3
     Eigenvalues --    73.75813 796.26943 870.02756
           X            0.96251  -0.27124   0.00000
           Y            0.27124   0.96251   0.00000
           Z            0.00000  -0.00000   1.00000
 This molecule is an asymmetric top.
 Rotational symmetry number  1.
 Rotational temperatures (Kelvin)      1.17430     0.10877     0.09955
 Rotational constants (GHZ):          24.46837     2.26650     2.07435
 Zero-point vibrational energy      65245.8 (Joules/Mol)
                                   15.59412 (Kcal/Mol)
 Warning -- explicit consideration of   6 degrees of freedom as
           vibrations may cause significant error
 Vibrational temperatures:     95.21   152.43   382.40   409.60   618.69
          (Kelvin)            673.38  1189.24  1220.91  1490.25  2443.29
                             3427.74  3591.35

 Zero-point correction=                           0.024851 (Hartree/Particle)
 Thermal correction to Energy=                    0.030814
 Thermal correction to Enthalpy=                  0.031758
 Thermal correction to Gibbs Free Energy=        -0.005123
 Sum of electronic and zero-point Energies=           -872.745809
 Sum of electronic and thermal Energies=              -872.739846
 Sum of electronic and thermal Enthalpies=            -872.738902
 Sum of electronic and thermal Free Energies=         -872.775783

                     E (Thermal)             CV                S
                      KCal/Mol        Cal/Mol-Kelvin    Cal/Mol-Kelvin
 Total                   19.336             17.603             77.622
 Electronic               0.000              0.000              0.000
 Translational            0.889              2.981             39.403
 Rotational               0.889              2.981             25.439
 Vibrational             17.558             11.641             12.781
 Vibration     1          0.598              1.970              4.264
 Vibration     2          0.605              1.944              3.342
 Vibration     3          0.672              1.736              1.623
 Vibration     4          0.683              1.702              1.505
 Vibration     5          0.791              1.405              0.859
 Vibration     6          0.825              1.321              0.743

 Optimization completed.
    -- Stationary point found.
 Normal termination of Gaussian 09 at Wed Aug  3 22:55:34 2016.
