 Gaussian 09, Revision E.01,
 Gaussian 09:  EM64L-G09RevE.01 30-Nov-2015

 ------------------------------
 #p b3lyp/6-311++G(3df,2p) freq
 ------------------------------

 ---------
 b3lyp opt
 ---------
 Symbolic Z-matrix:
 Charge =  2 Multiplicity = 1

                         Standard orientation:
 ---------------------------------------------------------------------
 Center     Atomic      Atomic             Coordinates (Angstroms)
 Number     Number       Type             X           Y           Z
 ---------------------------------------------------------------------
      1         16           0       -0.007683   -1.013501    0.000000
      2          6           0       -0.000000    0.582103   -0.000000
      3          6           0       -0.162024    1.834557   -0.000000
      4          1           0        1.371021   -1.210038    0.000000
      5          1           0       -0.275956    2.926092   -0.000000
 ---------------------------------------------------------------------

 SCF Done:  E(RB3LYP) =  -474.613591331     A.U. after   12 cycles

 The electronic state is 1-A'.
 Alpha  occ. eigenvalues --  -89.50630 -10.82063 -10.78273  -8.58243  -6.54590
 Alpha  occ. eigenvalues --   -6.54291  -6.53814  -1.39397  -1.29347  -1.07423
 Alpha  occ. eigenvalues --   -1.02998  -0.94452  -0.89706  -0.82736
 Alpha virt. eigenvalues --   -0.73112  -0.54517  -0.50486  -0.45972  -0.43541
 Alpha virt. eigenvalues --   -0.34605  -0.33167  -0.29911  -0.28496  -0.26788
 Alpha virt. eigenvalues --   -0.26623  -0.24355  -0.23324  -0.23138  -0.18222

 Mulliken charges:
               1
     1  S    0.387148
     2  C    0.053669
     3  C    0.756978
     4  H    0.318986
     5  H    0.483220
 Sum of Mulliken charges =   2.00000

 Dipole moment (field-independent basis, Debye):
    X=              0.9775    Y=              2.5957    Z=             -0.0000  Tot=              2.7736
 Quadrupole moment (field-independent basis, Debye-Ang):
   XX=            -17.1718   YY=              9.6235   ZZ=            -18.3525
   XY=             -4.5827   XZ=              0.0000   YZ=             -0.0000

  Exact polarizability:  23.154  -5.163  57.438   0.000  -0.000  19.343
 Approx polarizability:  35.271 -11.695 144.779   0.000  -0.000  30.182

                      1                      2                      3
                     A"                     A'                     A'
 Frequencies --    265.0751               279.7794               676.6382
 Red. masses --      3.3497                 4.3040                 1.2375
 Frc consts  --      0.1387                 0.1985                 0.3338
 IR Inten    --     24.5616                20.5310                47.8509

                      4                      5                      6
                     A'                     A"                     A'
 Frequencies --    828.2606               921.1640               964.6882
 Red. masses --      8.8376                 1.4164                 1.1562
 Frc consts  --      3.5721                 0.7081                 0.6340
 IR Inten    --      3.6716                 1.7870                25.5660

                      7                      8                      9
                     A'                     A'                     A'
 Frequencies --   1910.8492              2340.6944              3126.7085
 Red. masses --      6.2720                 1.0397                 1.1582
 Frc consts  --     13.4930                 3.3562                 6.6715
 IR Inten    --    450.6844               246.8603               329.3732

 - Thermochemistry -
 -------------------
 Temperature   298.150 Kelvin.  Pressure   1.00000 Atm.
 Atom     1 has atomic number 16 and mass  31.97207

 Molecular mass:    57.98772 amu.
 Principal axes and moments of inertia in atomic units:
                           1         2         3
     Eigenvalues --     6.67576 313.35780 320.03356
           X           -0.06810   0.99768  -0.00000
           Y            0.99768   0.06810   0.00000
           Z           -0.00000   0.00000   1.00000
 This molecule is an asymmetric top.
 Rotational symmetry number  1.
 Rotational temperatures (Kelvin)     12.97437     0.27641     0.27064
 Rotational constants (GHZ):         270.34243     5.75936     5.63922
 Zero-point vibrational energy      67671.9 (Joules/Mol)
                                   16.17397 (Kcal/Mol)
 Warning -- explicit consideration of   2 degrees of freedom as
           vibrations may cause significant error
 Vibrational temperatures:    381.38   402.54   973.53  1191.68  1325.35
          (Kelvin)           1387.97  2749.28  3367.73  4498.63

 Zero-point correction=                           0.025775 (Hartree/Particle)
 Thermal correction to Energy=                    0.029805
 Thermal correction to Enthalpy=                  0.030749
 Thermal correction to Gibbs Free Energy=         0.000746
 Sum of electronic and zero-point Energies=           -474.587816
 Sum of electronic and thermal Energies=              -474.583786
 Sum of electronic and thermal Enthalpies=            -474.582842
 Sum of electronic and thermal Free Energies=         -474.612845

                     E (Thermal)             CV                S
                      KCal/Mol        Cal/Mol-Kelvin    Cal/Mol-Kelvin
 Total                   18.703             11.799             63.147
 Electronic               0.000              0.000              0.000
 Translational            0.889              2.981             38.094
 Rotational               0.889              2.981             21.131
 Vibrational             16.926              5.837              3.922
 Vibration     1          0.671              1.737              1.628
 Vibration     2          0.680              1.711              1.535

 Optimization completed.
    -- Stationary point found.
 Normal termination of Gaussian 09 at Wed Aug  3 23:02:41 2016.
