 Gaussian 09, Revision E.01,
 Gaussian 09:  EM64L-G09RevE.01 30-Nov-2015

 ------------------------------
 #p b3lyp/6-311++G(3df,2p) freq
 ------------------------------

 ---------
 b3lyp opt
 ---------
 Symbolic Z-matrix:
 Charge =  1 Multiplicity = 2

                         Standard orientation:
 ---------------------------------------------------------------------
 Center     Atomic      Atomic             Coordinates (Angstroms)
 Number     Number       Type             X           Y           Z
 ---------------------------------------------------------------------
      1         16           0       -0.054697    0.732343   -0.106583
      2         16           0       -1.623507   -0.519361    0.021658
      3          6           0        1.417018   -0.052606    0.030243
      4          6           0        2.496335   -0.578433    0.015972
      5          1           0        3.457778   -1.045662    0.018799
      6          1           0       -0.086628    1.424178    1.062713
 ---------------------------------------------------------------------

 SCF Done:  E(UB3LYP) =  -873.453692316     A.U. after   21 cycles

 The electronic state is 2-A.
 Alpha  occ. eigenvalues --  -89.21083 -89.12803 -10.42169 -10.41570  -8.28868
 Alpha  occ. eigenvalues --   -8.20966  -6.25049  -6.24962  -6.24647  -6.17776
 Alpha  occ. eigenvalues --   -6.17250  -6.16136  -1.11990  -0.98803  -0.92764
 Alpha  occ. eigenvalues --   -0.78565  -0.73099  -0.69684  -0.64149  -0.53885
 Alpha  occ. eigenvalues --   -0.52760  -0.50652  -0.50050
 Alpha virt. eigenvalues --   -0.29293  -0.25092  -0.21220  -0.19138  -0.16844
 Alpha virt. eigenvalues --   -0.12930  -0.11569  -0.10987  -0.09595  -0.09234
 Alpha virt. eigenvalues --   -0.08640  -0.06455  -0.06314  -0.05593  -0.05249

  Beta  occ. eigenvalues --  -89.21027 -89.12236 -10.42135 -10.41549  -8.28807
  Beta  occ. eigenvalues --   -8.20449  -6.25021  -6.24943  -6.24476  -6.16945
  Beta  occ. eigenvalues --   -6.15988  -6.15814  -1.11388  -0.98120  -0.90332
  Beta  occ. eigenvalues --   -0.78218  -0.72965  -0.68360  -0.62719  -0.52739
  Beta  occ. eigenvalues --   -0.51103  -0.49375
  Beta virt. eigenvalues --   -0.39656  -0.28517  -0.24695  -0.21012  -0.18896
  Beta virt. eigenvalues --   -0.16424  -0.12519  -0.11336  -0.10801  -0.09349
  Beta virt. eigenvalues --   -0.09194  -0.08215  -0.06240  -0.05923  -0.05312

 Mulliken charges and spin densities:
               1          2
     1  S   -0.558655   0.079332
     2  S    0.239937   0.888394
     3  C   -0.318123   0.008064
     4  C    1.003087  -0.004714
     5  H    0.383290  -0.000687
     6  H    0.250464   0.029611
 Sum of Mulliken charges =   1.00000   1.00000

 Dipole moment (field-independent basis, Debye):
    X=              1.4930    Y=              0.6962    Z=              0.9020  Tot=              1.8782
 Quadrupole moment (field-independent basis, Debye-Ang):
   XX=            -15.5719   YY=            -29.5278   ZZ=            -33.2523
   XY=             -2.4420   XZ=              0.0625   YZ=              1.3011

  Exact polarizability:  92.859  -1.002  48.588  -0.671   1.840  37.356
 Approx polarizability: 165.613  -0.055  86.046  -2.444   2.151  59.593

                      1                      2                      3
                      A                      A                      A
 Frequencies --    131.0926               248.3375               347.5276
 Red. masses --      6.1870                 3.7702                 7.7791
 Frc consts  --      0.0626                 0.1370                 0.5536
 IR Inten    --      4.1996                14.0688                14.2801

                      4                      5                      6
                      A                      A                      A
 Frequencies --    418.3920               677.5179               730.5992
 Red. masses --      8.6288                 1.3344                 7.4339
 Frc consts  --      0.8900                 0.3609                 2.3379
 IR Inten    --      2.4894                18.8603                41.7567

                      7                      8                      9
                      A                      A                      A
 Frequencies --    751.1126               799.0082               961.0360
 Red. masses --      1.2678                 1.2812                 1.0931
 Frc consts  --      0.4214                 0.4819                 0.5948
 IR Inten    --     30.5275                22.7394                22.0107

                     10                     11                     12
                      A                      A                      A
 Frequencies --   2163.6149              2537.5616              3405.3791
 Red. masses --      5.6671                 1.0397                 1.1690
 Frc consts  --     15.6304                 3.9443                 7.9872
 IR Inten    --    215.3548                53.2042               116.2976

 - Thermochemistry -
 -------------------
 Temperature   298.150 Kelvin.  Pressure   1.00000 Atm.
 Atom     1 has atomic number 16 and mass  31.97207

 Molecular mass:    89.95979 amu.
 Principal axes and moments of inertia in atomic units:
                           1         2         3
     Eigenvalues --   122.84143 702.46408 814.96360
           X            0.99974  -0.02262  -0.00083
           Y            0.02263   0.99863   0.04714
           Z           -0.00023  -0.04714   0.99889
 This molecule is an asymmetric top.
 Rotational symmetry number  1.
 Rotational temperatures (Kelvin)      0.70509     0.12330     0.10628
 Rotational constants (GHZ):          14.69163     2.56916     2.21451
 Zero-point vibrational energy      78781.1 (Joules/Mol)
                                   18.82915 (Kcal/Mol)
 Warning -- explicit consideration of   4 degrees of freedom as
           vibrations may cause significant error
 Vibrational temperatures:    188.61   357.30   500.01   601.97   974.80
          (Kelvin)           1051.17  1080.68  1149.59  1382.71  3112.96
                             3650.98  4899.57

 Zero-point correction=                           0.030006 (Hartree/Particle)
 Thermal correction to Energy=                    0.035099
 Thermal correction to Enthalpy=                  0.036043
 Thermal correction to Gibbs Free Energy=         0.000666
 Sum of electronic and zero-point Energies=           -873.423686
 Sum of electronic and thermal Energies=              -873.418594
 Sum of electronic and thermal Enthalpies=            -873.417649
 Sum of electronic and thermal Free Energies=         -873.453027

                     E (Thermal)             CV                S
                      KCal/Mol        Cal/Mol-Kelvin    Cal/Mol-Kelvin
 Total                   22.025             16.121             74.458
 Electronic               0.000              0.000              1.377
 Translational            0.889              2.981             39.403
 Rotational               0.889              2.981             25.756
 Vibrational             20.247             10.160              7.922
 Vibration     1          0.612              1.922              2.930
 Vibration     2          0.662              1.766              1.742
 Vibration     3          0.725              1.580              1.177
 Vibration     4          0.781              1.430              0.897

 Normal termination of Gaussian 09 at Wed Aug  3 21:07:49 2016.
