 Gaussian 09, Revision E.01,
 Gaussian 09:  EM64L-G09RevE.01 30-Nov-2015

 ------------------------------
 #p b3lyp/6-311++G(3df,2p) freq
 ------------------------------

 ---------
 b3lyp opt
 ---------
 Symbolic Z-matrix:
 Charge =  1 Multiplicity = 4

                         Standard orientation:
 ---------------------------------------------------------------------
 Center     Atomic      Atomic             Coordinates (Angstroms)
 Number     Number       Type             X           Y           Z
 ---------------------------------------------------------------------
      1         16           0       -0.563903   -0.864055   -0.000000
      2          6           0       -0.000000    0.708554    0.000000
      3          6           0        1.311051    1.029787    0.000000
      4          1           0       -0.780814    1.483515    0.000000
      5          1           0        1.936960    1.911321    0.000000
 ---------------------------------------------------------------------

 SCF Done:  E(UB3LYP) =  -475.191004019     A.U. after   13 cycles

 The electronic state is 4-A".
 Alpha  occ. eigenvalues --  -89.19609 -10.49429 -10.49326  -8.27644  -6.24423
 Alpha  occ. eigenvalues --   -6.23767  -6.23396  -1.11832  -0.99416  -0.82321
 Alpha  occ. eigenvalues --   -0.75525  -0.68925  -0.63626  -0.57999  -0.52864
 Alpha  occ. eigenvalues --   -0.51474
 Alpha virt. eigenvalues --   -0.28195  -0.20120  -0.15870  -0.13364  -0.12305
 Alpha virt. eigenvalues --   -0.10416  -0.09500  -0.08259  -0.06956  -0.06230
 Alpha virt. eigenvalues --   -0.06079  -0.05173  -0.04018  -0.03601  -0.00985

  Beta  occ. eigenvalues --  -89.18562 -10.49509 -10.46968  -8.26691  -6.22746
  Beta  occ. eigenvalues --   -6.22209  -6.22200  -1.08324  -0.93128  -0.78374
  Beta  occ. eigenvalues --   -0.72974  -0.66094  -0.59138
  Beta virt. eigenvalues --   -0.42832  -0.40882  -0.33586  -0.23769  -0.18277
  Beta virt. eigenvalues --   -0.14874  -0.12632  -0.11772  -0.10073  -0.08229
  Beta virt. eigenvalues --   -0.07430  -0.05666  -0.05400  -0.04827  -0.03932

 Mulliken charges and spin densities:
               1          2
     1  S    0.403174   1.564262
     2  C    0.130096  -0.160583
     3  C   -0.036933   1.500009
     4  H    0.232148   0.087918
     5  H    0.271514   0.008394
 Sum of Mulliken charges =   1.00000   3.00000

 Dipole moment (field-independent basis, Debye):
    X=              0.2654    Y=              1.5271    Z=              0.0000  Tot=              1.5500
 Quadrupole moment (field-independent basis, Debye-Ang):
   XX=            -15.6717   YY=            -12.9815   ZZ=            -22.6592
   XY=              4.7788   XZ=             -0.0000   YZ=             -0.0000

  Exact polarizability:  41.615  13.695  45.773  -0.000  -0.000  24.494
 Approx polarizability:  66.221  24.033  74.790   0.000   0.000  36.082

                      1                      2                      3
                     A'                     A"                     A'
 Frequencies --    387.0587               602.4319               706.7132
 Red. masses --      4.1764                 1.2276                 1.5850
 Frc consts  --      0.3686                 0.2625                 0.4664
 IR Inten    --      0.7343                46.0863                26.5575

                      4                      5                      6
                     A"                     A'                     A'
 Frequencies --    856.6333               878.2452              1185.2113
 Red. masses --      1.4240                 2.7176                 1.2636
 Frc consts  --      0.6157                 1.2350                 1.0458
 IR Inten    --      3.1152                 5.0822                 3.6383

                      7                      8                      9
                     A'                     A'                     A'
 Frequencies --   1382.4738              2972.8016              3228.9106
 Red. masses --      6.7901                 1.0815                 1.0996
 Frc consts  --      7.6461                 5.6315                 6.7548
 IR Inten    --     50.2179                48.4614                73.4748

 - Thermochemistry -
 -------------------
 Temperature   298.150 Kelvin.  Pressure   1.00000 Atm.
 Atom     1 has atomic number 16 and mass  31.97207

 Molecular mass:    57.98772 amu.
 Principal axes and moments of inertia in atomic units:
                           1         2         3
     Eigenvalues --    24.43685 273.72412 298.16097
           X            0.63697   0.77088  -0.00000
           Y            0.77088  -0.63697  -0.00000
           Z            0.00000  -0.00000   1.00000
 This molecule is an asymmetric top.
 Rotational symmetry number  1.
 Rotational temperatures (Kelvin)      3.54439     0.31643     0.29049
 Rotational constants (GHZ):          73.85326     6.59329     6.05291
 Zero-point vibrational energy      72975.1 (Joules/Mol)
                                   17.44146 (Kcal/Mol)
 Warning -- explicit consideration of   2 degrees of freedom as
           vibrations may cause significant error
 Vibrational temperatures:    556.89   866.76  1016.80  1232.50  1263.60
          (Kelvin)           1705.25  1989.07  4277.19  4645.68

 Zero-point correction=                           0.027795 (Hartree/Particle)
 Thermal correction to Energy=                    0.031366
 Thermal correction to Enthalpy=                  0.032310
 Thermal correction to Gibbs Free Energy=         0.001331
 Sum of electronic and zero-point Energies=           -475.163209
 Sum of electronic and thermal Energies=              -475.159638
 Sum of electronic and thermal Enthalpies=            -475.158694
 Sum of electronic and thermal Free Energies=         -475.189673

                     E (Thermal)             CV                S
                      KCal/Mol        Cal/Mol-Kelvin    Cal/Mol-Kelvin
 Total                   19.682             10.722             65.201
 Electronic               0.000              0.000              2.755
 Translational            0.889              2.981             38.094
 Rotational               0.889              2.981             22.216
 Vibrational             17.905              4.761              2.137
 Vibration     1          0.755              1.498              1.011
 Vibration     2          0.961              1.027              0.445

 Optimization completed.
    -- Stationary point found.
 Normal termination of Gaussian 09 at Wed Aug  3 23:03:01 2016.
