 Gaussian 09, Revision E.01,
 Gaussian 09:  EM64L-G09RevE.01 30-Nov-2015

 ------------------------------
 #p b3lyp/6-311++G(3df,2p) freq
 ------------------------------

 ---------
 b3lyp opt
 ---------
 Symbolic Z-matrix:
 Charge =  2 Multiplicity = 1

                         Standard orientation:
 ---------------------------------------------------------------------
 Center     Atomic      Atomic             Coordinates (Angstroms)
 Number     Number       Type             X           Y           Z
 ---------------------------------------------------------------------
      1         16           0        0.000000   -0.000000    1.106848
      2          6           0       -0.000000    0.000000   -0.386043
      3          6           0       -0.000000    0.000000   -1.785497
      4          1           0       -0.000000    0.956008   -2.340168
      5          1           0       -0.000000   -0.956008   -2.340168
 ---------------------------------------------------------------------

 SCF Done:  E(RB3LYP) =  -474.671086155     A.U. after   11 cycles

 The electronic state is 1-A1.
 Alpha  occ. eigenvalues --  -89.48487 -10.82832 -10.80951  -8.56230  -6.52599
 Alpha  occ. eigenvalues --   -6.52061  -6.51963  -1.39398  -1.29207  -1.06140
 Alpha  occ. eigenvalues --   -0.99200  -0.97987  -0.89996  -0.86291
 Alpha virt. eigenvalues --   -0.71631  -0.59685  -0.53521  -0.40499  -0.37500
 Alpha virt. eigenvalues --   -0.31590  -0.30060  -0.27367  -0.26807  -0.26733
 Alpha virt. eigenvalues --   -0.25897  -0.25830  -0.23794  -0.22473  -0.22265

 Mulliken charges:
               1
     1  S    0.622861
     2  C    0.554828
     3  C    0.179709
     4  H    0.321301
     5  H    0.321301
 Sum of Mulliken charges =   2.00000

 Dipole moment (field-independent basis, Debye):
    X=             -0.0000    Y=             -0.0000    Z=             -4.1014  Tot=              4.1014
 Quadrupole moment (field-independent basis, Debye-Ang):
   XX=            -18.2547   YY=            -16.9461   ZZ=              8.7586
   XY=              0.0000   XZ=              0.0000   YZ=              0.0000

  Exact polarizability:  19.143  -0.000  21.331  -0.000  -0.000  54.033
 Approx polarizability:  29.877  -0.000  31.191   0.000  -0.000 129.756

                      1                      2                      3
                     B1                     B2                     A1
 Frequencies --    279.0372               331.7173               831.5655
 Red. masses --      5.2777                 3.0514                 5.8428
 Frc consts  --      0.2421                 0.1978                 2.3805
 IR Inten    --     11.7863                11.5748                62.7110

                      4                      5                      6
                     B2                     B1                     A1
 Frequencies --    969.8631              1144.9939              1380.2163
 Red. masses --      1.4722                 1.3673                 1.1237
 Frc consts  --      0.8159                 1.0562                 1.2612
 IR Inten    --      0.2171                 8.5282                28.1810

                      7                      8                      9
                     A1                     A1                     B2
 Frequencies --   1598.1953              2938.0819              3044.3897
 Red. masses --     12.1506                 1.0495                 1.1238
 Frc consts  --     18.2855                 5.3378                 6.1368
 IR Inten    --    132.5956               272.5631               199.5203

 - Thermochemistry -
 -------------------
 Temperature   298.150 Kelvin.  Pressure   1.00000 Atm.
 Atom     1 has atomic number 16 and mass  31.97207

 Molecular mass:    57.98772 amu.
 Principal axes and moments of inertia in atomic units:
                           1         2         3
     Eigenvalues --     6.57863 320.98622 327.56486
           X            0.00000   0.00000   1.00000
           Y           -0.00000   1.00000  -0.00000
           Z            1.00000   0.00000  -0.00000
 This molecule is an asymmetric top.
 Rotational symmetry number  2.
 Rotational temperatures (Kelvin)     13.16592     0.26984     0.26442
 Rotational constants (GHZ):         274.33369     5.62249     5.50957
 Zero-point vibrational energy      74874.6 (Joules/Mol)
                                   17.89547 (Kcal/Mol)
 Warning -- explicit consideration of   2 degrees of freedom as
           vibrations may cause significant error
 Vibrational temperatures:    401.47   477.27  1196.44  1395.41  1647.39
          (Kelvin)           1985.82  2299.44  4227.24  4380.19

 Zero-point correction=                           0.028518 (Hartree/Particle)
 Thermal correction to Energy=                    0.032323
 Thermal correction to Enthalpy=                  0.033267
 Thermal correction to Gibbs Free Energy=         0.004266
 Sum of electronic and zero-point Energies=           -474.642568
 Sum of electronic and thermal Energies=              -474.638763
 Sum of electronic and thermal Enthalpies=            -474.637819
 Sum of electronic and thermal Free Energies=         -474.666821

                     E (Thermal)             CV                S
                      KCal/Mol        Cal/Mol-Kelvin    Cal/Mol-Kelvin
 Total                   20.283             10.708             61.039
 Electronic               0.000              0.000              0.000
 Translational            0.889              2.981             38.094
 Rotational               0.889              2.981             19.786
 Vibrational             18.506              4.746              3.159
 Vibration     1          0.679              1.712              1.540
 Vibration     2          0.714              1.612              1.252

 Optimization completed.
    -- Stationary point found.
 Normal termination of Gaussian 09 at Wed Aug  3 23:02:29 2016.
