 Gaussian 09, Revision E.01,
 Gaussian 09:  EM64L-G09RevE.01 30-Nov-2015

 ------------------------------
 #p b3lyp/6-311++G(3df,2p) freq
 ------------------------------

 ---------
 b3lyp opt
 ---------
 Symbolic Z-matrix:
 Charge =  1 Multiplicity = 2

                         Standard orientation:
 ---------------------------------------------------------------------
 Center     Atomic      Atomic             Coordinates (Angstroms)
 Number     Number       Type             X           Y           Z
 ---------------------------------------------------------------------
      1         16           0       -0.000000    0.512952    0.000000
      2          6           0        1.528769   -0.189522   -0.000000
      3          6           0       -1.057344   -0.789274    0.000000
      4          1           0       -2.105740   -0.516424    0.000000
      5          1           0       -0.722808   -1.818040   -0.000000
 ---------------------------------------------------------------------

 SCF Done:  E(UB3LYP) =  -475.133510986     A.U. after   23 cycles

 The electronic state is 2-A".
 Alpha  occ. eigenvalues --  -89.19633 -10.57679 -10.51175  -8.28075  -6.24198
 Alpha  occ. eigenvalues --   -6.23894  -6.23853  -1.14234  -0.97286  -0.81895
 Alpha  occ. eigenvalues --   -0.72790  -0.67565  -0.64663  -0.57994  -0.51279
 Alpha virt. eigenvalues --   -0.41743  -0.35724  -0.22002  -0.17222  -0.16068
 Alpha virt. eigenvalues --   -0.13239  -0.12273  -0.11204  -0.08594  -0.07617
 Alpha virt. eigenvalues --   -0.06365  -0.05660  -0.05283  -0.04609  -0.01417

  Beta  occ. eigenvalues --  -89.19803 -10.56766 -10.50160  -8.28215  -6.24308
  Beta  occ. eigenvalues --   -6.24303  -6.24015  -1.13363  -0.94492  -0.80923
  Beta  occ. eigenvalues --   -0.71885  -0.67426  -0.62647  -0.56840
  Beta virt. eigenvalues --   -0.40512  -0.38635  -0.31192  -0.21740  -0.17170
  Beta virt. eigenvalues --   -0.15952  -0.13121  -0.11970  -0.10953  -0.08409
  Beta virt. eigenvalues --   -0.07397  -0.05488  -0.05120  -0.04824  -0.04240

 Mulliken charges and spin densities:
               1          2
     1  S    0.319890  -0.173083
     2  C    0.296212   0.553938
     3  C   -0.060502   0.649974
     4  H    0.202906  -0.013102
     5  H    0.241494  -0.017728
 Sum of Mulliken charges =   1.00000   1.00000

 Dipole moment (field-independent basis, Debye):
    X=             -1.6712    Y=             -0.7421    Z=              0.0000  Tot=              1.8286
 Quadrupole moment (field-independent basis, Debye-Ang):
   XX=            -16.5488   YY=            -17.4362   ZZ=            -23.0067
   XY=              2.8917   XZ=              0.0000   YZ=              0.0000

  Exact polarizability:  54.299   4.756  33.854  -0.000  -0.000  25.351
 Approx polarizability: 108.863   7.381  58.153  -0.000   0.000  38.450

                      1                      2                      3
                     A"                     A'                     A'
 Frequencies --    189.1907               202.1519               672.0913
 Red. masses --      1.0916                 5.8567                11.6512
 Frc consts  --      0.0230                 0.1410                 3.1008
 IR Inten    --      1.9118                 9.6820                20.8557

                      4                      5                      6
                     A"                     A'                     A'
 Frequencies --    672.8459               865.4503               943.4251
 Red. masses --      1.2779                 5.3408                 1.2727
 Frc consts  --      0.3409                 2.3569                 0.6674
 IR Inten    --     40.1339                17.5517                 2.6027

                      7                      8                      9
                     A'                     A'                     A'
 Frequencies --   1401.1680              3121.1535              3264.9376
 Red. masses --      1.0920                 1.0439                 1.1274
 Frc consts  --      1.2632                 5.9915                 7.0808
 IR Inten    --      8.0281                68.2458                60.0829

 - Thermochemistry -
 -------------------
 Temperature   298.150 Kelvin.  Pressure   1.00000 Atm.
 Atom     1 has atomic number 16 and mass  31.97207

 Molecular mass:    57.98772 amu.
 Principal axes and moments of inertia in atomic units:
                           1         2         3
     Eigenvalues --    61.22627 174.99383 236.22010
           X            0.95698  -0.29017   0.00000
           Y            0.29017   0.95698   0.00000
           Z            0.00000  -0.00000   1.00000
 This molecule is an asymmetric top.
 Rotational symmetry number  1.
 Rotational temperatures (Kelvin)      1.41465     0.49495     0.36667
 Rotational constants (GHZ):          29.47658    10.31317     7.64008
 Zero-point vibrational energy      67782.9 (Joules/Mol)
                                   16.20050 (Kcal/Mol)
 Warning -- explicit consideration of   2 degrees of freedom as
           vibrations may cause significant error
 Vibrational temperatures:    272.20   290.85   966.99   968.07  1245.19
          (Kelvin)           1357.38  2015.97  4490.64  4697.51

 Zero-point correction=                           0.025817 (Hartree/Particle)
 Thermal correction to Energy=                    0.030148
 Thermal correction to Enthalpy=                  0.031092
 Thermal correction to Gibbs Free Energy=        -0.000860
 Sum of electronic and zero-point Energies=           -475.107694
 Sum of electronic and thermal Energies=              -475.103363
 Sum of electronic and thermal Enthalpies=            -475.102419
 Sum of electronic and thermal Free Energies=         -475.134371

                     E (Thermal)             CV                S
                      KCal/Mol        Cal/Mol-Kelvin    Cal/Mol-Kelvin
 Total                   18.918             12.517             67.249
 Electronic               0.000              0.000              1.377
 Translational            0.889              2.981             38.094
 Rotational               0.889              2.981             22.453
 Vibrational             17.141              6.555              5.326
 Vibration     1          0.633              1.855              2.236
 Vibration     2          0.639              1.837              2.113

 Normal termination of Gaussian 09 at Wed Aug  3 23:01:12 2016.
