 Gaussian 09, Revision E.01,
 Gaussian 09:  EM64L-G09RevE.01 30-Nov-2015

 ------------------------------
 #p b3lyp/6-311++G(3df,2p) freq
 ------------------------------

 ---------
 b3lyp opt
 ---------
 Symbolic Z-matrix:
 Charge =  0 Multiplicity = 3

                         Standard orientation:
 ---------------------------------------------------------------------
 Center     Atomic      Atomic             Coordinates (Angstroms)
 Number     Number       Type             X           Y           Z
 ---------------------------------------------------------------------
      1         16           0       -0.563789   -0.875004   -0.000000
      2          6           0        1.303596    1.024097    0.000000
      3          6           0       -0.000000    0.734877    0.000000
      4          1           0        1.932203    1.901626    0.000000
      5          1           0       -0.733156    1.544587    0.000000
 ---------------------------------------------------------------------

 SCF Done:  E(UB3LYP) =  -475.525439126     A.U. after   16 cycles

 The electronic state is 3-A".
 Alpha  occ. eigenvalues --  -88.85921 -10.24300 -10.23510  -7.94380  -5.91141
 Alpha  occ. eigenvalues --   -5.90528  -5.89660  -0.83745  -0.71570  -0.57441
 Alpha  occ. eigenvalues --   -0.50797  -0.41183  -0.37070  -0.27779  -0.26977
 Alpha  occ. eigenvalues --   -0.25111
 Alpha virt. eigenvalues --   -0.04037  -0.00750   0.01311   0.02921   0.04211
 Alpha virt. eigenvalues --    0.05054   0.07096   0.08241   0.08355   0.09899
 Alpha virt. eigenvalues --    0.10947   0.11097   0.11630   0.13360   0.14021

  Beta  occ. eigenvalues --  -88.85438 -10.23787 -10.22154  -7.93937  -5.90175
  Beta  occ. eigenvalues --   -5.89742  -5.89361  -0.81750  -0.67588  -0.54874
  Beta  occ. eigenvalues --   -0.49387  -0.39291  -0.33788  -0.24014
  Beta virt. eigenvalues --   -0.15486  -0.11193  -0.01427  -0.00561   0.01508
  Beta virt. eigenvalues --    0.03269   0.04896   0.05613   0.07245   0.08829
  Beta virt. eigenvalues --    0.08887   0.10218   0.11402   0.11427   0.12129

 Mulliken charges and spin densities:
               1          2
     1  S   -0.201567   0.770709
     2  C   -0.179476   1.436224
     3  C    0.021492  -0.277944
     4  H    0.196876   0.013550
     5  H    0.162675   0.057461
 Sum of Mulliken charges =  -0.00000   2.00000

 Dipole moment (field-independent basis, Debye):
    X=              0.7412    Y=              2.3084    Z=              0.0000  Tot=              2.4245
 Quadrupole moment (field-independent basis, Debye-Ang):
   XX=            -25.3102   YY=            -22.6607   ZZ=            -25.8103
   XY=              1.8603   XZ=             -0.0000   YZ=             -0.0000

  Exact polarizability:  54.466  14.414  56.221  -0.000  -0.000  32.148
 Approx polarizability:  84.024  25.696  87.302   0.000   0.000  48.095

                      1                      2                      3
                     A'                     A"                     A'
 Frequencies --    304.6322               570.7008               706.0152
 Red. masses --      4.0167                 1.1981                 2.2891
 Frc consts  --      0.2196                 0.2299                 0.6723
 IR Inten    --      0.5201                36.4087                 7.1313

                      4                      5                      6
                     A"                     A'                     A'
 Frequencies --    861.1212               894.1431              1234.6876
 Red. masses --      1.4434                 2.0134                 1.1826
 Frc consts  --      0.6306                 0.9484                 1.0622
 IR Inten    --      0.7606                18.7308                12.8151

                      7                      8                      9
                     A'                     A'                     A'
 Frequencies --   1402.1305              3034.0470              3221.7024
 Red. masses --      6.6649                 1.0832                 1.0988
 Frc consts  --      7.7201                 5.8750                 6.7198
 IR Inten    --      9.6039                12.6557                 0.3012

 - Thermochemistry -
 -------------------
 Temperature   298.150 Kelvin.  Pressure   1.00000 Atm.
 Atom     1 has atomic number 16 and mass  31.97207

 Molecular mass:    57.98772 amu.
 Principal axes and moments of inertia in atomic units:
                           1         2         3
     Eigenvalues --    25.23067 275.56131 300.79198
           X            0.62941   0.77708  -0.00000
           Y            0.77708  -0.62941  -0.00000
           Z            0.00000  -0.00000   1.00000
 This molecule is an asymmetric top.
 Rotational symmetry number  1.
 Rotational temperatures (Kelvin)      3.43288     0.31432     0.28795
 Rotational constants (GHZ):          71.52967     6.54933     5.99996
 Zero-point vibrational energy      73146.7 (Joules/Mol)
                                   17.48249 (Kcal/Mol)
 Warning -- explicit consideration of   2 degrees of freedom as
           vibrations may cause significant error
 Vibrational temperatures:    438.30   821.11  1015.80  1238.96  1286.47
          (Kelvin)           1776.44  2017.35  4365.31  4635.31

 Zero-point correction=                           0.027860 (Hartree/Particle)
 Thermal correction to Energy=                    0.031534
 Thermal correction to Enthalpy=                  0.032478
 Thermal correction to Gibbs Free Energy=         0.001550
 Sum of electronic and zero-point Energies=           -475.497579
 Sum of electronic and thermal Energies=              -475.493905
 Sum of electronic and thermal Enthalpies=            -475.492961
 Sum of electronic and thermal Free Energies=         -475.523889

                     E (Thermal)             CV                S
                      KCal/Mol        Cal/Mol-Kelvin    Cal/Mol-Kelvin
 Total                   19.788             10.891             65.093
 Electronic               0.000              0.000              2.183
 Translational            0.889              2.981             38.094
 Rotational               0.889              2.981             22.263
 Vibrational             18.010              4.929              2.553
 Vibration     1          0.696              1.665              1.391
 Vibration     2          0.927              1.095              0.503

 Optimization completed.
    -- Stationary point found.
 Normal termination of Gaussian 09 at Wed Aug  3 22:58:43 2016.
