 Gaussian 09, Revision E.01,
 Gaussian 09:  EM64L-G09RevE.01 30-Nov-2015

 ------------------------------
 #p b3lyp/6-311++G(3df,2p) freq
 ------------------------------

 ---------
 b3lyp opt
 ---------
 Symbolic Z-matrix:
 Charge =  1 Multiplicity = 4

                         Standard orientation:
 ---------------------------------------------------------------------
 Center     Atomic      Atomic             Coordinates (Angstroms)
 Number     Number       Type             X           Y           Z
 ---------------------------------------------------------------------
      1         16           0        0.174002   -0.449731    0.000140
      2          6           0        1.394233    0.642964   -0.000223
      3          6           0       -1.273514    0.361965   -0.000352
      4          1           0       -1.355342    1.441582    0.001729
      5          1           0       -2.153008   -0.275459   -0.000523
 ---------------------------------------------------------------------

 SCF Done:  E(UB3LYP) =  -475.099026829     A.U. after   15 cycles

 The electronic state is 4-A.
 Alpha  occ. eigenvalues --  -89.20598 -10.55153 -10.49705  -8.28593  -6.24981
 Alpha  occ. eigenvalues --   -6.24392  -6.24332  -1.14557  -0.97963  -0.82333
 Alpha  occ. eigenvalues --   -0.72700  -0.69166  -0.64602  -0.62266  -0.52271
 Alpha  occ. eigenvalues --   -0.51400
 Alpha virt. eigenvalues --   -0.34891  -0.20346  -0.16968  -0.15647  -0.12981
 Alpha virt. eigenvalues --   -0.11907  -0.10922  -0.08497  -0.07908  -0.05999
 Alpha virt. eigenvalues --   -0.05658  -0.05328  -0.04589  -0.01493  -0.01051

  Beta  occ. eigenvalues --  -89.20609 -10.51078 -10.48616  -8.28571  -6.24705
  Beta  occ. eigenvalues --   -6.24681  -6.24275  -1.11742  -0.92813  -0.78069
  Beta  occ. eigenvalues --   -0.70707  -0.64289  -0.61955
  Beta virt. eigenvalues --   -0.44045  -0.37232  -0.34096  -0.28302  -0.18003
  Beta virt. eigenvalues --   -0.15856  -0.14579  -0.12446  -0.11249  -0.10599
  Beta virt. eigenvalues --   -0.07777  -0.06882  -0.05138  -0.04291  -0.03946

 Mulliken charges and spin densities:
               1          2
     1  S    0.322574   0.081379
     2  C    0.282784   2.283214
     3  C   -0.044023   0.637807
     4  H    0.233977  -0.004395
     5  H    0.204688   0.001995
 Sum of Mulliken charges =   1.00000   3.00000

 Dipole moment (field-independent basis, Debye):
    X=             -1.1234    Y=              0.8022    Z=              0.0009  Tot=              1.3804
 Quadrupole moment (field-independent basis, Debye-Ang):
   XX=            -12.4614   YY=            -18.7986   ZZ=            -22.6282
   XY=              0.2746   XZ=             -0.0014   YZ=              0.0018

  Exact polarizability:  53.366   2.342  32.546   0.003  -0.001  24.333
 Approx polarizability: 102.238   8.888  54.467   0.013  -0.004  36.691

                      1                      2                      3
                      A                      A                      A
 Frequencies --    372.5335               529.7546               809.4922
 Red. masses --      4.0020                 1.1123                 8.6320
 Frc consts  --      0.3272                 0.1839                 3.3326
 IR Inten    --      0.6553                 0.4642                 9.9624

                      4                      5                      6
                      A                      A                      A
 Frequencies --    851.9058               884.1270               953.0342
 Red. masses --      1.2717                 2.0640                 2.4933
 Frc consts  --      0.5438                 0.9506                 1.3343
 IR Inten    --     46.3981                 3.8258                 2.4477

                      7                      8                      9
                      A                      A                      A
 Frequencies --   1391.6508              3107.8923              3246.2849
 Red. masses --      1.1224                 1.0473                 1.1246
 Frc consts  --      1.2807                 5.9602                 6.9825
 IR Inten    --     12.8873                77.4819                49.3385

 - Thermochemistry -
 -------------------
 Temperature   298.150 Kelvin.  Pressure   1.00000 Atm.
 Atom     1 has atomic number 16 and mass  31.97207

 Molecular mass:    57.98772 amu.
 Principal axes and moments of inertia in atomic units:
                           1         2         3
     Eigenvalues --    53.88827 179.01423 232.90246
           X            0.99918  -0.04059  -0.00003
           Y            0.04059   0.99918   0.00018
           Z            0.00002  -0.00018   1.00000
 This molecule is an asymmetric top.
 Rotational symmetry number  1.
 Rotational temperatures (Kelvin)      1.60729     0.48384     0.37189
 Rotational constants (GHZ):          33.49043    10.08155     7.74891
 Zero-point vibrational energy      72653.3 (Joules/Mol)
                                   17.36454 (Kcal/Mol)
 Warning -- explicit consideration of   2 degrees of freedom as
           vibrations may cause significant error
 Vibrational temperatures:    535.99   762.20  1164.68  1225.70  1272.06
          (Kelvin)           1371.20  2002.27  4471.56  4670.67

 Zero-point correction=                           0.027672 (Hartree/Particle)
 Thermal correction to Energy=                    0.031294
 Thermal correction to Enthalpy=                  0.032239
 Thermal correction to Gibbs Free Energy=         0.001123
 Sum of electronic and zero-point Energies=           -475.071355
 Sum of electronic and thermal Energies=              -475.067732
 Sum of electronic and thermal Enthalpies=            -475.066788
 Sum of electronic and thermal Free Energies=         -475.097904

                     E (Thermal)             CV                S
                      KCal/Mol        Cal/Mol-Kelvin    Cal/Mol-Kelvin
 Total                   19.637             10.941             65.489
 Electronic               0.000              0.000              2.755
 Translational            0.889              2.981             38.094
 Rotational               0.889              2.981             22.334
 Vibrational             17.860              4.980              2.306
 Vibration     1          0.744              1.529              1.069
 Vibration     2          0.885              1.184              0.588

 Optimization completed.
    -- Stationary point found.
 Normal termination of Gaussian 09 at Wed Aug  3 20:32:52 2016.
