 Gaussian 09, Revision E.01,
 Gaussian 09:  EM64L-G09RevE.01 30-Nov-2015

 ------------------------------
 #p b3lyp/6-311++G(3df,2p) freq
 ------------------------------

 ---------
 b3lyp opt
 ---------
 Symbolic Z-matrix:
 Charge =  0 Multiplicity = 1

                         Standard orientation:
 ---------------------------------------------------------------------
 Center     Atomic      Atomic             Coordinates (Angstroms)
 Number     Number       Type             X           Y           Z
 ---------------------------------------------------------------------
      1         16           0        0.783683   -0.009037   -0.090395
      2          6           0       -0.931218    0.527132    0.016203
      3          6           0       -1.126364   -0.754653    0.018117
      4          1           0       -1.326730    1.525379    0.024108
      5          1           0        1.133288   -0.015667    1.216294
 ---------------------------------------------------------------------

 SCF Done:  E(RB3LYP) =  -475.525407606     A.U. after   12 cycles

 The electronic state is 1-A.
 Alpha  occ. eigenvalues --  -88.91385 -10.21483 -10.21378  -7.99681  -5.96044
 Alpha  occ. eigenvalues --   -5.95604  -5.95260  -0.87951  -0.69483  -0.57014
 Alpha  occ. eigenvalues --   -0.47106  -0.40387  -0.33586  -0.29445  -0.27342
 Alpha virt. eigenvalues --   -0.04758  -0.02291  -0.01385  -0.01080   0.01731
 Alpha virt. eigenvalues --    0.04244   0.05205   0.06133   0.07683   0.07853
 Alpha virt. eigenvalues --    0.08462   0.09638   0.11518   0.12145   0.12341

 Mulliken charges:
               1
     1  S    0.029263
     2  C    0.246789
     3  C   -0.628189
     4  H    0.234015
     5  H    0.118122
 Sum of Mulliken charges =  -0.00000

 Dipole moment (field-independent basis, Debye):
    X=              1.3664    Y=              2.5378    Z=              0.7617  Tot=              2.9812
 Quadrupole moment (field-independent basis, Debye-Ang):
   XX=            -25.2306   YY=            -27.0677   ZZ=            -24.9519
   XY=             -4.0907   XZ=              1.2761   YZ=              0.0527

  Exact polarizability:  54.807   3.341  40.977   1.325  -0.130  34.330
 Approx polarizability:  97.735   8.543  68.312   2.371  -0.278  54.160

                      1                      2                      3
                      A                      A                      A
 Frequencies --    361.5428               557.6874               660.3019
 Red. masses --     11.6239                 1.3385                 7.7374
 Frc consts  --      0.8952                 0.2453                 1.9876
 IR Inten    --      0.8295                 9.3590                 3.5748

                      4                      5                      6
                      A                      A                      A
 Frequencies --    685.5974               961.6361               990.1846
 Red. masses --      1.1510                 1.0680                 1.1444
 Frc consts  --      0.3188                 0.5819                 0.6611
 IR Inten    --     43.7516                 9.5131                 7.5602

                      7                      8                      9
                      A                      A                      A
 Frequencies --   1654.6554              2575.8759              3287.0752
 Red. masses --      7.2477                 1.0399                 1.1136
 Frc consts  --     11.6914                 4.0653                 7.0893
 IR Inten    --     19.1567                 6.9565                17.8395

 - Thermochemistry -
 -------------------
 Temperature   298.150 Kelvin.  Pressure   1.00000 Atm.
 Atom     1 has atomic number 16 and mass  31.97207

 Molecular mass:    57.98772 amu.
 Principal axes and moments of inertia in atomic units:
                           1         2         3
     Eigenvalues --    50.20556 179.20520 217.29836
           X            0.99801  -0.05626   0.02855
           Y            0.05631   0.99841  -0.00080
           Z           -0.02846   0.00241   0.99959
 This molecule is an asymmetric top.
 Rotational symmetry number  1.
 Rotational temperatures (Kelvin)      1.72518     0.48332     0.39859
 Rotational constants (GHZ):          35.94704    10.07081     8.30536
 Zero-point vibrational energy      70188.2 (Joules/Mol)
                                   16.77539 (Kcal/Mol)
 Warning -- explicit consideration of   2 degrees of freedom as
           vibrations may cause significant error
 Vibrational temperatures:    520.18   802.39   950.03   986.42  1383.58
          (Kelvin)           1424.65  2380.68  3706.11  4729.36

 Zero-point correction=                           0.026733 (Hartree/Particle)
 Thermal correction to Energy=                    0.030431
 Thermal correction to Enthalpy=                  0.031375
 Thermal correction to Gibbs Free Energy=         0.001524
 Sum of electronic and zero-point Energies=           -475.498674
 Sum of electronic and thermal Energies=              -475.494976
 Sum of electronic and thermal Enthalpies=            -475.494032
 Sum of electronic and thermal Free Energies=         -475.523883

                     E (Thermal)             CV                S
                      KCal/Mol        Cal/Mol-Kelvin    Cal/Mol-Kelvin
 Total                   19.096             11.254             62.827
 Electronic               0.000              0.000              0.000
 Translational            0.889              2.981             38.094
 Rotational               0.889              2.981             22.196
 Vibrational             17.318              5.292              2.537
 Vibration     1          0.736              1.551              1.115
 Vibration     2          0.913              1.123              0.528

 Optimization completed.
    -- Stationary point found.
 Normal termination of Gaussian 09 at Wed Aug  3 20:26:38 2016.
