 Gaussian 09, Revision E.01,
 Gaussian 09:  EM64L-G09RevE.01 30-Nov-2015

 ------------------------------
 #p b3lyp/6-311++G(3df,2p) freq
 ------------------------------

 ---------
 b3lyp opt
 ---------
 Symbolic Z-matrix:
 Charge =  0 Multiplicity = 1

                         Standard orientation:
 ---------------------------------------------------------------------
 Center     Atomic      Atomic             Coordinates (Angstroms)
 Number     Number       Type             X           Y           Z
 ---------------------------------------------------------------------
      1         16           0       -0.318303    0.710993   -0.070396
      2         16           0        1.550226   -0.255917    0.104660
      3          6           0       -1.569103   -0.390548    0.559463
      4          6           0       -1.672718   -0.623499   -0.715605
      5          1           0       -1.876470   -0.563732    1.573849
      6          1           0        1.616637   -0.633213   -1.185234
 ---------------------------------------------------------------------

 SCF Done:  E(RB3LYP) =  -873.758155867     A.U. after   13 cycles

 The electronic state is 1-A.
 Alpha  occ. eigenvalues --  -88.93472 -88.88587 -10.22143 -10.21976  -8.01459
 Alpha  occ. eigenvalues --   -7.97137  -5.97851  -5.97428  -5.97002  -5.93502
 Alpha  occ. eigenvalues --   -5.93161  -5.92561  -0.89785  -0.77728  -0.64891
 Alpha  occ. eigenvalues --   -0.57811  -0.46174  -0.43027  -0.40182  -0.34025
 Alpha  occ. eigenvalues --   -0.29776  -0.28706  -0.27095
 Alpha virt. eigenvalues --   -0.07100  -0.04373  -0.02063  -0.01043  -0.00619
 Alpha virt. eigenvalues --    0.01079   0.03569   0.03970   0.04277   0.06011
 Alpha virt. eigenvalues --    0.06448   0.07776   0.08365   0.08575   0.10210

 Mulliken charges:
               1
     1  S    0.180676
     2  S   -0.223870
     3  C    0.508341
     4  C   -0.893537
     5  H    0.273806
     6  H    0.154583
 Sum of Mulliken charges =  -0.00000

 Dipole moment (field-independent basis, Debye):
    X=              0.8325    Y=              0.3772    Z=              1.7392  Tot=              1.9647
 Quadrupole moment (field-independent basis, Debye-Ang):
   XX=            -39.1424   YY=            -39.7106   ZZ=            -37.4960
   XY=             -1.8595   XZ=             -6.6590   YZ=             -1.1577

  Exact polarizability:  89.129   3.660  55.899   1.114   2.037  54.397
 Approx polarizability: 153.921   9.463 100.498   4.874   6.402  96.089

                      1                      2                      3
                      A                      A                      A
 Frequencies --    190.6116               228.9456               254.4436
 Red. masses --      1.5167                 3.0428                 3.8311
 Frc consts  --      0.0325                 0.0940                 0.1461
 IR Inten    --     16.8179                11.4633                 9.0752

                      4                      5                      6
                      A                      A                      A
 Frequencies --    393.9802               442.8499               649.5795
 Red. masses --     13.2155                22.0856                 7.3193
 Frc consts  --      1.2086                 2.5520                 1.8196
 IR Inten    --      3.4168                14.3473                 8.9631

                      7                      8                      9
                      A                      A                      A
 Frequencies --    703.4699               838.6252               969.0229
 Red. masses --      1.3447                 1.0832                 1.1207
 Frc consts  --      0.3921                 0.4488                 0.6200
 IR Inten    --     45.1782                 7.6158                 9.7771

                     10                     11                     12
                      A                      A                      A
 Frequencies --   1633.9859              2652.2147              3286.3602
 Red. masses --      7.2569                 1.0390                 1.1138
 Frc consts  --     11.4156                 4.3061                 7.0872
 IR Inten    --     18.5478                 1.0102                18.5841

 - Thermochemistry -
 -------------------
 Temperature   298.150 Kelvin.  Pressure   1.00000 Atm.
 Atom     1 has atomic number 16 and mass  31.97207

 Molecular mass:    89.95979 amu.
 Principal axes and moments of inertia in atomic units:
                           1         2         3
     Eigenvalues --   141.44457 584.56880 624.98007
           X            0.99936  -0.00034  -0.03567
           Y           -0.00012   0.99992  -0.01268
           Z            0.03567   0.01267   0.99928
 This molecule is an asymmetric top.
 Rotational symmetry number  1.
 Rotational temperatures (Kelvin)      0.61235     0.14817     0.13859
 Rotational constants (GHZ):          12.75935     3.08730     2.88768
 Zero-point vibrational energy      73235.9 (Joules/Mol)
                                   17.50380 (Kcal/Mol)
 Warning -- explicit consideration of   5 degrees of freedom as
           vibrations may cause significant error
 Vibrational temperatures:    274.25   329.40   366.09   566.85   637.16
          (Kelvin)            934.60  1012.13  1206.59  1394.21  2350.94
                             3815.94  4728.33

 Zero-point correction=                           0.027894 (Hartree/Particle)
 Thermal correction to Energy=                    0.033243
 Thermal correction to Enthalpy=                  0.034187
 Thermal correction to Gibbs Free Energy=        -0.000701
 Sum of electronic and zero-point Energies=           -873.730262
 Sum of electronic and thermal Energies=              -873.724913
 Sum of electronic and thermal Enthalpies=            -873.723969
 Sum of electronic and thermal Free Energies=         -873.758857

                     E (Thermal)             CV                S
                      KCal/Mol        Cal/Mol-Kelvin    Cal/Mol-Kelvin
 Total                   20.860             17.027             73.428
 Electronic               0.000              0.000              0.000
 Translational            0.889              2.981             39.403
 Rotational               0.889              2.981             25.450
 Vibrational             19.083             11.065              8.576
 Vibration     1          0.634              1.853              2.222
 Vibration     2          0.652              1.797              1.887
 Vibration     3          0.665              1.755              1.700
 Vibration     4          0.761              1.483              0.985
 Vibration     5          0.802              1.377              0.818

 Normal termination of Gaussian 09 at Wed Aug  3 20:54:31 2016.
