 Gaussian 09, Revision E.01,
 Gaussian 09:  EM64L-G09RevE.01 30-Nov-2015

 ------------------------------
 #p b3lyp/6-311++G(3df,2p) freq
 ------------------------------

 ---------
 b3lyp opt
 ---------
 Symbolic Z-matrix:
 Charge =  0 Multiplicity = 1

                         Standard orientation:
 ---------------------------------------------------------------------
 Center     Atomic      Atomic             Coordinates (Angstroms)
 Number     Number       Type             X           Y           Z
 ---------------------------------------------------------------------
      1         16           0       -1.518459   -0.426950   -0.109450
      2         16           0        1.734967   -0.163727   -0.083889
      3          6           0        0.114508    0.405303    0.061239
      4          6           0       -0.700574    1.419638    0.071032
      5          1           0        1.809223   -0.777402    1.112323
      6          1           0       -1.756943   -0.721419    1.187485
 ---------------------------------------------------------------------

 SCF Done:  E(RB3LYP) =  -873.749577524     A.U. after   13 cycles

 The electronic state is 1-A.
 Alpha  occ. eigenvalues --  -88.91476 -88.89341 -10.24093 -10.21629  -7.99781
 Alpha  occ. eigenvalues --   -7.97871  -5.96122  -5.95707  -5.95374  -5.94253
 Alpha  occ. eigenvalues --   -5.93886  -5.93300  -0.88977  -0.78946  -0.69044
 Alpha  occ. eigenvalues --   -0.52446  -0.47475  -0.44077  -0.38877  -0.34415
 Alpha  occ. eigenvalues --   -0.31311  -0.28423  -0.25955
 Alpha virt. eigenvalues --   -0.04895  -0.04031  -0.02972  -0.01829  -0.00614
 Alpha virt. eigenvalues --    0.01677   0.03319   0.04519   0.05172   0.05992
 Alpha virt. eigenvalues --    0.06305   0.07226   0.08985   0.09154   0.09638

 Mulliken charges:
               1
     1  S   -0.019641
     2  S   -0.325413
     3  C    0.561186
     4  C   -0.474331
     5  H    0.139208
     6  H    0.118991
 Sum of Mulliken charges =  -0.00000

 Dipole moment (field-independent basis, Debye):
    X=              0.5320    Y=             -2.9149    Z=              1.3192  Tot=              3.2435
 Quadrupole moment (field-independent basis, Debye-Ang):
   XX=            -36.5126   YY=            -43.6124   ZZ=            -36.2548
   XY=              2.5081   XZ=             -0.0530   YZ=             -2.4798

  Exact polarizability:  84.884   1.907  65.479   0.155  -0.812  48.744
 Approx polarizability: 135.435   7.952 120.694   0.804  -2.999  82.000

                      1                      2                      3
                      A                      A                      A
 Frequencies --    182.1724               249.2708               296.7749
 Red. masses --      1.2019                 7.2527                 4.1922
 Frc consts  --      0.0235                 0.2655                 0.2175
 IR Inten    --     15.0329                 0.5632                 1.5974

                      4                      5                      6
                      A                      A                      A
 Frequencies --    363.0117               500.6563               564.1930
 Red. masses --     10.8944                11.1706                 1.1991
 Frc consts  --      0.8459                 1.6497                 0.2249
 IR Inten    --     18.2927                19.0953                13.9928

                      7                      8                      9
                      A                      A                      A
 Frequencies --    677.6413               932.4312               990.4727
 Red. masses --      9.6223                 1.0704                 1.1833
 Frc consts  --      2.6033                 0.5483                 0.6839
 IR Inten    --     24.0478                 6.7204                13.7917

                     10                     11                     12
                      A                      A                      A
 Frequencies --   1721.3534              2591.9735              2639.7884
 Red. masses --     11.4890                 1.0399                 1.0390
 Frc consts  --     20.0572                 4.1161                 4.2659
 IR Inten    --     19.6181                 4.3895                 0.6778

 - Thermochemistry -
 -------------------
 Temperature   298.150 Kelvin.  Pressure   1.00000 Atm.
 Atom     1 has atomic number 16 and mass  31.97207

 Molecular mass:    89.95979 amu.
 Principal axes and moments of inertia in atomic units:
                           1         2         3
     Eigenvalues --   133.10506 662.93254 773.00422
           X            1.00000  -0.00089  -0.00036
           Y            0.00087   0.99839  -0.05668
           Z            0.00041   0.05668   0.99839
 This molecule is an asymmetric top.
 Rotational symmetry number  1.
 Rotational temperatures (Kelvin)      0.65072     0.13065     0.11205
 Rotational constants (GHZ):          13.55877     2.72236     2.33471
 Zero-point vibrational energy      70039.8 (Joules/Mol)
                                   16.73991 (Kcal/Mol)
 Warning -- explicit consideration of   6 degrees of freedom as
           vibrations may cause significant error
 Vibrational temperatures:    262.11   358.64   426.99   522.29   720.33
          (Kelvin)            811.75   974.97  1341.56  1425.07  2476.64
                             3729.27  3798.06

 Zero-point correction=                           0.026677 (Hartree/Particle)
 Thermal correction to Energy=                    0.031972
 Thermal correction to Enthalpy=                  0.032916
 Thermal correction to Gibbs Free Energy=        -0.001980
 Sum of electronic and zero-point Energies=           -873.722901
 Sum of electronic and thermal Energies=              -873.717606
 Sum of electronic and thermal Enthalpies=            -873.716662
 Sum of electronic and thermal Free Energies=         -873.751558

                     E (Thermal)             CV                S
                      KCal/Mol        Cal/Mol-Kelvin    Cal/Mol-Kelvin
 Total                   20.063             16.929             73.445
 Electronic               0.000              0.000              0.000
 Translational            0.889              2.981             39.403
 Rotational               0.889              2.981             25.726
 Vibrational             18.285             10.967              8.316
 Vibration     1          0.630              1.864              2.306
 Vibration     2          0.662              1.764              1.736
 Vibration     3          0.690              1.680              1.435
 Vibration     4          0.737              1.548              1.109
 Vibration     5          0.856              1.249              0.656
 Vibration     6          0.920              1.109              0.516

 Normal termination of Gaussian 09 at Wed Aug  3 20:59:13 2016.
