 Gaussian 09, Revision E.01,
 Gaussian 09:  EM64L-G09RevE.01 30-Nov-2015

 ------------------------------
 #p b3lyp/6-311++G(3df,2p) freq
 ------------------------------

 ---------
 b3lyp opt
 ---------
 Symbolic Z-matrix:
 Charge =  1 Multiplicity = 4

                         Standard orientation:
 ---------------------------------------------------------------------
 Center     Atomic      Atomic             Coordinates (Angstroms)
 Number     Number       Type             X           Y           Z
 ---------------------------------------------------------------------
      1         16           0        0.163792   -0.676437    0.000054
      2         16           0       -1.667146    0.206270   -0.000199
      3          6           0        1.390220    0.571993   -0.001108
      4          6           0        2.644546    0.163494    0.000989
      5          1           0        1.090087    1.619264   -0.003479
      6          1           0       -1.245018    1.490492    0.006511
 ---------------------------------------------------------------------

 SCF Done:  E(UB3LYP) =  -873.358254126     A.U. after   21 cycles

 The electronic state is 4-A.
 Alpha  occ. eigenvalues --  -89.16252 -89.13298 -10.49501 -10.46780  -8.24330
 Alpha  occ. eigenvalues --   -8.21621  -6.20567  -6.20488  -6.20107  -6.17950
 Alpha  occ. eigenvalues --   -6.17493  -6.17441  -1.10235  -1.02351  -0.91596
 Alpha  occ. eigenvalues --   -0.78658  -0.72030  -0.63847  -0.61861  -0.60608
 Alpha  occ. eigenvalues --   -0.59760  -0.54372  -0.47145  -0.46905
 Alpha virt. eigenvalues --   -0.26833  -0.24994  -0.23142  -0.17423  -0.13934
 Alpha virt. eigenvalues --   -0.11173  -0.09947  -0.09399  -0.08882  -0.08183
 Alpha virt. eigenvalues --   -0.07650  -0.06677  -0.05709  -0.04724  -0.04637

  Beta  occ. eigenvalues --  -89.15809 -89.13044 -10.46819 -10.45675  -8.23917
  Beta  occ. eigenvalues --   -8.21393  -6.20282  -6.19733  -6.19320  -6.17757
  Beta  occ. eigenvalues --   -6.17346  -6.16714  -1.08348  -0.99461  -0.87936
  Beta  occ. eigenvalues --   -0.75416  -0.70753  -0.60786  -0.58718  -0.58627
  Beta  occ. eigenvalues --   -0.50593
  Beta virt. eigenvalues --   -0.39191  -0.37388  -0.30834  -0.24411  -0.21351
  Beta virt. eigenvalues --   -0.20504  -0.16730  -0.13657  -0.10735  -0.09804
  Beta virt. eigenvalues --   -0.08746  -0.08323  -0.07648  -0.07133  -0.06093

 Mulliken charges and spin densities:
               1          2
     1  S    0.067403   0.589534
     2  S    0.261125   0.350631
     3  C    0.304048  -0.228996
     4  C   -0.022562   2.227156
     5  H    0.224358   0.057600
     6  H    0.165628   0.004075
 Sum of Mulliken charges =   1.00000   3.00000

 Dipole moment (field-independent basis, Debye):
    X=              0.8343    Y=              1.6750    Z=              0.0031  Tot=              1.8713
 Quadrupole moment (field-independent basis, Debye-Ang):
   XX=            -18.9095   YY=            -28.8116   ZZ=            -36.1823
   XY=             -1.0132   XZ=             -0.0043   YZ=              0.0092

  Exact polarizability: 106.042  -2.429  48.067   0.011   0.003  37.334
 Approx polarizability: 208.123 -10.007  84.730   0.044   0.013  58.162

                      1                      2                      3
                      A                      A                      A
 Frequencies --    103.8875               184.7094               191.6995
 Red. masses --      1.9692                 1.5230                 7.7353
 Frc consts  --      0.0125                 0.0306                 0.1675
 IR Inten    --      2.0503                11.7600                 1.8469

                      4                      5                      6
                      A                      A                      A
 Frequencies --    386.0279               544.9967               683.6847
 Red. masses --     11.2069                28.9286                 6.6363
 Frc consts  --      0.9840                 5.0625                 1.8276
 IR Inten    --      0.5999                17.4791                 4.1710

                      7                      8                      9
                      A                      A                      A
 Frequencies --    699.5486               876.9980              1189.9789
 Red. masses --      1.4862                 1.1071                 1.0964
 Frc consts  --      0.4285                 0.5017                 0.9147
 IR Inten    --     17.3888                 9.5834                 3.6533

                     10                     11                     12
                      A                      A                      A
 Frequencies --   1448.1474              2619.0129              3084.2171
 Red. masses --      9.6585                 1.0390                 1.0892
 Frc consts  --     11.9340                 4.1990                 6.1044
 IR Inten    --     20.2912                21.5176                12.4077

 - Thermochemistry -
 -------------------
 Temperature   298.150 Kelvin.  Pressure   1.00000 Atm.
 Atom     1 has atomic number 16 and mass  31.97207

 Molecular mass:    89.95979 amu.
 Principal axes and moments of inertia in atomic units:
                           1         2         3
     Eigenvalues --    89.32354 712.76920 802.09216
           X            1.00000  -0.00063  -0.00006
           Y            0.00063   1.00000   0.00017
           Z            0.00006  -0.00017   1.00000
 This molecule is an asymmetric top.
 Rotational symmetry number  1.
 Rotational temperatures (Kelvin)      0.96966     0.12152     0.10798
 Rotational constants (GHZ):          20.20454     2.53201     2.25004
 Zero-point vibrational energy      71853.2 (Joules/Mol)
                                   17.17332 (Kcal/Mol)
 Warning -- explicit consideration of   5 degrees of freedom as
           vibrations may cause significant error
 Vibrational temperatures:    149.47   265.76   275.81   555.41   784.13
          (Kelvin)            983.67  1006.49  1261.80  1712.11  2083.56
                             3768.17  4437.49

 Zero-point correction=                           0.027367 (Hartree/Particle)
 Thermal correction to Energy=                    0.032917
 Thermal correction to Enthalpy=                  0.033861
 Thermal correction to Gibbs Free Energy=        -0.003143
 Sum of electronic and zero-point Energies=           -873.330887
 Sum of electronic and thermal Energies=              -873.325337
 Sum of electronic and thermal Enthalpies=            -873.324393
 Sum of electronic and thermal Free Energies=         -873.361397

                     E (Thermal)             CV                S
                      KCal/Mol        Cal/Mol-Kelvin    Cal/Mol-Kelvin
 Total                   20.656             16.796             77.881
 Electronic               0.000              0.000              2.755
 Translational            0.889              2.981             39.403
 Rotational               0.889              2.981             25.438
 Vibrational             18.878             10.834             10.285
 Vibration     1          0.605              1.946              3.380
 Vibration     2          0.631              1.861              2.280
 Vibration     3          0.634              1.851              2.211
 Vibration     4          0.755              1.500              1.015
 Vibration     5          0.900              1.151              0.555

 Normal termination of Gaussian 09 at Wed Aug  3 20:13:28 2016.
