 Gaussian 09, Revision E.01,
 Gaussian 09:  EM64L-G09RevE.01 30-Nov-2015

 ------------------------------
 #p b3lyp/6-311++G(3df,2p) freq
 ------------------------------

 ---------
 b3lyp opt
 ---------
 Symbolic Z-matrix:
 Charge =  1 Multiplicity = 2

                         Standard orientation:
 ---------------------------------------------------------------------
 Center     Atomic      Atomic             Coordinates (Angstroms)
 Number     Number       Type             X           Y           Z
 ---------------------------------------------------------------------
      1         16           0        0.416701   -1.914355   -0.000000
      2         16           0       -0.975774    1.895316   -0.000000
      3          6           0       -0.000000    0.736403    0.000000
      4          6           0        0.889246   -0.278439    0.000000
      5          1           0        1.944488   -0.021410    0.000000
      6          1           0        1.665206   -2.421738    0.000000
 ---------------------------------------------------------------------

 SCF Done:  E(UB3LYP) =  -873.543991197     A.U. after   16 cycles

 The electronic state is 2-A".
 Alpha  occ. eigenvalues --  -89.12414 -89.11742 -10.49197 -10.46704  -8.20840
 Alpha  occ. eigenvalues --   -8.20139  -6.16872  -6.16831  -6.16824  -6.16365
 Alpha  occ. eigenvalues --   -6.16112  -6.15953  -1.09354  -1.03868  -0.93381
 Alpha  occ. eigenvalues --   -0.75436  -0.71123  -0.67148  -0.62296  -0.59555
 Alpha  occ. eigenvalues --   -0.55809  -0.54529  -0.44561
 Alpha virt. eigenvalues --   -0.31481  -0.24148  -0.21048  -0.15075  -0.14121
 Alpha virt. eigenvalues --   -0.12748  -0.11733  -0.10164  -0.09487  -0.07356
 Alpha virt. eigenvalues --   -0.06936  -0.06281  -0.05398  -0.05188  -0.04480

  Beta  occ. eigenvalues --  -89.12172 -89.11501 -10.49127 -10.46270  -8.20622
  Beta  occ. eigenvalues --   -8.19920  -6.16701  -6.16667  -6.16235  -6.16141
  Beta  occ. eigenvalues --   -6.15829  -6.15353  -1.08434  -1.03002  -0.91850
  Beta  occ. eigenvalues --   -0.74795  -0.70630  -0.66374  -0.59709  -0.58990
  Beta  occ. eigenvalues --   -0.55436  -0.51204
  Beta virt. eigenvalues --   -0.36452  -0.31182  -0.21512  -0.20764  -0.14605
  Beta virt. eigenvalues --   -0.14019  -0.12348  -0.11673  -0.09825  -0.09335
  Beta virt. eigenvalues --   -0.07282  -0.06722  -0.06209  -0.05369  -0.04768

 Mulliken charges and spin densities:
               1          2
     1  S    0.043146   0.370838
     2  S    0.129417   0.392416
     3  C    0.167096   0.053499
     4  C    0.207846   0.204024
     5  H    0.232714  -0.013414
     6  H    0.219782  -0.007363
 Sum of Mulliken charges =   1.00000   1.00000

 Dipole moment (field-independent basis, Debye):
    X=              1.6246    Y=             -0.3429    Z=              0.0000  Tot=              1.6604
 Quadrupole moment (field-independent basis, Debye-Ang):
   XX=            -25.1599   YY=            -15.8602   ZZ=            -35.7374
   XY=             -8.8974   XZ=             -0.0000   YZ=             -0.0000

  Exact polarizability:  56.227 -27.013 105.312  -0.002  -0.004  36.439
 Approx polarizability: 104.348 -57.852 193.869   0.000  -0.000  56.658

                      1                      2                      3
                     A'                     A"                     A"
 Frequencies --    152.8511               288.2533               442.9575
 Red. masses --     11.2152                 1.7193                 1.8424
 Frc consts  --      0.1544                 0.0842                 0.2130
 IR Inten    --      0.8291                26.5223                 0.8387

                      4                      5                      6
                     A'                     A"                     A'
 Frequencies --    487.4890               715.6070               759.6317
 Red. masses --     11.5564                 1.5085                 3.5795
 Frc consts  --      1.6181                 0.4551                 1.2170
 IR Inten    --      1.3413                21.8245                 1.1704

                      7                      8                      9
                     A'                     A'                     A'
 Frequencies --    959.7376              1041.7255              1253.1422
 Red. masses --      2.6484                 1.3734                 1.4499
 Frc consts  --      1.4373                 0.8781                 1.3415
 IR Inten    --     39.5817                 0.0074                 4.4547

                     10                     11                     12
                     A'                     A'                     A'
 Frequencies --   1716.0721              2659.5408              3142.6265
 Red. masses --     11.7963                 1.0390                 1.0868
 Frc consts  --     20.4676                 4.3298                 6.3241
 IR Inten    --    126.7463                57.6085                65.1672

 - Thermochemistry -
 -------------------
 Temperature   298.150 Kelvin.  Pressure   1.00000 Atm.
 Atom     1 has atomic number 16 and mass  31.97207

 Molecular mass:    89.95979 amu.
 Principal axes and moments of inertia in atomic units:
                           1         2         3
     Eigenvalues --    55.112961006.388361061.50132
           X           -0.37023   0.92894   0.00000
           Y            0.92894   0.37023   0.00000
           Z            0.00000   0.00000   1.00000
 This molecule is an asymmetric top.
 Rotational symmetry number  1.
 Rotational temperatures (Kelvin)      1.57157     0.08606     0.08160
 Rotational constants (GHZ):          32.74622     1.79329     1.70018
 Zero-point vibrational energy      81463.5 (Joules/Mol)
                                   19.47024 (Kcal/Mol)
 Warning -- explicit consideration of   4 degrees of freedom as
           vibrations may cause significant error
 Vibrational temperatures:    219.92   414.73   637.32   701.39  1029.60
          (Kelvin)           1092.94  1380.85  1498.81  1802.99  2469.04
                             3826.48  4521.53

 Zero-point correction=                           0.031028 (Hartree/Particle)
 Thermal correction to Energy=                    0.035725
 Thermal correction to Enthalpy=                  0.036669
 Thermal correction to Gibbs Free Energy=         0.002105
 Sum of electronic and zero-point Energies=           -873.512963
 Sum of electronic and thermal Energies=              -873.508267
 Sum of electronic and thermal Enthalpies=            -873.507322
 Sum of electronic and thermal Free Energies=         -873.541886

                     E (Thermal)             CV                S
                      KCal/Mol        Cal/Mol-Kelvin    Cal/Mol-Kelvin
 Total                   22.417             14.695             72.746
 Electronic               0.000              0.000              1.377
 Translational            0.889              2.981             39.403
 Rotational               0.889              2.981             25.579
 Vibrational             20.640              8.734              6.386
 Vibration     1          0.619              1.900              2.636
 Vibration     2          0.685              1.696              1.484
 Vibration     3          0.803              1.376              0.817
 Vibration     4          0.843              1.278              0.690

 Optimization completed.
    -- Stationary point found.
 Normal termination of Gaussian 09 at Wed Aug  3 23:05:11 2016.
