 Gaussian 09, Revision E.01,
 Gaussian 09:  EM64L-G09RevE.01 30-Nov-2015

 ------------------------------
 #p b3lyp/6-311++G(3df,2p) freq
 ------------------------------

 ---------
 b3lyp opt
 ---------
 Symbolic Z-matrix:
 Charge =  2 Multiplicity = 1

                         Standard orientation:
 ---------------------------------------------------------------------
 Center     Atomic      Atomic             Coordinates (Angstroms)
 Number     Number       Type             X           Y           Z
 ---------------------------------------------------------------------
      1         16           0        0.000000    0.680055    0.000000
      2          6           0       -1.186635   -0.562859    0.000000
      3          6           0        0.809372   -0.811341   -0.000000
      4          1           0        1.922695   -0.804022   -0.000000
      5          1           0        0.340887   -1.831652   -0.000000
 ---------------------------------------------------------------------

 SCF Done:  E(RB3LYP) =  -474.532853642     A.U. after   11 cycles

 The electronic state is 1-A'.
 Alpha  occ. eigenvalues --  -89.50592 -10.90770 -10.85233  -8.58492  -6.54580
 Alpha  occ. eigenvalues --   -6.54505  -6.54290  -1.45598  -1.20761  -1.13309
 Alpha  occ. eigenvalues --   -0.99493  -0.96568  -0.92115  -0.86421
 Alpha virt. eigenvalues --   -0.67874  -0.64798  -0.64580  -0.54260  -0.43244
 Alpha virt. eigenvalues --   -0.36528  -0.35396  -0.32252  -0.29305  -0.27326
 Alpha virt. eigenvalues --   -0.25632  -0.25293  -0.23417  -0.22858  -0.22415

 Mulliken charges:
               1
     1  S    0.654874
     2  C    0.561751
     3  C    0.162782
     4  H    0.327780
     5  H    0.292813
 Sum of Mulliken charges =   2.00000

 Dipole moment (field-independent basis, Debye):
    X=              1.4905    Y=             -1.9129    Z=             -0.0000  Tot=              2.4251
 Quadrupole moment (field-independent basis, Debye-Ang):
   XX=             -9.3649   YY=            -10.1664   ZZ=            -19.1989
   XY=             -3.6286   XZ=             -0.0000   YZ=              0.0000

  Exact polarizability:  37.100  -1.422  33.363   0.000  -0.000  19.944
 Approx polarizability:  81.255  -2.410  69.378  -0.000   0.000  33.287

                      1                      2                      3
                     A'                     A"                     A'
 Frequencies --    252.2211               561.5158               654.8876
 Red. masses --      4.3234                 1.0748                 3.3131
 Frc consts  --      0.1620                 0.1997                 0.8372
 IR Inten    --      1.7622                 0.0828               113.7238

                      4                      5                      6
                     A'                     A'                     A"
 Frequencies --    835.2227               943.1307              1020.2375
 Red. masses --      1.7680                 8.1063                 1.2915
 Frc consts  --      0.7266                 4.2483                 0.7920
 IR Inten    --     24.5676                55.7320                44.8421

                      7                      8                      9
                     A'                     A'                     A'
 Frequencies --   1331.7273              2780.2663              2915.0660
 Red. masses --      1.0843                 1.0602                 1.1051
 Frc consts  --      1.1330                 4.8284                 5.5328
 IR Inten    --     58.4701               302.3494               323.2180

 - Thermochemistry -
 -------------------
 Temperature   298.150 Kelvin.  Pressure   1.00000 Atm.
 Atom     1 has atomic number 16 and mass  31.97207

 Molecular mass:    57.98772 amu.
 Principal axes and moments of inertia in atomic units:
                           1         2         3
     Eigenvalues --    97.45553 112.94384 210.39937
           X           -0.53118   0.84726   0.00000
           Y            0.84726   0.53118   0.00000
           Z            0.00000   0.00000   1.00000
 This molecule is an asymmetric top.
 Rotational symmetry number  1.
 Rotational temperatures (Kelvin)      0.88875     0.76688     0.41166
 Rotational constants (GHZ):          18.51861    15.97910     8.57769
 Zero-point vibrational energy      67554.8 (Joules/Mol)
                                   16.14598 (Kcal/Mol)
 Warning -- explicit consideration of   2 degrees of freedom as
           vibrations may cause significant error
 Vibrational temperatures:    362.89   807.90   942.24  1201.70  1356.95
          (Kelvin)           1467.89  1916.06  4000.18  4194.12

 Zero-point correction=                           0.025730 (Hartree/Particle)
 Thermal correction to Energy=                    0.029519
 Thermal correction to Enthalpy=                  0.030464
 Thermal correction to Gibbs Free Energy=         0.000309
 Sum of electronic and zero-point Energies=           -474.507123
 Sum of electronic and thermal Energies=              -474.503334
 Sum of electronic and thermal Enthalpies=            -474.502390
 Sum of electronic and thermal Free Energies=         -474.532545

                     E (Thermal)             CV                S
                      KCal/Mol        Cal/Mol-Kelvin    Cal/Mol-Kelvin
 Total                   18.524             11.281             63.466
 Electronic               0.000              0.000              0.000
 Translational            0.889              2.981             38.094
 Rotational               0.889              2.981             22.364
 Vibrational             16.746              5.319              3.008
 Vibration     1          0.664              1.759              1.715
 Vibration     2          0.917              1.115              0.521

 Optimization completed.
    -- Stationary point found.
 Normal termination of Gaussian 09 at Wed Aug  3 23:02:46 2016.
