 Gaussian 09, Revision E.01,
 Gaussian 09:  EM64L-G09RevE.01 30-Nov-2015

 ------------------------------
 #p b3lyp/6-311++G(3df,2p) freq
 ------------------------------

 ---------
 b3lyp opt
 ---------
 Symbolic Z-matrix:
 Charge =  1 Multiplicity = 2

                         Standard orientation:
 ---------------------------------------------------------------------
 Center     Atomic      Atomic             Coordinates (Angstroms)
 Number     Number       Type             X           Y           Z
 ---------------------------------------------------------------------
      1         16           0        0.066869   -0.230733    1.046609
      2         16           0        0.066869   -0.230733   -1.046609
      3          6           0        0.066869    1.369135   -0.000000
      4          1           0       -1.270509   -0.415677   -1.241596
      5          1           0       -1.270509   -0.415677    1.241596
 ---------------------------------------------------------------------

 SCF Done:  E(UB3LYP) =  -835.280148312     A.U. after   15 cycles

 The electronic state is 2-A'.
 Alpha  occ. eigenvalues --  -89.19252 -89.19252 -10.49119  -8.27358  -8.27354
 Alpha  occ. eigenvalues --   -6.23718  -6.23696  -6.23251  -6.23249  -6.22968
 Alpha  occ. eigenvalues --   -6.22966  -1.14805  -0.96924  -0.84993  -0.73711
 Alpha  occ. eigenvalues --   -0.66003  -0.65753  -0.57735  -0.53315  -0.47169
 Alpha virt. eigenvalues --   -0.34714  -0.26897  -0.25414  -0.22907  -0.18838
 Alpha virt. eigenvalues --   -0.13872  -0.13006  -0.10802  -0.09507  -0.08030
 Alpha virt. eigenvalues --   -0.07749  -0.07613  -0.07028  -0.05982  -0.04763

  Beta  occ. eigenvalues --  -89.19270 -89.19270 -10.47795  -8.27364  -8.27361
  Beta  occ. eigenvalues --   -6.23721  -6.23699  -6.23284  -6.23282  -6.22994
  Beta  occ. eigenvalues --   -6.22992  -1.14087  -0.96713  -0.82387  -0.72486
  Beta  occ. eigenvalues --   -0.65345  -0.65341  -0.57185  -0.51509
  Beta virt. eigenvalues --   -0.34510  -0.33381  -0.25550  -0.24104  -0.22121
  Beta virt. eigenvalues --   -0.18336  -0.13661  -0.12888  -0.10739  -0.09397
  Beta virt. eigenvalues --   -0.07844  -0.07547  -0.07206  -0.06942  -0.05047

 Mulliken charges and spin densities:
               1          2
     1  S    0.269215   0.001374
     2  S    0.269215   0.001374
     3  C    0.028668   0.888908
     4  H    0.216451   0.054172
     5  H    0.216451   0.054172
 Sum of Mulliken charges =   1.00000   1.00000

 Dipole moment (field-independent basis, Debye):
    X=             -2.0036    Y=             -2.0257    Z=             -0.0000  Tot=              2.8492
 Quadrupole moment (field-independent basis, Debye-Ang):
   XX=            -25.7264   YY=            -31.3679   ZZ=            -19.5683
   XY=              1.2748   XZ=             -0.0000   YZ=             -0.0000

  Exact polarizability:  36.870   2.855  48.100   0.000  -0.000  54.283
 Approx polarizability:  62.426   6.740  97.267  -0.000  -0.000 115.542

                      1                      2                      3
                     A"                     A'                     A"
 Frequencies --    330.4530               498.3906               510.6072
 Red. masses --      7.8999                14.4949                 1.1178
 Frc consts  --      0.5083                 2.1213                 0.1717
 IR Inten    --      5.1437                 9.9402                 6.9393

                      4                      5                      6
                     A'                     A'                     A'
 Frequencies --    544.0605               606.7795               838.9410
 Red. masses --      4.7528                 1.3959                 1.0428
 Frc consts  --      0.8289                 0.3028                 0.4324
 IR Inten    --     30.6178                 0.5374                 9.3739

                      7                      8                      9
                     A"                     A"                     A'
 Frequencies --    859.3511              2506.4590              2511.2215
 Red. masses --      1.0897                 1.0400                 1.0398
 Frc consts  --      0.4741                 3.8496                 3.8632
 IR Inten    --      5.4512                18.5279                37.8745

 - Thermochemistry -
 -------------------
 Temperature   298.150 Kelvin.  Pressure   1.00000 Atm.
 Atom     1 has atomic number 16 and mass  31.97207

 Molecular mass:    77.95979 amu.
 Principal axes and moments of inertia in atomic units:
                           1         2         3
     Eigenvalues --   106.23852 273.56126 355.13127
           X           -0.00000   0.05039   0.99873
           Y            0.00000   0.99873  -0.05039
           Z            1.00000  -0.00000   0.00000
 This molecule is an asymmetric top.
 Rotational symmetry number  1.
 Rotational temperatures (Kelvin)      0.81528     0.31662     0.24389
 Rotational constants (GHZ):          16.98764     6.59721     5.08190
 Zero-point vibrational energy      55065.7 (Joules/Mol)
                                   13.16101 (Kcal/Mol)
 Warning -- explicit consideration of   5 degrees of freedom as
           vibrations may cause significant error
 Vibrational temperatures:    475.45   717.07   734.65   782.78   873.02
          (Kelvin)           1207.05  1236.41  3606.23  3613.08

 Zero-point correction=                           0.020973 (Hartree/Particle)
 Thermal correction to Energy=                    0.025112
 Thermal correction to Enthalpy=                  0.026056
 Thermal correction to Gibbs Free Energy=        -0.006297
 Sum of electronic and zero-point Energies=           -835.259175
 Sum of electronic and thermal Energies=              -835.255037
 Sum of electronic and thermal Enthalpies=            -835.254092
 Sum of electronic and thermal Free Energies=         -835.286445

                     E (Thermal)             CV                S
                      KCal/Mol        Cal/Mol-Kelvin    Cal/Mol-Kelvin
 Total                   15.758             13.376             68.092
 Electronic               0.000              0.000              1.377
 Translational            0.889              2.981             38.976
 Rotational               0.889              2.981             23.849
 Vibrational             13.980              7.415              3.889
 Vibration     1          0.713              1.615              1.258
 Vibration     2          0.854              1.254              0.662
 Vibration     3          0.866              1.226              0.632
 Vibration     4          0.899              1.153              0.557
 Vibration     5          0.965              1.017              0.438

 Optimization completed.
    -- Stationary point found.
 Normal termination of Gaussian 09 at Wed Aug  3 23:07:22 2016.
