 Gaussian 09, Revision E.01,
 Gaussian 09:  EM64L-G09RevE.01 30-Nov-2015

 ------------------------------
 #p b3lyp/6-311++G(3df,2p) freq
 ------------------------------

 ---------
 b3lyp opt
 ---------
 Symbolic Z-matrix:
 Charge =  0 Multiplicity = 1

                         Standard orientation:
 ---------------------------------------------------------------------
 Center     Atomic      Atomic             Coordinates (Angstroms)
 Number     Number       Type             X           Y           Z
 ---------------------------------------------------------------------
      1         16           0        0.096083   -0.472713   -0.000000
      2          6           0        0.096083    1.156142   -0.000000
      3          1           0       -0.914548    1.576998    0.000000
      4          1           0       -1.199287   -0.950446    0.000000
 ---------------------------------------------------------------------

 SCF Done:  E(RB3LYP) =  -437.437978510     A.U. after   11 cycles

 The electronic state is 1-A'.
 Alpha  occ. eigenvalues --  -88.90544 -10.22006  -7.99004  -5.95265  -5.94886
 Alpha  occ. eigenvalues --   -5.94710  -0.82862  -0.60707  -0.48357  -0.35968
 Alpha  occ. eigenvalues --   -0.34314  -0.24696
 Alpha virt. eigenvalues --   -0.09691  -0.02622   0.00461   0.03170   0.04502
 Alpha virt. eigenvalues --    0.04579   0.06225   0.08818   0.10039   0.10550
 Alpha virt. eigenvalues --    0.10959   0.15049   0.15817   0.17340   0.18802

 Mulliken charges:
               1
     1  S    0.094669
     2  C   -0.348307
     3  H    0.177739
     4  H    0.075898
 Sum of Mulliken charges =  -0.00000

 Dipole moment (field-independent basis, Debye):
    X=             -2.0898    Y=             -1.5196    Z=              0.0000  Tot=              2.5839
 Quadrupole moment (field-independent basis, Debye-Ang):
   XX=            -19.9089   YY=            -21.5386   ZZ=            -20.2478
   XY=             -1.9513   XZ=              0.0000   YZ=             -0.0000

  Exact polarizability:  33.309   4.421  47.516  -0.000   0.000  26.524
 Approx polarizability:  49.382   8.762  84.323  -0.000  -0.000  41.378

                      1                      2                      3
                     A'                     A"                     A'
 Frequencies --    786.1790               942.4402               963.6907
 Red. masses --      1.4897                 1.1437                 2.4182
 Frc consts  --      0.5425                 0.5985                 1.3232
 IR Inten    --     49.5704                 7.4986                19.5601

                      4                      5                      6
                     A'                     A'                     A'
 Frequencies --   1103.3160              2353.1702              3054.8257
 Red. masses --      1.2460                 1.0401                 1.0872
 Frc consts  --      0.8936                 3.3932                 5.9779
 IR Inten    --      2.6978               125.7147                13.1247

 - Thermochemistry -
 -------------------
 Temperature   298.150 Kelvin.  Pressure   1.00000 Atm.
 Atom     1 has atomic number 16 and mass  31.97207

 Molecular mass:    45.98772 amu.
 Principal axes and moments of inertia in atomic units:
                           1         2         3
     Eigenvalues --     9.27225  94.98910 104.26135
           X           -0.01651   0.99986   0.00000
           Y            0.99986   0.01651   0.00000
           Z           -0.00000   0.00000   1.00000
 This molecule is an asymmetric top.
 Rotational symmetry number  1.
 Rotational temperatures (Kelvin)      9.34119     0.91183     0.83074
 Rotational constants (GHZ):         194.63904    18.99946    17.30978
 Zero-point vibrational energy      55049.9 (Joules/Mol)
                                   13.15724 (Kcal/Mol)
 Vibrational temperatures:   1131.13  1355.96  1386.53  1587.42  3385.68
          (Kelvin)           4395.21

 Zero-point correction=                           0.020967 (Hartree/Particle)
 Thermal correction to Energy=                    0.023996
 Thermal correction to Enthalpy=                  0.024940
 Thermal correction to Gibbs Free Energy=        -0.002175
 Sum of electronic and zero-point Energies=           -437.417011
 Sum of electronic and thermal Energies=              -437.413983
 Sum of electronic and thermal Enthalpies=            -437.413039
 Sum of electronic and thermal Free Energies=         -437.440153

                     E (Thermal)             CV                S
                      KCal/Mol        Cal/Mol-Kelvin    Cal/Mol-Kelvin
 Total                   15.057              7.779             57.067
 Electronic               0.000              0.000              0.000
 Translational            0.889              2.981             37.403
 Rotational               0.889              2.981             19.157
 Vibrational             13.280              1.817              0.507

 Optimization completed.
    -- Stationary point found.
 Normal termination of Gaussian 09 at Wed Aug  3 23:09:47 2016.
