 Gaussian 09, Revision E.01,
 Gaussian 09:  EM64L-G09RevE.01 30-Nov-2015

 ------------------------------
 #p b3lyp/6-311++G(3df,2p) freq
 ------------------------------

 ---------
 b3lyp opt
 ---------
 Symbolic Z-matrix:
 Charge =  2 Multiplicity = 3

                         Standard orientation:
 ---------------------------------------------------------------------
 Center     Atomic      Atomic             Coordinates (Angstroms)
 Number     Number       Type             X           Y           Z
 ---------------------------------------------------------------------
      1         16           0        0.024926   -0.541402   -0.000000
      2          6           0        0.024926    1.223491    0.000000
      3          1           0        0.820893    2.007764    0.000000
      4          1           0       -1.369271   -0.686273   -0.000000
 ---------------------------------------------------------------------

 SCF Done:  E(UB3LYP) =  -436.396924273     A.U. after   13 cycles

 The electronic state is 3-A".
 Alpha  occ. eigenvalues --  -89.57350 -10.92196  -8.64755  -6.61737  -6.60726
 Alpha  occ. eigenvalues --   -6.60231  -1.43368  -1.21548  -1.03959  -1.01023
 Alpha  occ. eigenvalues --   -0.95211  -0.86604
 Alpha virt. eigenvalues --   -0.72069  -0.56114  -0.52008  -0.37414  -0.37013
 Alpha virt. eigenvalues --   -0.35458  -0.30330  -0.30177  -0.29908  -0.27417
 Alpha virt. eigenvalues --   -0.27323  -0.23953  -0.21447  -0.19715  -0.16611

  Beta  occ. eigenvalues --  -89.56755 -10.90231  -8.64198  -6.60317  -6.59996
  Beta  occ. eigenvalues --   -6.59819  -1.38712  -1.17259  -1.02218  -0.97283
  Beta virt. eigenvalues --   -0.81473  -0.68949  -0.65666  -0.53440  -0.49511
  Beta virt. eigenvalues --   -0.35855  -0.35114  -0.32791  -0.29620  -0.29079
  Beta virt. eigenvalues --   -0.28578  -0.26670  -0.24811  -0.22637  -0.20760

 Mulliken charges and spin densities:
               1          2
     1  S    0.842491   0.897916
     2  C    0.472264   1.061429
     3  H    0.352139   0.012664
     4  H    0.333106   0.027992
 Sum of Mulliken charges =   2.00000   2.00000

 Dipole moment (field-independent basis, Debye):
    X=             -0.5031    Y=              2.0724    Z=              0.0000  Tot=              2.1326
 Quadrupole moment (field-independent basis, Debye-Ang):
   XX=            -10.6630   YY=             -1.5633   ZZ=            -13.2139
   XY=              4.4198   XZ=              0.0000   YZ=              0.0000

  Exact polarizability:  19.247   2.950  30.524   0.000  -0.000  15.134
 Approx polarizability:  28.192   3.227  52.647   0.000   0.000  22.967

                      1                      2                      3
                     A"                     A'                     A'
 Frequencies --    586.2700               709.3369               713.0101
 Red. masses --      1.1215                 2.1867                 1.7669
 Frc consts  --      0.2271                 0.6482                 0.5292
 IR Inten    --     54.9814                10.6176               116.8422

                      4                      5                      6
                     A'                     A'                     A'
 Frequencies --    950.5286              2274.4484              2900.1750
 Red. masses --      1.1555                 1.0399                 1.0950
 Frc consts  --      0.6151                 3.1694                 5.4262
 IR Inten    --      9.1013               270.6755               323.3366

 - Thermochemistry -
 -------------------
 Temperature   298.150 Kelvin.  Pressure   1.00000 Atm.
 Atom     1 has atomic number 16 and mass  31.97207

 Molecular mass:    45.98772 amu.
 Principal axes and moments of inertia in atomic units:
                           1         2         3
     Eigenvalues --     8.45477 114.47947 122.93424
           X            0.08648   0.99625   0.00000
           Y            0.99625  -0.08648  -0.00000
           Z            0.00000  -0.00000   1.00000
 This molecule is an asymmetric top.
 Rotational symmetry number  1.
 Rotational temperatures (Kelvin)     10.24437     0.75659     0.70455
 Rotational constants (GHZ):         213.45838    15.76476    14.68054
 Zero-point vibrational energy      48650.7 (Joules/Mol)
                                   11.62781 (Kcal/Mol)
 Warning -- explicit consideration of   1 degrees of freedom as
           vibrations may cause significant error
 Vibrational temperatures:    843.51  1020.58  1025.86  1367.60  3272.42
          (Kelvin)           4172.70

 Zero-point correction=                           0.018530 (Hartree/Particle)
 Thermal correction to Energy=                    0.021792
 Thermal correction to Enthalpy=                  0.022736
 Thermal correction to Gibbs Free Energy=        -0.005856
 Sum of electronic and zero-point Energies=           -436.378394
 Sum of electronic and thermal Energies=              -436.375133
 Sum of electronic and thermal Enthalpies=            -436.374189
 Sum of electronic and thermal Free Energies=         -436.402780

                     E (Thermal)             CV                S
                      KCal/Mol        Cal/Mol-Kelvin    Cal/Mol-Kelvin
 Total                   13.674              9.078             60.175
 Electronic               0.000              0.000              2.183
 Translational            0.889              2.981             37.403
 Rotational               0.889              2.981             19.415
 Vibrational             11.897              3.116              1.175
 Vibration     1          0.943              1.061              0.474

 Optimization completed.
    -- Stationary point found.
 Normal termination of Gaussian 09 at Wed Aug  3 22:48:16 2016.
