 Gaussian 09, Revision E.01,
 Gaussian 09:  EM64L-G09RevE.01 30-Nov-2015

 ------------------------------
 #p b3lyp/6-311++G(3df,2p) freq
 ------------------------------

 ---------
 b3lyp opt
 ---------
 Symbolic Z-matrix:
 Charge =  1 Multiplicity = 2

                         Standard orientation:
 ---------------------------------------------------------------------
 Center     Atomic      Atomic             Coordinates (Angstroms)
 Number     Number       Type             X           Y           Z
 ---------------------------------------------------------------------
      1         16           0       -1.536122   -0.153299    0.000051
      2         16           0        1.490831   -0.076433    0.000037
      3          6           0       -0.061159    0.567177   -0.000501
      4          1           0        1.164097   -1.388269    0.000250
      5          1           0       -0.072482    1.660919    0.001339
 ---------------------------------------------------------------------

 SCF Done:  E(UB3LYP) =  -835.423903384     A.U. after   16 cycles

 The electronic state is 2-A.
 Alpha  occ. eigenvalues --  -89.15705 -89.13461 -10.51577  -8.23930  -8.21907
 Alpha  occ. eigenvalues --   -6.20801  -6.19830  -6.19480  -6.18213  -6.17805
 Alpha  occ. eigenvalues --   -6.17546  -1.10861  -1.00831  -0.84634  -0.70509
 Alpha  occ. eigenvalues --   -0.69881  -0.61243  -0.60479  -0.54796  -0.51373
 Alpha virt. eigenvalues --   -0.33007  -0.23227  -0.17440  -0.16276  -0.14555
 Alpha virt. eigenvalues --   -0.13014  -0.10427  -0.10059  -0.07888  -0.07311
 Alpha virt. eigenvalues --   -0.06496  -0.06304  -0.05907  -0.05551  -0.03646

  Beta  occ. eigenvalues --  -89.15070 -89.13434 -10.51653  -8.23349  -8.21882
  Beta  occ. eigenvalues --   -6.19484  -6.19048  -6.18879  -6.18149  -6.17724
  Beta  occ. eigenvalues --   -6.17574  -1.09786  -0.98971  -0.83285  -0.69270
  Beta  occ. eigenvalues --   -0.68662  -0.60920  -0.59906  -0.50613
  Beta virt. eigenvalues --   -0.41395  -0.32844  -0.22777  -0.17132  -0.15984
  Beta virt. eigenvalues --   -0.13791  -0.12751  -0.10137  -0.10041  -0.07429
  Beta virt. eigenvalues --   -0.06768  -0.06276  -0.06090  -0.05553  -0.05028

 Mulliken charges and spin densities:
               1          2
     1  S    0.262145   0.989156
     2  S    0.132082   0.033926
     3  C    0.177398  -0.063207
     4  H    0.184152   0.004361
     5  H    0.244223   0.035764
 Sum of Mulliken charges =   1.00000   1.00000

 Dipole moment (field-independent basis, Debye):
    X=             -0.1866    Y=             -0.0026    Z=              0.0016  Tot=              0.1866
 Quadrupole moment (field-independent basis, Debye-Ang):
   XX=            -18.4667   YY=            -22.8956   ZZ=            -30.4096
   XY=             -1.5255   XZ=             -0.0004   YZ=              0.0016

  Exact polarizability:  72.092  -0.026  38.178  -0.002   0.001  31.053
 Approx polarizability: 146.976   2.333  65.496  -0.004  -0.007  48.525

                      1                      2                      3
                      A                      A                      A
 Frequencies --    275.3652               480.8855               722.2103
 Red. masses --      7.0615                 1.4356                 7.3658
 Frc consts  --      0.3155                 0.1956                 2.2636
 IR Inten    --      3.4010                 5.4348                 7.2246

                      4                      5                      6
                      A                      A                      A
 Frequencies --    861.1224               978.7626              1014.9760
 Red. masses --      1.2586                 1.2199                 2.8280
 Frc consts  --      0.5499                 0.6886                 1.7165
 IR Inten    --     38.2444                27.5946                97.3721

                      7                      8                      9
                      A                      A                      A
 Frequencies --   1276.0746              2618.5581              3065.4968
 Red. masses --      1.3768                 1.0392                 1.0832
 Frc consts  --      1.3209                 4.1982                 5.9975
 IR Inten    --     15.7978                19.7799                49.9611

 - Thermochemistry -
 -------------------
 Temperature   298.150 Kelvin.  Pressure   1.00000 Atm.
 Atom     1 has atomic number 16 and mass  31.97207

 Molecular mass:    77.95979 amu.
 Principal axes and moments of inertia in atomic units:
                           1         2         3
     Eigenvalues --    33.92109 528.25373 562.17478
           X            0.99992  -0.01240  -0.00000
           Y            0.01240   0.99992   0.00020
           Z           -0.00000  -0.00020   1.00000
 This molecule is an asymmetric top.
 Rotational symmetry number  1.
 Rotational temperatures (Kelvin)      2.55339     0.16396     0.15407
 Rotational constants (GHZ):          53.20411     3.41643     3.21028
 Zero-point vibrational energy      67549.8 (Joules/Mol)
                                   16.14480 (Kcal/Mol)
 Warning -- explicit consideration of   2 degrees of freedom as
           vibrations may cause significant error
 Vibrational temperatures:    396.19   691.89  1039.10  1238.96  1408.22
          (Kelvin)           1460.32  1835.98  3767.52  4410.56

 Zero-point correction=                           0.025728 (Hartree/Particle)
 Thermal correction to Energy=                    0.029505
 Thermal correction to Enthalpy=                  0.030449
 Thermal correction to Gibbs Free Energy=        -0.001438
 Sum of electronic and zero-point Energies=           -835.398175
 Sum of electronic and thermal Energies=              -835.394398
 Sum of electronic and thermal Enthalpies=            -835.393454
 Sum of electronic and thermal Free Energies=         -835.425341

                     E (Thermal)             CV                S
                      KCal/Mol        Cal/Mol-Kelvin    Cal/Mol-Kelvin
 Total                   18.515             11.239             67.112
 Electronic               0.000              0.000              1.377
 Translational            0.889              2.981             38.976
 Rotational               0.889              2.981             23.825
 Vibrational             16.737              5.277              2.934
 Vibration     1          0.677              1.719              1.562
 Vibration     2          0.837              1.292              0.708

 Optimization completed.
    -- Stationary point found.
 Normal termination of Gaussian 09 at Wed Aug  3 20:41:01 2016.
