 Gaussian 09, Revision E.01,
 Gaussian 09:  EM64L-G09RevE.01 30-Nov-2015

 ------------------------------
 #p b3lyp/6-311++G(3df,2p) freq
 ------------------------------

 ---------
 b3lyp opt
 ---------
 Symbolic Z-matrix:
 Charge =  2 Multiplicity = 3

                         Standard orientation:
 ---------------------------------------------------------------------
 Center     Atomic      Atomic             Coordinates (Angstroms)
 Number     Number       Type             X           Y           Z
 ---------------------------------------------------------------------
      1         16           0       -0.000000   -1.542629   -0.148350
      2         16           0        0.000000    1.542629   -0.148350
      3          6           0       -0.000000    0.000000    0.430587
      4          1           0       -0.000000   -2.175865    1.081842
      5          1           0        0.000000    2.175865    1.081842
 ---------------------------------------------------------------------

 SCF Done:  E(UB3LYP) =  -834.788325977     A.U. after   13 cycles

 The electronic state is 3-A2.
 Alpha  occ. eigenvalues --  -89.44090 -89.44090 -10.77824  -8.51947  -8.51946
 Alpha  occ. eigenvalues --   -6.48498  -6.48497  -6.47992  -6.47991  -6.47606
 Alpha  occ. eigenvalues --   -6.47606  -1.37004  -1.29540  -1.07441  -0.95517
 Alpha  occ. eigenvalues --   -0.94070  -0.88612  -0.87873  -0.80122  -0.74467
 Alpha virt. eigenvalues --   -0.57974  -0.45456  -0.44970  -0.43872  -0.34935
 Alpha virt. eigenvalues --   -0.32895  -0.29451  -0.27718  -0.26609  -0.26082
 Alpha virt. eigenvalues --   -0.25824  -0.24582  -0.23809  -0.22811  -0.21213

  Beta  occ. eigenvalues --  -89.43645 -89.43645 -10.76687  -8.51533  -8.51533
  Beta  occ. eigenvalues --   -6.47698  -6.47698  -6.47273  -6.47273  -6.47222
  Beta  occ. eigenvalues --   -6.47221  -1.34343  -1.26802  -1.04774  -0.94015
  Beta  occ. eigenvalues --   -0.89981  -0.86262  -0.83861
  Beta virt. eigenvalues --   -0.69423  -0.60984  -0.54691  -0.44035  -0.42801
  Beta virt. eigenvalues --   -0.42692  -0.32670  -0.31869  -0.27872  -0.26583
  Beta virt. eigenvalues --   -0.26225  -0.25366  -0.25261  -0.23128  -0.22471

 Mulliken charges and spin densities:
               1          2
     1  S    0.489112   0.658673
     2  S    0.489112   0.658673
     3  C    0.409939   0.584501
     4  H    0.305918   0.049076
     5  H    0.305918   0.049076
 Sum of Mulliken charges =   2.00000   2.00000

 Dipole moment (field-independent basis, Debye):
    X=              0.0000    Y=             -0.0000    Z=              1.7595  Tot=              1.7595
 Quadrupole moment (field-independent basis, Debye-Ang):
   XX=            -25.6077   YY=              6.1006   ZZ=            -22.3713
   XY=              0.0000   XZ=              0.0000   YZ=             -0.0000

  Exact polarizability:  25.872  -0.000  76.439  -0.000   0.000  31.384
 Approx polarizability:  41.442   0.000 153.492  -0.000  -0.000  53.315

                      1                      2                      3
                     A1                     B1                     A2
 Frequencies --    227.7168               346.3299               602.5481
 Red. masses --      8.3152                 1.7019                 1.0689
 Frc consts  --      0.2540                 0.1203                 0.2287
 IR Inten    --      3.5145                52.2132                 0.0000

                      4                      5                      6
                     A1                     B2                     A1
 Frequencies --    603.6301               821.3243               936.3881
 Red. masses --      8.1547                 1.9527                 1.1600
 Frc consts  --      1.7506                 0.7761                 0.5993
 IR Inten    --      1.1135                 0.1826                 2.7616

                      7                      8                      9
                     B2                     B2                     A1
 Frequencies --    976.9779              2379.4362              2392.4543
 Red. masses --      2.0374                 1.0392                 1.0403
 Frc consts  --      1.1458                 3.4664                 3.5082
 IR Inten    --    137.8955               306.5297               194.6800

 - Thermochemistry -
 -------------------
 Temperature   298.150 Kelvin.  Pressure   1.00000 Atm.
 Atom     1 has atomic number 16 and mass  31.97207

 Molecular mass:    77.95979 amu.
 Principal axes and moments of inertia in atomic units:
                           1         2         3
     Eigenvalues --    21.18550 577.48082 598.66632
           X            0.00000   0.00000   1.00000
           Y            1.00000   0.00000  -0.00000
           Z           -0.00000   1.00000  -0.00000
 This molecule is an asymmetric top.
 Rotational symmetry number  2.
 Rotational temperatures (Kelvin)      4.08835     0.14999     0.14468
 Rotational constants (GHZ):          85.18756     3.12520     3.01460
 Zero-point vibrational energy      55547.4 (Joules/Mol)
                                   13.27616 (Kcal/Mol)
 Warning -- explicit consideration of   4 degrees of freedom as
           vibrations may cause significant error
 Vibrational temperatures:    327.63   498.29   866.93   868.49  1181.70
          (Kelvin)           1347.25  1405.65  3423.47  3442.20

 Zero-point correction=                           0.021157 (Hartree/Particle)
 Thermal correction to Energy=                    0.025350
 Thermal correction to Enthalpy=                  0.026294
 Thermal correction to Gibbs Free Energy=        -0.005860
 Sum of electronic and zero-point Energies=           -834.767169
 Sum of electronic and thermal Energies=              -834.762976
 Sum of electronic and thermal Enthalpies=            -834.762032
 Sum of electronic and thermal Free Energies=         -834.794186

                     E (Thermal)             CV                S
                      KCal/Mol        Cal/Mol-Kelvin    Cal/Mol-Kelvin
 Total                   15.907             12.870             67.673
 Electronic               0.000              0.000              2.183
 Translational            0.889              2.981             38.976
 Rotational               0.889              2.981             22.131
 Vibrational             14.130              6.909              4.383
 Vibration     1          0.651              1.799              1.897
 Vibration     2          0.724              1.583              1.183
 Vibration     3          0.961              1.026              0.445
 Vibration     4          0.962              1.024              0.443

 Optimization completed.
    -- Stationary point found.
 Normal termination of Gaussian 09 at Wed Aug  3 23:08:57 2016.
