 Gaussian 09, Revision E.01,
 Gaussian 09:  EM64L-G09RevE.01 30-Nov-2015

 ------------------------------
 #p b3lyp/6-311++G(3df,2p) freq
 ------------------------------

 ---------
 b3lyp opt
 ---------
 Symbolic Z-matrix:
 Charge =  1 Multiplicity = 2

                         Standard orientation:
 ---------------------------------------------------------------------
 Center     Atomic      Atomic             Coordinates (Angstroms)
 Number     Number       Type             X           Y           Z
 ---------------------------------------------------------------------
      1         16           0       -0.000000   -1.041908   -0.226748
      2         16           0        0.000000    1.041908   -0.226748
      3          6           0        0.000000    0.000000    1.381330
      4          1           0        1.326130   -1.157126   -0.516020
      5          1           0       -1.326130    1.157126   -0.516020
 ---------------------------------------------------------------------

 SCF Done:  E(UB3LYP) =  -835.283452269     A.U. after   14 cycles

 The electronic state is 2-B.
 Alpha  occ. eigenvalues --  -89.19123 -89.19123 -10.49163  -8.27240  -8.27236
 Alpha  occ. eigenvalues --   -6.23588  -6.23565  -6.23133  -6.23132  -6.22872
 Alpha  occ. eigenvalues --   -6.22871  -1.14804  -0.96816  -0.84686  -0.72847
 Alpha  occ. eigenvalues --   -0.69381  -0.62080  -0.58903  -0.53425  -0.47045
 Alpha virt. eigenvalues --   -0.34378  -0.25957  -0.25052  -0.23039  -0.20922
 Alpha virt. eigenvalues --   -0.13129  -0.11019  -0.10769  -0.10408  -0.07981
 Alpha virt. eigenvalues --   -0.07811  -0.07429  -0.07226  -0.04889  -0.04830

  Beta  occ. eigenvalues --  -89.19136 -89.19136 -10.47823  -8.27245  -8.27241
  Beta  occ. eigenvalues --   -6.23584  -6.23562  -6.23160  -6.23158  -6.22890
  Beta  occ. eigenvalues --   -6.22888  -1.14121  -0.96600  -0.81927  -0.71927
  Beta  occ. eigenvalues --   -0.68738  -0.61550  -0.58234  -0.51621
  Beta virt. eigenvalues --   -0.34464  -0.32437  -0.25258  -0.24413  -0.22026
  Beta virt. eigenvalues --   -0.19749  -0.12995  -0.10925  -0.10725  -0.10297
  Beta virt. eigenvalues --   -0.07775  -0.07505  -0.07279  -0.06796  -0.04734

 Mulliken charges and spin densities:
               1          2
     1  S    0.264677   0.008466
     2  S    0.264677   0.008466
     3  C    0.025877   0.897970
     4  H    0.222385   0.042549
     5  H    0.222385   0.042549
 Sum of Mulliken charges =   1.00000   1.00000

 Dipole moment (field-independent basis, Debye):
    X=              0.0000    Y=             -0.0000    Z=             -2.1783  Tot=              2.1783
 Quadrupole moment (field-independent basis, Debye-Ang):
   XX=            -25.3471   YY=            -20.0931   ZZ=            -31.0395
   XY=             -3.6740   XZ=             -0.0000   YZ=              0.0000

  Exact polarizability:  36.952  -3.999  53.523   0.000  -0.000  48.484
 Approx polarizability:  61.901  -7.298 114.113  -0.000   0.000  97.603

                      1                      2                      3
                      B                      A                      A
 Frequencies --    338.4660               488.0120               545.3341
 Red. masses --     14.5970                13.9765                 3.8727
 Frc consts  --      0.9852                 1.9612                 0.6786
 IR Inten    --      6.2904                11.4240                35.1448

                      4                      5                      6
                      B                      A                      B
 Frequencies --    564.7654               628.0260               837.0738
 Red. masses --      1.1699                 1.3359                 1.0487
 Frc consts  --      0.2198                 0.3104                 0.4329
 IR Inten    --     11.2850                 0.0589                11.5653

                      7                      8                      9
                      A                      B                      A
 Frequencies --    915.2948              2529.7658              2533.6261
 Red. masses --      1.0642                 1.0392                 1.0404
 Frc consts  --      0.5253                 3.9186                 3.9351
 IR Inten    --      0.2152                79.4734                 3.4371

 - Thermochemistry -
 -------------------
 Temperature   298.150 Kelvin.  Pressure   1.00000 Atm.
 Atom     1 has atomic number 16 and mass  31.97207

 Molecular mass:    77.95979 amu.
 Principal axes and moments of inertia in atomic units:
                           1         2         3
     Eigenvalues --   107.53547 270.18518 353.39793
           X           -0.04497   0.00000   0.99899
           Y            0.99899   0.00000   0.04497
           Z           -0.00000   1.00000  -0.00000
 This molecule is an asymmetric top.
 Rotational symmetry number  2.
 Rotational temperatures (Kelvin)      0.80544     0.32057     0.24509
 Rotational constants (GHZ):          16.78275     6.67965     5.10682
 Zero-point vibrational energy      56107.0 (Joules/Mol)
                                   13.40990 (Kcal/Mol)
 Warning -- explicit consideration of   4 degrees of freedom as
           vibrations may cause significant error
 Vibrational temperatures:    486.98   702.14   784.61   812.57   903.59
          (Kelvin)           1204.36  1316.90  3639.76  3645.32

 Zero-point correction=                           0.021370 (Hartree/Particle)
 Thermal correction to Energy=                    0.025448
 Thermal correction to Enthalpy=                  0.026392
 Thermal correction to Gibbs Free Energy=        -0.005210
 Sum of electronic and zero-point Energies=           -835.262082
 Sum of electronic and thermal Energies=              -835.258005
 Sum of electronic and thermal Enthalpies=            -835.257060
 Sum of electronic and thermal Free Energies=         -835.288662

                     E (Thermal)             CV                S
                      KCal/Mol        Cal/Mol-Kelvin    Cal/Mol-Kelvin
 Total                   15.969             13.141             66.511
 Electronic               0.000              0.000              1.377
 Translational            0.889              2.981             38.976
 Rotational               0.889              2.981             22.467
 Vibrational             14.191              7.180              3.691
 Vibration     1          0.719              1.599              1.219
 Vibration     2          0.844              1.277              0.689
 Vibration     3          0.900              1.150              0.554
 Vibration     4          0.921              1.107              0.514

 Optimization completed.
    -- Stationary point found.
 Normal termination of Gaussian 09 at Wed Aug  3 23:07:23 2016.
