 Gaussian 09, Revision E.01,
 Gaussian 09:  EM64L-G09RevE.01 30-Nov-2015

 ------------------------------
 #p b3lyp/6-311++G(3df,2p) freq
 ------------------------------

 ---------
 b3lyp opt
 ---------
 Symbolic Z-matrix:
 Charge =  0 Multiplicity = 1

                         Standard orientation:
 ---------------------------------------------------------------------
 Center     Atomic      Atomic             Coordinates (Angstroms)
 Number     Number       Type             X           Y           Z
 ---------------------------------------------------------------------
      1         16           0       -1.472512   -0.043198    0.000000
      2         16           0        1.406137   -0.192281   -0.000000
      3          6           0        0.000000    0.725635   -0.000000
      4          1           0        2.304053    0.814078   -0.000000
      5          1           0       -1.242065   -1.400224    0.000000
 ---------------------------------------------------------------------

 SCF Done:  E(RB3LYP) =  -835.693619372     A.U. after   11 cycles

 The electronic state is 1-A'.
 Alpha  occ. eigenvalues --  -88.89359 -88.89208 -10.23421  -7.97912  -7.97694
 Alpha  occ. eigenvalues --   -5.94144  -5.94011  -5.93821  -5.93610  -5.93513
 Alpha  occ. eigenvalues --   -5.93397  -0.85232  -0.76318  -0.57513  -0.48113
 Alpha  occ. eigenvalues --   -0.41200  -0.36615  -0.36093  -0.28321  -0.24100
 Alpha virt. eigenvalues --   -0.08141  -0.02833  -0.00839   0.00275   0.02824
 Alpha virt. eigenvalues --    0.03688   0.04436   0.05554   0.06719   0.06968
 Alpha virt. eigenvalues --    0.08631   0.09599   0.10279   0.10504   0.11715

 Mulliken charges:
               1
     1  S   -0.034160
     2  S   -0.074499
     3  C   -0.123010
     4  H    0.176098
     5  H    0.055571
 Sum of Mulliken charges =  -0.00000

 Dipole moment (field-independent basis, Debye):
    X=              0.8075    Y=             -1.4795    Z=             -0.0000  Tot=              1.6856
 Quadrupole moment (field-independent basis, Debye-Ang):
   XX=            -28.6379   YY=            -34.1890   ZZ=            -34.2148
   XY=              2.8740   XZ=              0.0000   YZ=             -0.0000

  Exact polarizability:  82.574   3.481  53.070   0.007   0.003  39.788
 Approx polarizability: 143.072   7.194  91.342  -0.000  -0.000  63.324

                      1                      2                      3
                     A'                     A"                     A"
 Frequencies --    264.9483               518.1334               564.7474
 Red. masses --      5.8356                 1.0905                 1.3500
 Frc consts  --      0.2414                 0.1725                 0.2537
 IR Inten    --      3.0090                19.8568                 1.5178

                      4                      5                      6
                     A'                     A'                     A'
 Frequencies --    641.8322               925.7526               985.0116
 Red. masses --     10.1086                 1.8091                 1.2726
 Frc consts  --      2.4535                 0.9135                 0.7275
 IR Inten    --      6.6005                52.8870                 3.3933

                      7                      8                      9
                     A'                     A'                     A'
 Frequencies --   1074.2491              2383.3559              2614.0559
 Red. masses --      1.9816                 1.0393                 1.0397
 Frc consts  --      1.3474                 3.4783                 4.1859
 IR Inten    --     43.7445                95.4041                 1.8611

 - Thermochemistry -
 -------------------
 Temperature   298.150 Kelvin.  Pressure   1.00000 Atm.
 Atom     1 has atomic number 16 and mass  31.97207

 Molecular mass:    77.95979 amu.
 Principal axes and moments of inertia in atomic units:
                           1         2         3
     Eigenvalues --    36.18194 498.16060 534.34254
           X            0.99974   0.02288   0.00000
           Y           -0.02288   0.99974   0.00000
           Z            0.00000  -0.00000   1.00000
 This molecule is an asymmetric top.
 Rotational symmetry number  1.
 Rotational temperatures (Kelvin)      2.39384     0.17387     0.16209
 Rotational constants (GHZ):          49.87961     3.62281     3.37750
 Zero-point vibrational energy      59646.3 (Joules/Mol)
                                   14.25581 (Kcal/Mol)
 Warning -- explicit consideration of   3 degrees of freedom as
           vibrations may cause significant error
 Vibrational temperatures:    381.20   745.48   812.54   923.45  1331.95
          (Kelvin)           1417.21  1545.60  3429.11  3761.04

 Zero-point correction=                           0.022718 (Hartree/Particle)
 Thermal correction to Energy=                    0.026662
 Thermal correction to Enthalpy=                  0.027606
 Thermal correction to Gibbs Free Energy=        -0.003844
 Sum of electronic and zero-point Energies=           -835.670901
 Sum of electronic and thermal Energies=              -835.666957
 Sum of electronic and thermal Enthalpies=            -835.666013
 Sum of electronic and thermal Free Energies=         -835.697463

                     E (Thermal)             CV                S
                      KCal/Mol        Cal/Mol-Kelvin    Cal/Mol-Kelvin
 Total                   16.731             12.127             66.192
 Electronic               0.000              0.000              0.000
 Translational            0.889              2.981             38.976
 Rotational               0.889              2.981             23.781
 Vibrational             14.953              6.165              3.436
 Vibration     1          0.671              1.737              1.629
 Vibration     2          0.873              1.210              0.614
 Vibration     3          0.921              1.108              0.514

 Optimization completed.
    -- Stationary point found.
 Normal termination of Gaussian 09 at Wed Aug  3 23:04:54 2016.
