 Gaussian 09, Revision E.01,
 Gaussian 09:  EM64L-G09RevE.01 30-Nov-2015

 ------------------------------
 #p b3lyp/6-311++G(3df,2p) freq
 ------------------------------

 ---------
 b3lyp opt
 ---------
 Symbolic Z-matrix:
 Charge =  1 Multiplicity = 4

                         Standard orientation:
 ---------------------------------------------------------------------
 Center     Atomic      Atomic             Coordinates (Angstroms)
 Number     Number       Type             X           Y           Z
 ---------------------------------------------------------------------
      1         16           0        0.018979   -0.642767    0.000000
      2          6           0        0.018979    1.168321   -0.000000
      3          1           0       -0.208764    1.637171    0.954166
      4          1           0       -0.208764    1.637171   -0.954166
 ---------------------------------------------------------------------

 SCF Done:  E(UB3LYP) =  -437.056983790     A.U. after   13 cycles

 The electronic state is 4-A".
 Alpha  occ. eigenvalues --  -89.25724 -10.49011  -8.33406  -6.30145  -6.30056
 Alpha  occ. eigenvalues --   -6.28928  -1.11011  -0.91613  -0.73004  -0.68780
 Alpha  occ. eigenvalues --   -0.66472  -0.61454  -0.49877
 Alpha virt. eigenvalues --   -0.26109  -0.17594  -0.13183  -0.12391  -0.11089
 Alpha virt. eigenvalues --   -0.10293  -0.09548  -0.08586  -0.07699  -0.06851
 Alpha virt. eigenvalues --   -0.06222  -0.03122  -0.01067  -0.00815  -0.00229

  Beta  occ. eigenvalues --  -89.24421 -10.47436  -8.32216  -6.28239  -6.27692
  Beta  occ. eigenvalues --   -6.27657  -1.03460  -0.85512  -0.69974  -0.65951
  Beta virt. eigenvalues --   -0.49239  -0.46260  -0.31939  -0.22380  -0.16911
  Beta virt. eigenvalues --   -0.12598  -0.11339  -0.10058  -0.08844  -0.07091
  Beta virt. eigenvalues --   -0.07060  -0.06637  -0.04693  -0.03072  -0.01334

 Mulliken charges and spin densities:
               1          2
     1  S    0.653562   1.978046
     2  C   -0.101343   0.987519
     3  H    0.223890   0.017218
     4  H    0.223890   0.017218
 Sum of Mulliken charges =   1.00000   3.00000

 Dipole moment (field-independent basis, Debye):
    X=             -0.2914    Y=              0.4591    Z=             -0.0000  Tot=              0.5437
 Quadrupole moment (field-independent basis, Debye-Ang):
   XX=            -16.6379   YY=            -10.8162   ZZ=            -14.4866
   XY=             -0.8801   XZ=             -0.0000   YZ=             -0.0000

  Exact polarizability:  19.172  -0.557  33.436  -0.000   0.000  21.039
 Approx polarizability:  26.943  -0.920  48.347  -0.000  -0.000  30.052

                      1                      2                      3
                     A'                     A'                     A"
 Frequencies --    417.2359               687.3333               783.4876
 Red. masses --      1.2596                 8.6675                 1.1506
 Frc consts  --      0.1292                 2.4126                 0.4161
 IR Inten    --     41.6800                 2.4048                 0.1500

                      4                      5                      6
                     A'                     A'                     A"
 Frequencies --   1298.5211              3060.3327              3202.8084
 Red. masses --      1.0669                 1.0395                 1.1227
 Frc consts  --      1.0599                 5.7361                 6.7852
 IR Inten    --      5.3981                94.0508                57.6376

 - Thermochemistry -
 -------------------
 Temperature   298.150 Kelvin.  Pressure   1.00000 Atm.
 Atom     1 has atomic number 16 and mass  31.97207

 Molecular mass:    45.98772 amu.
 Principal axes and moments of inertia in atomic units:
                           1         2         3
     Eigenvalues --     6.84703 124.50350 130.76309
           X           -0.02259  -0.00000   0.99974
           Y            0.99974   0.00000   0.02259
           Z           -0.00000   1.00000   0.00000
 This molecule is an asymmetric top.
 Rotational symmetry number  1.
 Rotational temperatures (Kelvin)     12.64983     0.69567     0.66237
 Rotational constants (GHZ):         263.57997    14.49551    13.80161
 Zero-point vibrational energy      56521.9 (Joules/Mol)
                                   13.50905 (Kcal/Mol)
 Warning -- explicit consideration of   1 degrees of freedom as
           vibrations may cause significant error
 Vibrational temperatures:    600.31   988.92  1127.26  1868.28  4403.13
          (Kelvin)           4608.12

 Zero-point correction=                           0.021528 (Hartree/Particle)
 Thermal correction to Energy=                    0.024866
 Thermal correction to Enthalpy=                  0.025810
 Thermal correction to Gibbs Free Energy=        -0.003163
 Sum of electronic and zero-point Energies=           -437.035456
 Sum of electronic and thermal Energies=              -437.032118
 Sum of electronic and thermal Enthalpies=            -437.031174
 Sum of electronic and thermal Free Energies=         -437.060147

                     E (Thermal)             CV                S
                      KCal/Mol        Cal/Mol-Kelvin    Cal/Mol-Kelvin
 Total                   15.604              9.075             60.979
 Electronic               0.000              0.000              2.755
 Translational            0.889              2.981             37.403
 Rotational               0.889              2.981             19.350
 Vibrational             13.826              3.114              1.472
 Vibration     1          0.780              1.433              0.901

 Optimization completed.
    -- Stationary point found.
 Normal termination of Gaussian 09 at Wed Aug  3 22:47:43 2016.
