 Gaussian 09, Revision E.01,
 Gaussian 09:  EM64L-G09RevE.01 30-Nov-2015

 ------------------------------
 #p b3lyp/6-311++G(3df,2p) freq
 ------------------------------

 ---------
 b3lyp opt
 ---------
 Symbolic Z-matrix:
 Charge =  0 Multiplicity = 3

                         Standard orientation:
 ---------------------------------------------------------------------
 Center     Atomic      Atomic             Coordinates (Angstroms)
 Number     Number       Type             X           Y           Z
 ---------------------------------------------------------------------
      1         16           0       -0.000000    1.546699   -0.133811
      2         16           0        0.000000   -1.546699   -0.133811
      3          6           0        0.000000   -0.000000    0.555261
      4          1           0       -1.095726    2.053395    0.475191
      5          1           0        1.095726   -2.053395    0.475191
 ---------------------------------------------------------------------

 SCF Done:  E(UB3LYP) =  -835.650834453     A.U. after   13 cycles

 The electronic state is 3-B.
 Alpha  occ. eigenvalues --  -88.88645 -88.88645 -10.23745  -7.97096  -7.97095
 Alpha  occ. eigenvalues --   -5.93385  -5.93385  -5.93091  -5.93091  -5.92783
 Alpha  occ. eigenvalues --   -5.92783  -0.84236  -0.76880  -0.58381  -0.47072
 Alpha  occ. eigenvalues --   -0.42725  -0.40254  -0.34287  -0.31837  -0.21992
 Alpha  occ. eigenvalues --   -0.20411
 Alpha virt. eigenvalues --   -0.02606  -0.00342  -0.00307   0.01929   0.04067
 Alpha virt. eigenvalues --    0.04159   0.05244   0.06405   0.07311   0.08779
 Alpha virt. eigenvalues --    0.09181   0.09633   0.10932   0.11742   0.11958

  Beta  occ. eigenvalues --  -88.88490 -88.88490 -10.21417  -7.96946  -7.96944
  Beta  occ. eigenvalues --   -5.93258  -5.93258  -5.92928  -5.92928  -5.92397
  Beta  occ. eigenvalues --   -5.92397  -0.81744  -0.75748  -0.54830  -0.45377
  Beta  occ. eigenvalues --   -0.39781  -0.38021  -0.31059  -0.28818
  Beta virt. eigenvalues --   -0.09720  -0.08417  -0.02280   0.00176   0.00796
  Beta virt. eigenvalues --    0.02555   0.04185   0.04308   0.05598   0.06522
  Beta virt. eigenvalues --    0.07968   0.09064   0.09503   0.10352   0.11133

 Mulliken charges and spin densities:
               1          2
     1  S   -0.100596   0.261456
     2  S   -0.100596   0.261456
     3  C   -0.071777   1.384318
     4  H    0.136485   0.046386
     5  H    0.136485   0.046386
 Sum of Mulliken charges =  -0.00000   2.00000

 Dipole moment (field-independent basis, Debye):
    X=             -0.0000    Y=              0.0000    Z=              0.1746  Tot=              0.1746
 Quadrupole moment (field-independent basis, Debye-Ang):
   XX=            -31.6109   YY=            -29.5740   ZZ=            -34.7524
   XY=             -4.0935   XZ=             -0.0000   YZ=              0.0000

  Exact polarizability:  44.725  -5.803  87.022   0.000   0.000  46.157
 Approx polarizability:  70.927 -10.126 129.886   0.000   0.000  73.390

                      1                      2                      3
                      B                      A                      A
 Frequencies --     84.0613               263.2143               367.4858
 Red. masses --      1.4561                16.1812                 1.0596
 Frc consts  --      0.0061                 0.6605                 0.0843
 IR Inten    --     13.1619                 1.3079                19.1564

                      4                      5                      6
                      A                      B                      A
 Frequencies --    596.1830               842.1148               947.5421
 Red. masses --      9.8663                 1.4182                 1.0809
 Frc consts  --      2.0662                 0.5926                 0.5718
 IR Inten    --      0.6806                 6.4796                 0.5085

                      7                      8                      9
                      B                      B                      A
 Frequencies --   1094.1096              2572.0133              2574.4713
 Red. masses --      3.6082                 1.0404                 1.0391
 Frc consts  --      2.5449                 4.0552                 4.0578
 IR Inten    --     32.5385                11.7882                 0.2413

 - Thermochemistry -
 -------------------
 Temperature   298.150 Kelvin.  Pressure   1.00000 Atm.
 Atom     1 has atomic number 16 and mass  31.97207

 Molecular mass:    77.95979 amu.
 Principal axes and moments of inertia in atomic units:
                           1         2         3
     Eigenvalues --    27.06673 585.26535 595.97080
           X           -0.02848  -0.00000   0.99959
           Y            0.99959   0.00000   0.02848
           Z           -0.00000   1.00000   0.00000
 This molecule is an asymmetric top.
 Rotational symmetry number  2.
 Rotational temperatures (Kelvin)      3.20001     0.14799     0.14533
 Rotational constants (GHZ):          66.67748     3.08363     3.02824
 Zero-point vibrational energy      55872.8 (Joules/Mol)
                                   13.35391 (Kcal/Mol)
 Warning -- explicit consideration of   4 degrees of freedom as
           vibrations may cause significant error
 Vibrational temperatures:    120.95   378.71   528.73   857.77  1211.61
          (Kelvin)           1363.30  1574.18  3700.55  3704.09

 Zero-point correction=                           0.021281 (Hartree/Particle)
 Thermal correction to Energy=                    0.025989
 Thermal correction to Enthalpy=                  0.026934
 Thermal correction to Gibbs Free Energy=        -0.006743
 Sum of electronic and zero-point Energies=           -835.629554
 Sum of electronic and thermal Energies=              -835.624845
 Sum of electronic and thermal Enthalpies=            -835.623901
 Sum of electronic and thermal Free Energies=         -835.657577

                     E (Thermal)             CV                S
                      KCal/Mol        Cal/Mol-Kelvin    Cal/Mol-Kelvin
 Total                   16.309             13.551             70.878
 Electronic               0.000              0.000              2.183
 Translational            0.889              2.981             38.976
 Rotational               0.889              2.981             22.383
 Vibrational             14.531              7.589              7.336
 Vibration     1          0.601              1.960              3.794
 Vibration     2          0.670              1.740              1.640
 Vibration     3          0.740              1.539              1.090
 Vibration     4          0.954              1.040              0.456

 Normal termination of Gaussian 09 at Wed Aug  3 23:07:14 2016.
