 Gaussian 09, Revision E.01,
 Gaussian 09:  EM64L-G09RevE.01 30-Nov-2015

 ------------------------------
 #p b3lyp/6-311++G(3df,2p) freq
 ------------------------------

 ---------
 b3lyp opt
 ---------
 Symbolic Z-matrix:
 Charge =  0 Multiplicity = 1

                         Standard orientation:
 ---------------------------------------------------------------------
 Center     Atomic      Atomic             Coordinates (Angstroms)
 Number     Number       Type             X           Y           Z
 ---------------------------------------------------------------------
      1         16           0       -0.000000    1.471540   -0.043851
      2         16           0       -0.000000   -1.471540   -0.043851
      3          6           0        0.000000   -0.000000    0.699361
      4          1           0       -0.000000    1.200606   -1.396468
      5          1           0       -0.000000   -1.200606   -1.396468
 ---------------------------------------------------------------------

 SCF Done:  E(RB3LYP) =  -835.694723315     A.U. after   11 cycles

 The electronic state is 1-A1.
 Alpha  occ. eigenvalues --  -88.89669 -88.89669 -10.23415  -7.98158  -7.98155
 Alpha  occ. eigenvalues --   -5.94489  -5.94489  -5.93973  -5.93973  -5.93850
 Alpha  occ. eigenvalues --   -5.93850  -0.85639  -0.76584  -0.57899  -0.48813
 Alpha  occ. eigenvalues --   -0.42582  -0.37073  -0.34207  -0.28652  -0.24954
 Alpha virt. eigenvalues --   -0.08209  -0.02796  -0.00588  -0.00409   0.02482
 Alpha virt. eigenvalues --    0.04188   0.04254   0.05446   0.05549   0.06992
 Alpha virt. eigenvalues --    0.08651   0.09076   0.10845   0.10893   0.12466

 Mulliken charges:
               1
     1  S    0.032669
     2  S    0.032669
     3  C   -0.171181
     4  H    0.052921
     5  H    0.052921
 Sum of Mulliken charges =  -0.00000

 Dipole moment (field-independent basis, Debye):
    X=             -0.0000    Y=              0.0000    Z=             -2.5571  Tot=              2.5571
 Quadrupole moment (field-independent basis, Debye-Ang):
   XX=            -34.0311   YY=            -31.6927   ZZ=            -33.1835
   XY=             -0.0000   XZ=             -0.0000   YZ=              0.0000

  Exact polarizability:  39.251  -0.000  79.174  -0.000   0.000  56.905
 Approx polarizability:  63.174   0.000 137.252   0.000   0.000 101.861

                      1                      2                      3
                     A1                     B1                     A2
 Frequencies --    273.8193               536.8701               601.5465
 Red. masses --      4.0771                 1.7268                 1.0283
 Frc consts  --      0.1801                 0.2933                 0.2192
 IR Inten    --      0.4013                 2.4371                 0.0000

                      4                      5                      6
                     A1                     B2                     A1
 Frequencies --    644.4327               937.2653               993.2967
 Red. masses --     14.6249                 1.1922                 1.2696
 Frc consts  --      3.5785                 0.6170                 0.7380
 IR Inten    --     16.3493                11.6738                30.6342

                      7                      8                      9
                     B2                     A1                     B2
 Frequencies --   1077.5860              2352.5215              2363.6979
 Red. masses --      5.2481                 1.0364                 1.0427
 Frc consts  --      3.5905                 3.3794                 3.4324
 IR Inten    --     94.3886               156.1709                26.2875

 - Thermochemistry -
 -------------------
 Temperature   298.150 Kelvin.  Pressure   1.00000 Atm.
 Atom     1 has atomic number 16 and mass  31.97207

 Molecular mass:    77.95979 amu.
 Principal axes and moments of inertia in atomic units:
                           1         2         3
     Eigenvalues --    35.08330 504.84878 539.93207
           X            0.00000   0.00000   1.00000
           Y            1.00000  -0.00000  -0.00000
           Z            0.00000   1.00000  -0.00000
 This molecule is an asymmetric top.
 Rotational symmetry number  2.
 Rotational temperatures (Kelvin)      2.46880     0.17156     0.16042
 Rotational constants (GHZ):          51.44161     3.57482     3.34253
 Zero-point vibrational energy      58503.6 (Joules/Mol)
                                   13.98269 (Kcal/Mol)
 Warning -- explicit consideration of   3 degrees of freedom as
           vibrations may cause significant error
 Vibrational temperatures:    393.96   772.44   865.49   927.19  1348.51
          (Kelvin)           1429.13  1550.40  3384.75  3400.83

 Zero-point correction=                           0.022283 (Hartree/Particle)
 Thermal correction to Energy=                    0.026176
 Thermal correction to Enthalpy=                  0.027120
 Thermal correction to Gibbs Free Energy=        -0.003587
 Sum of electronic and zero-point Energies=           -835.672440
 Sum of electronic and thermal Energies=              -835.668547
 Sum of electronic and thermal Enthalpies=            -835.667603
 Sum of electronic and thermal Free Energies=         -835.698310

                     E (Thermal)             CV                S
                      KCal/Mol        Cal/Mol-Kelvin    Cal/Mol-Kelvin
 Total                   16.426             11.961             64.628
 Electronic               0.000              0.000              0.000
 Translational            0.889              2.981             38.976
 Rotational               0.889              2.981             22.396
 Vibrational             14.648              5.999              3.256
 Vibration     1          0.676              1.722              1.572
 Vibration     2          0.892              1.168              0.572
 Vibration     3          0.960              1.029              0.447

 Optimization completed.
    -- Stationary point found.
 Normal termination of Gaussian 09 at Wed Aug  3 23:04:32 2016.
