 Gaussian 09, Revision E.01,
 Gaussian 09:  EM64L-G09RevE.01 30-Nov-2015

 ------------------------------
 #p b3lyp/6-311++G(3df,2p) freq
 ------------------------------

 ---------
 b3lyp opt
 ---------
 Symbolic Z-matrix:
 Charge =  1 Multiplicity = 2

                         Standard orientation:
 ---------------------------------------------------------------------
 Center     Atomic      Atomic             Coordinates (Angstroms)
 Number     Number       Type             X           Y           Z
 ---------------------------------------------------------------------
      1         16           0        0.026700   -0.486590    0.000000
      2          6           0        0.026700    1.093457    0.000000
      3          1           0        0.741107    1.911035    0.000000
      4          1           0       -1.328504   -0.686331   -0.000000
 ---------------------------------------------------------------------

 SCF Done:  E(UB3LYP) =  -437.120747914     A.U. after   14 cycles

 The electronic state is 2-A'.
 Alpha  occ. eigenvalues --  -89.20299 -10.55806  -8.28651  -6.24770  -6.24521
 Alpha  occ. eigenvalues --   -6.24508  -1.13482  -0.90545  -0.75642  -0.71226
 Alpha  occ. eigenvalues --   -0.62893  -0.54991
 Alpha virt. eigenvalues --   -0.38310  -0.24804  -0.20728  -0.15421  -0.12786
 Alpha virt. eigenvalues --   -0.11287  -0.11216  -0.08747  -0.07325  -0.06651
 Alpha virt. eigenvalues --   -0.06194  -0.05247  -0.02842  -0.00902  -0.00031

  Beta  occ. eigenvalues --  -89.20321 -10.54188  -8.28663  -6.24787  -6.24655
  Beta  occ. eigenvalues --   -6.24422  -1.12113  -0.87908  -0.74325  -0.68357
  Beta  occ. eigenvalues --   -0.62470
  Beta virt. eigenvalues --   -0.39531  -0.36470  -0.23915  -0.19848  -0.15014
  Beta virt. eigenvalues --   -0.12435  -0.11174  -0.11009  -0.08356  -0.07242
  Beta virt. eigenvalues --   -0.05801  -0.05358  -0.05033  -0.02232  -0.00660

 Mulliken charges and spin densities:
               1          2
     1  S    0.418917  -0.002947
     2  C    0.067172   0.913901
     3  H    0.280305   0.003950
     4  H    0.233606   0.085096
 Sum of Mulliken charges =   1.00000   1.00000

 Dipole moment (field-independent basis, Debye):
    X=             -0.3756    Y=              0.8937    Z=             -0.0000  Tot=              0.9694
 Quadrupole moment (field-independent basis, Debye-Ang):
   XX=            -14.0251   YY=             -9.6625   ZZ=            -17.0065
   XY=              3.2138   XZ=             -0.0000   YZ=             -0.0000

  Exact polarizability:  22.559   2.894  33.905  -0.000   0.001  18.749
 Approx polarizability:  33.947   3.995  66.371   0.000   0.000  28.213

                      1                      2                      3
                     A'                     A"                     A'
 Frequencies --    663.1201               849.2893               936.0497
 Red. masses --      1.1403                 1.1342                 1.2877
 Frc consts  --      0.2954                 0.4820                 0.6648
 IR Inten    --     48.8973                49.6036                18.4576

                      4                      5                      6
                     A'                     A'                     A'
 Frequencies --   1115.2393              2473.0232              3197.2978
 Red. masses --      4.5855                 1.0396                 1.0995
 Frc consts  --      3.3603                 3.7460                 6.6223
 IR Inten    --     23.6435                55.5959               104.1003

 - Thermochemistry -
 -------------------
 Temperature   298.150 Kelvin.  Pressure   1.00000 Atm.
 Atom     1 has atomic number 16 and mass  31.97207

 Molecular mass:    45.98772 amu.
 Principal axes and moments of inertia in atomic units:
                           1         2         3
     Eigenvalues --     7.62654  93.78468 101.41122
           X            0.09562   0.99542   0.00000
           Y            0.99542  -0.09562   0.00000
           Z           -0.00000  -0.00000   1.00000
 This molecule is an asymmetric top.
 Rotational symmetry number  1.
 Rotational temperatures (Kelvin)     11.35690     0.92354     0.85409
 Rotational constants (GHZ):         236.63964    19.24345    17.79627
 Zero-point vibrational energy      55231.7 (Joules/Mol)
                                   13.20069 (Kcal/Mol)
 Vibrational temperatures:    954.08  1221.94  1346.77  1604.58  3558.12
          (Kelvin)           4600.19

 Zero-point correction=                           0.021037 (Hartree/Particle)
 Thermal correction to Energy=                    0.024134
 Thermal correction to Enthalpy=                  0.025078
 Thermal correction to Gibbs Free Energy=        -0.002673
 Sum of electronic and zero-point Energies=           -437.099711
 Sum of electronic and thermal Energies=              -437.096614
 Sum of electronic and thermal Enthalpies=            -437.095670
 Sum of electronic and thermal Free Energies=         -437.123421

                     E (Thermal)             CV                S
                      KCal/Mol        Cal/Mol-Kelvin    Cal/Mol-Kelvin
 Total                   15.144              8.158             58.406
 Electronic               0.000              0.000              1.377
 Translational            0.889              2.981             37.403
 Rotational               0.889              2.981             18.923
 Vibrational             13.367              2.196              0.703

 Optimization completed.
    -- Stationary point found.
 Normal termination of Gaussian 09 at Wed Aug  3 22:47:44 2016.
