 Gaussian 09, Revision E.01,
 Gaussian 09:  EM64L-G09RevE.01 30-Nov-2015

 ------------------------------
 #p b3lyp/6-311++G(3df,2p) freq
 ------------------------------

 ---------
 b3lyp opt
 ---------
 Symbolic Z-matrix:
 Charge =  1 Multiplicity = 2

                         Standard orientation:
 ---------------------------------------------------------------------
 Center     Atomic      Atomic             Coordinates (Angstroms)
 Number     Number       Type             X           Y           Z
 ---------------------------------------------------------------------
      1         16           0        0.000000   -0.000000    0.576314
      2          6           0       -0.000000    0.000000   -1.011160
      3          1           0        0.000000    0.936476   -1.577036
      4          1           0       -0.000000   -0.936476   -1.577036
 ---------------------------------------------------------------------

 SCF Done:  E(UB3LYP) =  -437.168897856     A.U. after   13 cycles

 The electronic state is 2-B2.
 Alpha  occ. eigenvalues --  -89.21210 -10.53096  -8.29370  -6.26157  -6.25209
 Alpha  occ. eigenvalues --   -6.25104  -1.12901  -0.90109  -0.76165  -0.70959
 Alpha  occ. eigenvalues --   -0.62815  -0.58232
 Alpha virt. eigenvalues --   -0.37722  -0.20678  -0.16118  -0.14716  -0.12703
 Alpha virt. eigenvalues --   -0.11184  -0.10464  -0.07230  -0.06902  -0.06887
 Alpha virt. eigenvalues --   -0.06810  -0.05199  -0.02273  -0.01056  -0.00124

  Beta  occ. eigenvalues --  -89.20547 -10.53235  -8.28765  -6.24744  -6.24720
  Beta  occ. eigenvalues --   -6.24192  -1.10818  -0.87905  -0.74179  -0.69526
  Beta  occ. eigenvalues --   -0.61913
  Beta virt. eigenvalues --   -0.44535  -0.37549  -0.19789  -0.15602  -0.14211
  Beta virt. eigenvalues --   -0.12458  -0.11203  -0.09659  -0.06661  -0.06456
  Beta virt. eigenvalues --   -0.05250  -0.05218  -0.04599  -0.02080  -0.01009

 Mulliken charges and spin densities:
               1          2
     1  S    0.550448   0.989174
     2  C   -0.011820  -0.097031
     3  H    0.230686   0.053928
     4  H    0.230686   0.053928
 Sum of Mulliken charges =   1.00000   1.00000

 Dipole moment (field-independent basis, Debye):
    X=             -0.0000    Y=             -0.0000    Z=             -1.6715  Tot=              1.6715
 Quadrupole moment (field-independent basis, Debye-Ang):
   XX=            -16.9187   YY=            -14.2998   ZZ=             -9.3659
   XY=              0.0000   XZ=             -0.0000   YZ=              0.0000

  Exact polarizability:  18.383  -0.000  20.337  -0.000   0.000  34.132
 Approx polarizability:  27.435   0.000  29.386   0.000   0.000  65.411

                      1                      2                      3
                     B2                     B1                     A1
 Frequencies --    775.8904              1007.0143              1070.5844
 Red. masses --      1.2140                 1.2935                 4.5579
 Frc consts  --      0.4306                 0.7728                 3.0779
 IR Inten    --      1.0645                48.2385                15.8815

                      4                      5                      6
                     A1                     A1                     B2
 Frequencies --   1372.0160              3018.6723              3115.6932
 Red. masses --      1.1907                 1.0495                 1.1150
 Frc consts  --      1.3206                 5.6344                 6.3773
 IR Inten    --     21.7070                82.2067                72.8582

 - Thermochemistry -
 -------------------
 Temperature   298.150 Kelvin.  Pressure   1.00000 Atm.
 Atom     1 has atomic number 16 and mass  31.97207

 Molecular mass:    45.98772 amu.
 Principal axes and moments of inertia in atomic units:
                           1         2         3
     Eigenvalues --     6.31257  98.88535 105.19792
           X            0.00000  -0.00000   1.00000
           Y           -0.00000   1.00000   0.00000
           Z            1.00000   0.00000  -0.00000
 This molecule is an asymmetric top.
 Rotational symmetry number  2.
 Rotational temperatures (Kelvin)     13.72085     0.87590     0.82334
 Rotational constants (GHZ):         285.89650    18.25085    17.15567
 Zero-point vibrational energy      61965.8 (Joules/Mol)
                                   14.81018 (Kcal/Mol)
 Vibrational temperatures:   1116.33  1448.87  1540.33  1974.02  4343.19
          (Kelvin)           4482.78

 Zero-point correction=                           0.023602 (Hartree/Particle)
 Thermal correction to Energy=                    0.026592
 Thermal correction to Enthalpy=                  0.027536
 Thermal correction to Gibbs Free Energy=         0.000626
 Sum of electronic and zero-point Energies=           -437.145296
 Sum of electronic and thermal Energies=              -437.142306
 Sum of electronic and thermal Enthalpies=            -437.141362
 Sum of electronic and thermal Free Energies=         -437.168271

                     E (Thermal)             CV                S
                      KCal/Mol        Cal/Mol-Kelvin    Cal/Mol-Kelvin
 Total                   16.687              7.445             56.636
 Electronic               0.000              0.000              1.377
 Translational            0.889              2.981             37.403
 Rotational               0.889              2.981             17.447
 Vibrational             14.909              1.484              0.409

 Optimization completed.
    -- Stationary point found.
 Normal termination of Gaussian 09 at Wed Aug  3 22:47:39 2016.
