 Gaussian 09, Revision E.01,
 Gaussian 09:  EM64L-G09RevE.01 30-Nov-2015

 ------------------------------
 #p b3lyp/6-311++G(3df,2p) freq
 ------------------------------

 ---------
 b3lyp opt
 ---------
 Symbolic Z-matrix:
 Charge =  2 Multiplicity = 1

                         Standard orientation:
 ---------------------------------------------------------------------
 Center     Atomic      Atomic             Coordinates (Angstroms)
 Number     Number       Type             X           Y           Z
 ---------------------------------------------------------------------
      1         16           0       -1.102610   -0.176850   -0.090491
      2         16           0        1.078203   -0.327314    0.007943
      3          6           0        0.244658    1.030678    0.007400
      4          1           0       -1.394880   -0.242950    1.255308
      5          1           0        0.317461    2.125509    0.021058
 ---------------------------------------------------------------------

 SCF Done:  E(RB3LYP) =  -834.839910206     A.U. after   12 cycles

 The electronic state is 1-A.
 Alpha  occ. eigenvalues --  -89.46612 -89.46036 -10.80181  -8.54408  -8.53797
 Alpha  occ. eigenvalues --   -6.50679  -6.50248  -6.50209  -6.50167  -6.49695
 Alpha  occ. eigenvalues --   -6.49442  -1.43860  -1.22924  -1.10893  -0.99870
 Alpha  occ. eigenvalues --   -0.94764  -0.90390  -0.85912  -0.82499
 Alpha virt. eigenvalues --   -0.61501  -0.61333  -0.50128  -0.44982  -0.41128
 Alpha virt. eigenvalues --   -0.35214  -0.32008  -0.30158  -0.29473  -0.27714
 Alpha virt. eigenvalues --   -0.26399  -0.25711  -0.23901  -0.23590  -0.22148

 Mulliken charges:
               1
     1  S    0.565112
     2  S    0.540815
     3  C    0.246935
     4  H    0.267150
     5  H    0.379988
 Sum of Mulliken charges =   2.00000

 Dipole moment (field-independent basis, Debye):
    X=             -0.3556    Y=              1.5089    Z=              1.1876  Tot=              1.9529
 Quadrupole moment (field-independent basis, Debye-Ang):
   XX=            -11.3834   YY=            -16.7966   ZZ=            -23.5491
   XY=              0.6581   XZ=             -2.0190   YZ=             -0.4188

  Exact polarizability:  48.316  -0.387  34.359  -1.381  -0.305  26.765
 Approx polarizability: 113.679  -9.263  69.574  -1.321  -0.416  44.989

                      1                      2                      3
                      A                      A                      A
 Frequencies --    430.6401               631.5099               713.6652
 Red. masses --     17.6036                 3.5486                 1.2421
 Frc consts  --      1.9234                 0.8338                 0.3727
 IR Inten    --      0.9365                12.0965                23.1193

                      4                      5                      6
                      A                      A                      A
 Frequencies --    834.0693               948.2878               982.1966
 Red. masses --      1.2688                 1.1053                 1.2377
 Frc consts  --      0.5200                 0.5856                 0.7035
 IR Inten    --     25.7374                21.5308                25.4706

                      7                      8                      9
                      A                      A                      A
 Frequencies --   1139.5057              2436.6077              3083.4947
 Red. masses --      5.3452                 1.0404                 1.1074
 Frc consts  --      4.0893                 3.6392                 6.2034
 IR Inten    --     14.8891               153.7241               255.1990

 - Thermochemistry -
 -------------------
 Temperature   298.150 Kelvin.  Pressure   1.00000 Atm.
 Atom     1 has atomic number 16 and mass  31.97207

 Molecular mass:    77.95979 amu.
 Principal axes and moments of inertia in atomic units:
                           1         2         3
     Eigenvalues --    83.98403 288.00730 359.20769
           X            0.99960   0.01670  -0.02281
           Y           -0.01699   0.99978  -0.01253
           Z            0.02259   0.01291   0.99966
 This molecule is an asymmetric top.
 Rotational symmetry number  1.
 Rotational temperatures (Kelvin)      1.03131     0.30073     0.24112
 Rotational constants (GHZ):          21.48910     6.26630     5.02423
 Zero-point vibrational energy      66990.7 (Joules/Mol)
                                   16.01117 (Kcal/Mol)
 Warning -- explicit consideration of   1 degrees of freedom as
           vibrations may cause significant error
 Vibrational temperatures:    619.59   908.60  1026.80  1200.04  1364.37
          (Kelvin)           1413.16  1639.49  3505.73  4436.46

 Zero-point correction=                           0.025515 (Hartree/Particle)
 Thermal correction to Energy=                    0.029054
 Thermal correction to Enthalpy=                  0.029999
 Thermal correction to Gibbs Free Energy=        -0.000719
 Sum of electronic and zero-point Energies=           -834.814395
 Sum of electronic and thermal Energies=              -834.810856
 Sum of electronic and thermal Enthalpies=            -834.809912
 Sum of electronic and thermal Free Energies=         -834.840629

                     E (Thermal)             CV                S
                      KCal/Mol        Cal/Mol-Kelvin    Cal/Mol-Kelvin
 Total                   18.232             10.815             64.650
 Electronic               0.000              0.000              0.000
 Translational            0.889              2.981             38.976
 Rotational               0.889              2.981             23.678
 Vibrational             16.454              4.853              1.996
 Vibration     1          0.792              1.404              0.857

 Optimization completed.
    -- Stationary point found.
 Normal termination of Gaussian 09 at Wed Aug  3 20:46:36 2016.
