 Gaussian 09, Revision E.01,
 Gaussian 09:  EM64L-G09RevE.01 30-Nov-2015

 ------------------------------
 #p b3lyp/6-311++G(3df,2p) freq
 ------------------------------

 ---------
 b3lyp opt
 ---------
 Symbolic Z-matrix:
 Charge =  1 Multiplicity = 4

                         Standard orientation:
 ---------------------------------------------------------------------
 Center     Atomic      Atomic             Coordinates (Angstroms)
 Number     Number       Type             X           Y           Z
 ---------------------------------------------------------------------
      1         16           0        0.066535   -0.135313    1.459662
      2         16           0        0.066535   -0.135313   -1.459662
      3          6           0        0.066535    0.750413   -0.000000
      4          1           0       -1.264166   -0.086238   -1.755992
      5          1           0       -1.264166   -0.086238    1.755992
 ---------------------------------------------------------------------

 SCF Done:  E(UB3LYP) =  -835.301421941     A.U. after   13 cycles

 The electronic state is 4-A".
 Alpha  occ. eigenvalues --  -89.16319 -89.16319 -10.48827  -8.24485  -8.24482
 Alpha  occ. eigenvalues --   -6.20862  -6.20861  -6.20585  -6.20585  -6.20231
 Alpha  occ. eigenvalues --   -6.20231  -1.10739  -1.02160  -0.83482  -0.70571
 Alpha  occ. eigenvalues --   -0.68520  -0.63560  -0.62356  -0.53649  -0.48103
 Alpha  occ. eigenvalues --   -0.47914
 Alpha virt. eigenvalues --   -0.22857  -0.20796  -0.20614  -0.16336  -0.13424
 Alpha virt. eigenvalues --   -0.10948  -0.10350  -0.09180  -0.08485  -0.07295
 Alpha virt. eigenvalues --   -0.05492  -0.05420  -0.04416  -0.04342  -0.03605

  Beta  occ. eigenvalues --  -89.15820 -89.15820 -10.46313  -8.24012  -8.24010
  Beta  occ. eigenvalues --   -6.20235  -6.20235  -6.19882  -6.19882  -6.19450
  Beta  occ. eigenvalues --   -6.19449  -1.06831  -0.98896  -0.78806  -0.68507
  Beta  occ. eigenvalues --   -0.64778  -0.59907  -0.55900
  Beta virt. eigenvalues --   -0.42444  -0.33644  -0.32923  -0.21326  -0.19447
  Beta virt. eigenvalues --   -0.17873  -0.14535  -0.12334  -0.10637  -0.09897
  Beta virt. eigenvalues --   -0.08278  -0.07156  -0.06988  -0.04604  -0.04404

 Mulliken charges and spin densities:
               1          2
     1  S    0.288503   0.739580
     2  S    0.288503   0.739580
     3  C    0.025326   1.382204
     4  H    0.198834   0.069318
     5  H    0.198834   0.069318
 Sum of Mulliken charges =   1.00000   3.00000

 Dipole moment (field-independent basis, Debye):
    X=             -1.9397    Y=             -0.6179    Z=             -0.0000  Tot=              2.0357
 Quadrupole moment (field-independent basis, Debye-Ang):
   XX=            -25.4944   YY=            -30.1125   ZZ=            -14.6720
   XY=              0.3041   XZ=             -0.0000   YZ=             -0.0000

  Exact polarizability:  37.104   0.844  36.997   0.000   0.000  84.216
 Approx polarizability:  61.258   2.021  62.559   0.000   0.000 154.999

                      1                      2                      3
                     A'                     A'                     A"
 Frequencies --    235.1846               340.9403               496.5698
 Red. masses --     10.8432                 1.2746                 1.0575
 Frc consts  --      0.3534                 0.0873                 0.1536
 IR Inten    --      0.4330                16.6143                 3.5634

                      4                      5                      6
                     A'                     A"                     A'
 Frequencies --    685.4199               835.2947               926.7029
 Red. masses --     15.2169                 1.3142                 1.1683
 Frc consts  --      4.2120                 0.5403                 0.5911
 IR Inten    --      0.1959                 0.3701                17.9817

                      7                      8                      9
                     A"                     A"                     A'
 Frequencies --    958.4014              2506.7026              2509.8215
 Red. masses --      3.9496                 1.0394                 1.0393
 Frc consts  --      2.1375                 3.8480                 3.8571
 IR Inten    --     74.1288                31.7094                36.2386

 - Thermochemistry -
 -------------------
 Temperature   298.150 Kelvin.  Pressure   1.00000 Atm.
 Atom     1 has atomic number 16 and mass  31.97207

 Molecular mass:    77.95979 amu.
 Principal axes and moments of inertia in atomic units:
                           1         2         3
     Eigenvalues --    40.78070 521.08909 537.12680
           X           -0.00000   0.05295   0.99860
           Y            0.00000   0.99860  -0.05295
           Z            1.00000  -0.00000   0.00000
 This molecule is an asymmetric top.
 Rotational symmetry number  1.
 Rotational temperatures (Kelvin)      2.12389     0.16622     0.16125
 Rotational constants (GHZ):          44.25478     3.46340     3.35999
 Zero-point vibrational energy      56792.9 (Joules/Mol)
                                   13.57384 (Kcal/Mol)
 Warning -- explicit consideration of   3 degrees of freedom as
           vibrations may cause significant error
 Vibrational temperatures:    338.38   490.54   714.45   986.17  1201.80
          (Kelvin)           1333.32  1378.92  3606.58  3611.07

 Zero-point correction=                           0.021631 (Hartree/Particle)
 Thermal correction to Energy=                    0.025849
 Thermal correction to Enthalpy=                  0.026793
 Thermal correction to Gibbs Free Energy=        -0.006530
 Sum of electronic and zero-point Energies=           -835.279791
 Sum of electronic and thermal Energies=              -835.275573
 Sum of electronic and thermal Enthalpies=            -835.274629
 Sum of electronic and thermal Free Energies=         -835.307952

                     E (Thermal)             CV                S
                      KCal/Mol        Cal/Mol-Kelvin    Cal/Mol-Kelvin
 Total                   16.221             12.944             70.134
 Electronic               0.000              0.000              2.755
 Translational            0.889              2.981             38.976
 Rotational               0.889              2.981             23.949
 Vibrational             14.443              6.983              4.454
 Vibration     1          0.655              1.787              1.839
 Vibration     2          0.720              1.594              1.208
 Vibration     3          0.852              1.258              0.667

 Normal termination of Gaussian 09 at Wed Aug  3 23:07:13 2016.
