 Gaussian 09, Revision E.01,
 Gaussian 09:  EM64L-G09RevE.01 30-Nov-2015

 ------------------------------
 #p b3lyp/6-311++G(3df,2p) freq
 ------------------------------

 ---------
 b3lyp opt
 ---------
 Symbolic Z-matrix:
 Charge =  2 Multiplicity = 1

                         Standard orientation:
 ---------------------------------------------------------------------
 Center     Atomic      Atomic             Coordinates (Angstroms)
 Number     Number       Type             X           Y           Z
 ---------------------------------------------------------------------
      1         16           0        0.066579   -0.243309    1.069443
      2         16           0        0.066579   -0.243309   -1.069443
      3          6           0        0.066579    1.318700    0.000000
      4          1           0       -1.265000   -0.063154   -1.405410
      5          1           0       -1.265000   -0.063154    1.405410
 ---------------------------------------------------------------------

 SCF Done:  E(RB3LYP) =  -834.719448365     A.U. after   12 cycles

 The electronic state is 1-A'.
 Alpha  occ. eigenvalues --  -89.46475 -89.46475 -10.83824  -8.54349  -8.54347
 Alpha  occ. eigenvalues --   -6.50677  -6.50660  -6.50219  -6.50218  -6.50066
 Alpha  occ. eigenvalues --   -6.50066  -1.41158  -1.23046  -1.09924  -0.99674
 Alpha  occ. eigenvalues --   -0.90247  -0.89913  -0.85562  -0.79530
 Alpha virt. eigenvalues --   -0.64379  -0.60859  -0.53066  -0.49196  -0.47938
 Alpha virt. eigenvalues --   -0.41092  -0.35895  -0.31597  -0.30230  -0.27525
 Alpha virt. eigenvalues --   -0.25734  -0.25170  -0.24024  -0.23532  -0.23293

 Mulliken charges:
               1
     1  S    0.474690
     2  S    0.474690
     3  C    0.436725
     4  H    0.306947
     5  H    0.306947
 Sum of Mulliken charges =   2.00000

 Dipole moment (field-independent basis, Debye):
    X=             -2.3209    Y=             -0.2518    Z=              0.0000  Tot=              2.3345
 Quadrupole moment (field-independent basis, Debye-Ang):
   XX=            -20.4337   YY=            -24.5108   ZZ=            -10.2865
   XY=              0.5039   XZ=             -0.0000   YZ=              0.0000

  Exact polarizability:  31.073   0.718  38.725   0.000  -0.000  50.481
 Approx polarizability:  56.358   1.111  85.210  -0.000  -0.000 114.563

                      1                      2                      3
                     A"                     A'                     A'
 Frequencies --    424.6010               446.7740               549.2343
 Red. masses --     14.4720                 6.5259                 2.0351
 Frc consts  --      1.5372                 0.7675                 0.3617
 IR Inten    --     31.8347                 2.3845                 2.8315

                      4                      5                      6
                     A"                     A'                     A'
 Frequencies --    560.5651               704.6807               775.1031
 Red. masses --      1.0468                 2.1080                 1.1882
 Frc consts  --      0.1938                 0.6167                 0.4206
 IR Inten    --      2.7051                62.7706                88.2681

                      7                      8                      9
                     A"                     A"                     A'
 Frequencies --    871.3382              2369.6399              2393.8950
 Red. masses --      1.1047                 1.0402                 1.0390
 Frc consts  --      0.4942                 3.4414                 3.5083
 IR Inten    --     13.4798               183.3056               307.8893

 - Thermochemistry -
 -------------------
 Temperature   298.150 Kelvin.  Pressure   1.00000 Atm.
 Atom     1 has atomic number 16 and mass  31.97207

 Molecular mass:    77.95979 amu.
 Principal axes and moments of inertia in atomic units:
                           1         2         3
     Eigenvalues --   100.49846 287.80918 363.45221
           X            0.00000   0.00823   0.99997
           Y            0.00000   0.99997  -0.00823
           Z            1.00000  -0.00000  -0.00000
 This molecule is an asymmetric top.
 Rotational symmetry number  1.
 Rotational temperatures (Kelvin)      0.86184     0.30094     0.23831
 Rotational constants (GHZ):          17.95790     6.27062     4.96555
 Zero-point vibrational energy      54405.2 (Joules/Mol)
                                   13.00314 (Kcal/Mol)
 Warning -- explicit consideration of   4 degrees of freedom as
           vibrations may cause significant error
 Vibrational temperatures:    610.91   642.81   790.22   806.53  1013.88
          (Kelvin)           1115.20  1253.66  3409.38  3444.28

 Zero-point correction=                           0.020722 (Hartree/Particle)
 Thermal correction to Energy=                    0.024737
 Thermal correction to Enthalpy=                  0.025682
 Thermal correction to Gibbs Free Energy=        -0.005810
 Sum of electronic and zero-point Energies=           -834.698727
 Sum of electronic and thermal Energies=              -834.694711
 Sum of electronic and thermal Enthalpies=            -834.693767
 Sum of electronic and thermal Free Energies=         -834.725259

                     E (Thermal)             CV                S
                      KCal/Mol        Cal/Mol-Kelvin    Cal/Mol-Kelvin
 Total                   15.523             13.063             66.280
 Electronic               0.000              0.000              0.000
 Translational            0.889              2.981             38.976
 Rotational               0.889              2.981             23.868
 Vibrational             13.745              7.101              3.437
 Vibration     1          0.787              1.417              0.876
 Vibration     2          0.806              1.368              0.806
 Vibration     3          0.904              1.141              0.546
 Vibration     4          0.916              1.117              0.523

 Optimization completed.
    -- Stationary point found.
 Normal termination of Gaussian 09 at Wed Aug  3 23:08:49 2016.
