 Gaussian 09, Revision E.01,
 Gaussian 09:  EM64L-G09RevE.01 30-Nov-2015

 ------------------------------
 #p b3lyp/6-311++G(3df,2p) freq
 ------------------------------

 ---------
 b3lyp opt
 ---------
 Symbolic Z-matrix:
 Charge =  2 Multiplicity = 3

                         Standard orientation:
 ---------------------------------------------------------------------
 Center     Atomic      Atomic             Coordinates (Angstroms)
 Number     Number       Type             X           Y           Z
 ---------------------------------------------------------------------
      1         16           0        1.429794   -0.235451   -0.000091
      2         16           0       -1.544156   -0.151709    0.000162
      3          6           0       -0.056614    0.602585   -0.000630
      4          1           0        2.236565    0.875065    0.002627
      5          1           0       -0.067084    1.703987    0.000017
 ---------------------------------------------------------------------

 SCF Done:  E(UB3LYP) =  -834.828637548     A.U. after   14 cycles

 The electronic state is 3-A.
 Alpha  occ. eigenvalues --  -89.45740 -89.43546 -10.76481  -8.53378  -8.51464
 Alpha  occ. eigenvalues --   -6.50050  -6.49755  -6.49063  -6.48066  -6.47555
 Alpha  occ. eigenvalues --   -6.47026  -1.36883  -1.28083  -1.08383  -0.99006
 Alpha  occ. eigenvalues --   -0.92029  -0.87669  -0.86207  -0.80587  -0.80312
 Alpha virt. eigenvalues --   -0.58303  -0.46357  -0.43565  -0.38640  -0.33275
 Alpha virt. eigenvalues --   -0.31845  -0.30183  -0.29546  -0.26265  -0.25745
 Alpha virt. eigenvalues --   -0.25191  -0.24383  -0.24335  -0.23303  -0.21013

  Beta  occ. eigenvalues --  -89.44671 -89.43064 -10.76938  -8.52405  -8.51020
  Beta  occ. eigenvalues --   -6.48468  -6.48076  -6.47786  -6.47191  -6.46737
  Beta  occ. eigenvalues --   -6.46673  -1.34751  -1.23663  -1.05971  -0.97807
  Beta  occ. eigenvalues --   -0.90172  -0.84687  -0.84264
  Beta virt. eigenvalues --   -0.68390  -0.65850  -0.56545  -0.45895  -0.41653
  Beta virt. eigenvalues --   -0.36796  -0.32508  -0.31345  -0.28660  -0.28257
  Beta virt. eigenvalues --   -0.25652  -0.24899  -0.23892  -0.22857  -0.22145

 Mulliken charges and spin densities:
               1          2
     1  S    0.483958   0.708159
     2  S    0.660181   1.555881
     3  C    0.279468  -0.290824
     4  H    0.289989  -0.012257
     5  H    0.286403   0.039041
 Sum of Mulliken charges =   2.00000   2.00000

 Dipole moment (field-independent basis, Debye):
    X=              0.8592    Y=              1.7100    Z=              0.0025  Tot=              1.9137
 Quadrupole moment (field-independent basis, Debye-Ang):
   XX=             -0.0485   YY=            -20.2634   ZZ=            -25.5948
   XY=              2.2530   XZ=              0.0063   YZ=              0.0027

  Exact polarizability:  65.894   1.842  32.030   0.006   0.002  25.400
 Approx polarizability: 124.001   2.968  53.803   0.007  -0.000  40.789

                      1                      2                      3
                      A                      A                      A
 Frequencies --    265.3275               390.5837               707.2953
 Red. masses --     12.0396                 1.1940                 5.7668
 Frc consts  --      0.4994                 0.1073                 1.6997
 IR Inten    --      0.6067                30.9946                 6.7080

                      4                      5                      6
                      A                      A                      A
 Frequencies --    737.6698               798.7874               988.3745
 Red. masses --      5.8670                 1.3375                 1.1731
 Frc consts  --      1.8810                 0.5028                 0.6752
 IR Inten    --     39.7068                20.3948                30.6874

                      7                      8                      9
                      A                      A                      A
 Frequencies --   1192.7319              2487.9853              2989.3196
 Red. masses --      1.1340                 1.0397                 1.0855
 Frc consts  --      0.9505                 3.7918                 5.7149
 IR Inten    --     17.5225               196.2623               147.7059

 - Thermochemistry -
 -------------------
 Temperature   298.150 Kelvin.  Pressure   1.00000 Atm.
 Atom     1 has atomic number 16 and mass  31.97207

 Molecular mass:    77.95979 amu.
 Principal axes and moments of inertia in atomic units:
                           1         2         3
     Eigenvalues --    37.33177 523.68642 561.01810
           X            0.99990   0.01392   0.00004
           Y           -0.01392   0.99990   0.00024
           Z           -0.00004  -0.00024   1.00000
 This molecule is an asymmetric top.
 Rotational symmetry number  1.
 Rotational temperatures (Kelvin)      2.32011     0.16539     0.15439
 Rotational constants (GHZ):          48.34331     3.44622     3.21690
 Zero-point vibrational energy      63151.3 (Joules/Mol)
                                   15.09353 (Kcal/Mol)
 Warning -- explicit consideration of   2 degrees of freedom as
           vibrations may cause significant error
 Vibrational temperatures:    381.75   561.96  1017.64  1061.34  1149.28
          (Kelvin)           1422.05  1716.07  3579.65  4300.96

 Zero-point correction=                           0.024053 (Hartree/Particle)
 Thermal correction to Energy=                    0.028012
 Thermal correction to Enthalpy=                  0.028957
 Thermal correction to Gibbs Free Energy=        -0.003640
 Sum of electronic and zero-point Energies=           -834.804584
 Sum of electronic and thermal Energies=              -834.800625
 Sum of electronic and thermal Enthalpies=            -834.799681
 Sum of electronic and thermal Free Energies=         -834.832277

                     E (Thermal)             CV                S
                      KCal/Mol        Cal/Mol-Kelvin    Cal/Mol-Kelvin
 Total                   17.578             12.017             68.604
 Electronic               0.000              0.000              2.183
 Translational            0.889              2.981             38.976
 Rotational               0.889              2.981             23.910
 Vibrational             15.801              6.056              3.536
 Vibration     1          0.671              1.737              1.626
 Vibration     2          0.758              1.490              0.998

 Optimization completed.
    -- Stationary point found.
 Normal termination of Gaussian 09 at Wed Aug  3 20:49:18 2016.
