 Gaussian 09, Revision E.01,
 Gaussian 09:  EM64L-G09RevE.01 30-Nov-2015

 ------------------------------
 #p b3lyp/6-311++G(3df,2p) freq
 ------------------------------

 ---------
 b3lyp opt
 ---------
 Symbolic Z-matrix:
 Charge =  1 Multiplicity = 2

                         Standard orientation:
 ---------------------------------------------------------------------
 Center     Atomic      Atomic             Coordinates (Angstroms)
 Number     Number       Type             X           Y           Z
 ---------------------------------------------------------------------
      1         16           0        1.597186   -0.046294   -0.000072
      2         16           0       -1.570129    0.133134   -0.000096
      3          6           0       -0.001078   -0.263085    0.000038
      4          1           0        1.647819    1.321337    0.001224
      5          1           0       -2.074265   -1.132267    0.001243
 ---------------------------------------------------------------------

 SCF Done:  E(UB3LYP) =  -835.391061899     A.U. after   14 cycles

 The electronic state is 2-A.
 Alpha  occ. eigenvalues --  -89.14355 -89.14281 -10.52259  -8.22746  -8.22664
 Alpha  occ. eigenvalues --   -6.19004  -6.18939  -6.18680  -6.18526  -6.18406
 Alpha  occ. eigenvalues --   -6.18329  -1.10735  -1.03040  -0.81815  -0.74116
 Alpha  occ. eigenvalues --   -0.66016  -0.62876  -0.61625  -0.51507  -0.49524
 Alpha virt. eigenvalues --   -0.32106  -0.23096  -0.21392  -0.18075  -0.14344
 Alpha virt. eigenvalues --   -0.13322  -0.10458  -0.09733  -0.08885  -0.07319
 Alpha virt. eigenvalues --   -0.06899  -0.06808  -0.05643  -0.04671  -0.02900

  Beta  occ. eigenvalues --  -89.14351 -89.14304 -10.50838  -8.22736  -8.22665
  Beta  occ. eigenvalues --   -6.19009  -6.18982  -6.18612  -6.18539  -6.18436
  Beta  occ. eigenvalues --   -6.18370  -1.09005  -1.02665  -0.79536  -0.72374
  Beta  occ. eigenvalues --   -0.63623  -0.61738  -0.60831  -0.51688
  Beta virt. eigenvalues --   -0.36357  -0.30777  -0.22415  -0.20306  -0.17263
  Beta virt. eigenvalues --   -0.13943  -0.13075  -0.10245  -0.09702  -0.08483
  Beta virt. eigenvalues --   -0.07065  -0.06878  -0.06588  -0.05418  -0.04266

 Mulliken charges and spin densities:
               1          2
     1  S    0.147487  -0.045106
     2  S    0.115362   0.027118
     3  C    0.312263   0.829700
     4  H    0.201224   0.111276
     5  H    0.223664   0.077012
 Sum of Mulliken charges =   1.00000   1.00000

 Dipole moment (field-independent basis, Debye):
    X=             -0.3618    Y=              0.2384    Z=              0.0019  Tot=              0.4333
 Quadrupole moment (field-independent basis, Debye-Ang):
   XX=            -12.6310   YY=            -25.2000   ZZ=            -30.2913
   XY=              4.3480   XZ=             -0.0009   YZ=              0.0000

  Exact polarizability:  79.128   3.443  37.075  -0.003   0.001  31.113
 Approx polarizability: 154.922   3.676  62.387  -0.002   0.002  49.003

                      1                      2                      3
                      A                      A                      A
 Frequencies --    154.9421               199.4043               385.2081
 Red. masses --      5.3135                 1.0707                 3.3577
 Frc consts  --      0.0752                 0.0251                 0.2936
 IR Inten    --      7.5487                49.2751                 6.1997

                      4                      5                      6
                      A                      A                      A
 Frequencies --    577.7413               910.8741               927.7685
 Red. masses --     20.0236                 1.0550                 1.2241
 Frc consts  --      3.9379                 0.5157                 0.6208
 IR Inten    --      0.1737                 8.4742                31.2282

                      7                      8                      9
                      A                      A                      A
 Frequencies --   1302.0917              2463.0574              2523.7131
 Red. masses --      8.4660                 1.0399                 1.0398
 Frc consts  --      8.4569                 3.7170                 3.9021
 IR Inten    --    187.5837                27.2891                50.2359

 - Thermochemistry -
 -------------------
 Temperature   298.150 Kelvin.  Pressure   1.00000 Atm.
 Atom     1 has atomic number 16 and mass  31.97207

 Molecular mass:    77.95979 amu.
 Principal axes and moments of inertia in atomic units:
                           1         2         3
     Eigenvalues --    15.69055 598.42302 614.11354
           X            0.99962   0.02747  -0.00000
           Y           -0.02747   0.99962   0.00005
           Z            0.00000  -0.00005   1.00000
 This molecule is an asymmetric top.
 Rotational symmetry number  1.
 Rotational temperatures (Kelvin)      5.52013     0.14474     0.14104
 Rotational constants (GHZ):         115.02091     3.01583     2.93877
 Zero-point vibrational energy      56492.5 (Joules/Mol)
                                   13.50202 (Kcal/Mol)
 Warning -- explicit consideration of   4 degrees of freedom as
           vibrations may cause significant error
 Vibrational temperatures:    222.93   286.90   554.23   831.24  1310.54
          (Kelvin)           1334.85  1873.42  3543.79  3631.06

 Zero-point correction=                           0.021517 (Hartree/Particle)
 Thermal correction to Energy=                    0.026154
 Thermal correction to Enthalpy=                  0.027098
 Thermal correction to Gibbs Free Energy=        -0.006241
 Sum of electronic and zero-point Energies=           -835.369545
 Sum of electronic and thermal Energies=              -835.364908
 Sum of electronic and thermal Enthalpies=            -835.363964
 Sum of electronic and thermal Free Energies=         -835.397303

                     E (Thermal)             CV                S
                      KCal/Mol        Cal/Mol-Kelvin    Cal/Mol-Kelvin
 Total                   16.412             13.380             70.168
 Electronic               0.000              0.000              1.377
 Translational            0.889              2.981             38.976
 Rotational               0.889              2.981             23.271
 Vibrational             14.635              7.418              6.544
 Vibration     1          0.620              1.897              2.611
 Vibration     2          0.638              1.841              2.139
 Vibration     3          0.754              1.502              1.019
 Vibration     4          0.934              1.079              0.490

 Optimization completed.
    -- Stationary point found.
 Normal termination of Gaussian 09 at Wed Aug  3 20:44:08 2016.
