 Gaussian 09, Revision E.01,
 Gaussian 09:  EM64L-G09RevE.01 30-Nov-2015

 ------------------------------
 #p b3lyp/6-311++G(3df,2p) freq
 ------------------------------

 ---------
 b3lyp opt
 ---------
 Symbolic Z-matrix:
 Charge =  2 Multiplicity = 1

                         Standard orientation:
 ---------------------------------------------------------------------
 Center     Atomic      Atomic             Coordinates (Angstroms)
 Number     Number       Type             X           Y           Z
 ---------------------------------------------------------------------
      1         16           0        0.059248   -0.512138    0.000000
      2          6           0        0.059248    1.023225    0.000000
      3          1           0        0.052867    2.140701    0.000000
      4          1           0       -1.356313   -0.085842   -0.000000
 ---------------------------------------------------------------------

 SCF Done:  E(RB3LYP) =  -436.480907347     A.U. after   11 cycles

 The electronic state is 1-A'.
 Alpha  occ. eigenvalues --  -89.55661 -10.93454  -8.63455  -6.59572  -6.59394
 Alpha  occ. eigenvalues --   -6.59334  -1.47689  -1.18487  -1.06155  -1.03667
 Alpha  occ. eigenvalues --   -0.94873
 Alpha virt. eigenvalues --   -0.71329  -0.68073  -0.59066  -0.48362  -0.37889
 Alpha virt. eigenvalues --   -0.35218  -0.35051  -0.31569  -0.29862  -0.28143
 Alpha virt. eigenvalues --   -0.26451  -0.23245  -0.22577  -0.21179  -0.19439

 Mulliken charges:
               1
     1  S    0.654861
     2  C    0.497210
     3  H    0.486233
     4  H    0.361696
 Sum of Mulliken charges =   2.00000

 Dipole moment (field-independent basis, Debye):
    X=             -1.3819    Y=              2.7369    Z=             -0.0000  Tot=              3.0660
 Quadrupole moment (field-independent basis, Debye-Ang):
   XX=             -9.8136   YY=             -0.9549   ZZ=            -14.7777
   XY=              0.3906   XZ=              0.0000   YZ=             -0.0000

  Exact polarizability:  18.274   0.604  27.310   0.000  -0.000  14.505
 Approx polarizability:  31.358   1.679  61.418   0.000   0.000  21.798

                      1                      2                      3
                     A'                     A"                     A'
 Frequencies --    143.9116               776.5809               915.1460
 Red. masses --      1.0683                 1.2502                 1.3010
 Frc consts  --      0.0130                 0.4442                 0.6420
 IR Inten    --      3.3797                59.6191                24.9176

                      4                      5                      6
                     A'                     A'                     A'
 Frequencies --   1258.3825              1879.2989              2925.1718
 Red. masses --      5.4911                 1.0443                 1.1279
 Frc consts  --      5.1232                 2.1731                 5.6860
 IR Inten    --    129.3625               424.2658               423.5371

 - Thermochemistry -
 -------------------
 Temperature   298.150 Kelvin.  Pressure   1.00000 Atm.
 Atom     1 has atomic number 16 and mass  31.97207

 Molecular mass:    45.98772 amu.
 Principal axes and moments of inertia in atomic units:
                           1         2         3
     Eigenvalues --     7.05210  91.01403  98.06613
           X            0.00194   1.00000   0.00000
           Y            1.00000  -0.00194   0.00000
           Z           -0.00000  -0.00000   1.00000
 This molecule is an asymmetric top.
 Rotational symmetry number  1.
 Rotational temperatures (Kelvin)     12.28199     0.95165     0.88322
 Rotational constants (GHZ):         255.91555    19.82926    18.40331
 Zero-point vibrational energy      47243.5 (Joules/Mol)
                                   11.29146 (Kcal/Mol)
 Warning -- explicit consideration of   1 degrees of freedom as
           vibrations may cause significant error
 Vibrational temperatures:    207.06  1117.33  1316.69  1810.53  2703.89
          (Kelvin)           4208.66

 Zero-point correction=                           0.017994 (Hartree/Particle)
 Thermal correction to Energy=                    0.021631
 Thermal correction to Enthalpy=                  0.022575
 Thermal correction to Gibbs Free Energy=        -0.005614
 Sum of electronic and zero-point Energies=           -436.462913
 Sum of electronic and thermal Energies=              -436.459276
 Sum of electronic and thermal Enthalpies=            -436.458332
 Sum of electronic and thermal Free Energies=         -436.486521

                     E (Thermal)             CV                S
                      KCal/Mol        Cal/Mol-Kelvin    Cal/Mol-Kelvin
 Total                   13.574              9.230             59.329
 Electronic               0.000              0.000              0.000
 Translational            0.889              2.981             37.403
 Rotational               0.889              2.981             18.782
 Vibrational             11.796              3.268              3.145
 Vibration     1          0.616              1.909              2.751

 Normal termination of Gaussian 09 at Wed Aug  3 22:48:11 2016.
