 Gaussian 09, Revision E.01,
 Gaussian 09:  EM64L-G09RevE.01 30-Nov-2015

 ------------------------------
 #p b3lyp/6-311++G(3df,2p) freq
 ------------------------------

 ---------
 b3lyp opt
 ---------
 Symbolic Z-matrix:
 Charge =  2 Multiplicity = 1

                         Standard orientation:
 ---------------------------------------------------------------------
 Center     Atomic      Atomic             Coordinates (Angstroms)
 Number     Number       Type             X           Y           Z
 ---------------------------------------------------------------------
      1         16           0       -0.000000    0.000000    0.568405
      2          6           0        0.000000   -0.000000   -0.964655
      3          1           0        0.000000    0.928398   -1.653272
      4          1           0       -0.000000   -0.928398   -1.653272
 ---------------------------------------------------------------------

 SCF Done:  E(RB3LYP) =  -436.475267604     A.U. after   11 cycles

 The electronic state is 1-A1.
 Alpha  occ. eigenvalues --  -89.59741 -10.85355  -8.67067  -6.63957  -6.62657
 Alpha  occ. eigenvalues --   -6.62592  -1.45711  -1.19217  -1.03521  -1.02962
 Alpha  occ. eigenvalues --   -0.94255
 Alpha virt. eigenvalues --   -0.79916  -0.66910  -0.47073  -0.41372  -0.38297
 Alpha virt. eigenvalues --   -0.36056  -0.33324  -0.32915  -0.30103  -0.28658
 Alpha virt. eigenvalues --   -0.25794  -0.24677  -0.22823  -0.22766  -0.21035

 Mulliken charges:
               1
     1  S    1.138737
     2  C    0.152230
     3  H    0.354517
     4  H    0.354517
 Sum of Mulliken charges =   2.00000

 Dipole moment (field-independent basis, Debye):
    X=             -0.0000    Y=             -0.0000    Z=             -2.8099  Tot=              2.8099
 Quadrupole moment (field-independent basis, Debye-Ang):
   XX=            -14.7433   YY=             -9.6582   ZZ=             -0.4036
   XY=              0.0000   XZ=             -0.0000   YZ=             -0.0000

  Exact polarizability:  14.265  -0.000  16.854   0.000   0.000  30.552
 Approx polarizability:  20.821   0.000  27.318  -0.000   0.000  73.184

                      1                      2                      3
                     B2                     B1                     A1
 Frequencies --    120.0420               814.1664               942.9422
 Red. masses --      1.2886                 1.3360                 1.0489
 Frc consts  --      0.0109                 0.5218                 0.5495
 IR Inten    --     37.7457               107.0536               289.9038

                      4                      5                      6
                     A1                     B2                     A1
 Frequencies --   1175.4199              2447.0990              2515.8502
 Red. masses --      8.6655                 1.0861                 1.0601
 Frc consts  --      7.0539                 3.8318                 3.9532
 IR Inten    --      0.0038               548.1141               868.4210

 - Thermochemistry -
 -------------------
 Temperature   298.150 Kelvin.  Pressure   1.00000 Atm.
 Atom     1 has atomic number 16 and mass  31.97207

 Molecular mass:    45.98772 amu.
 Principal axes and moments of inertia in atomic units:
                           1         2         3
     Eigenvalues --     6.20414  95.61161 101.81575
           X           -0.00000  -0.00000   1.00000
           Y            0.00000   1.00000   0.00000
           Z            1.00000  -0.00000   0.00000
 This molecule is an asymmetric top.
 Rotational symmetry number  2.
 Rotational temperatures (Kelvin)     13.96065     0.90589     0.85069
 Rotational constants (GHZ):         290.89299    18.87575    17.72556
 Zero-point vibrational energy      47943.5 (Joules/Mol)
                                   11.45876 (Kcal/Mol)
 Warning -- explicit consideration of   1 degrees of freedom as
           vibrations may cause significant error
 Vibrational temperatures:    172.71  1171.40  1356.68  1691.16  3520.83
          (Kelvin)           3619.74

 Zero-point correction=                           0.018261 (Hartree/Particle)
 Thermal correction to Energy=                    0.021929
 Thermal correction to Enthalpy=                  0.022873
 Thermal correction to Gibbs Free Energy=        -0.004792
 Sum of electronic and zero-point Energies=           -436.457007
 Sum of electronic and thermal Energies=              -436.453338
 Sum of electronic and thermal Enthalpies=            -436.452394
 Sum of electronic and thermal Free Energies=         -436.480059

                     E (Thermal)             CV                S
                      KCal/Mol        Cal/Mol-Kelvin    Cal/Mol-Kelvin
 Total                   13.761              9.191             58.226
 Electronic               0.000              0.000              0.000
 Translational            0.889              2.981             37.403
 Rotational               0.889              2.981             17.364
 Vibrational             11.983              3.229              3.460
 Vibration     1          0.609              1.933              3.100

 Optimization completed.
    -- Stationary point found.
 Normal termination of Gaussian 09 at Wed Aug  3 22:47:34 2016.
