 Gaussian 09, Revision E.01,
 Gaussian 09:  EM64L-G09RevE.01 30-Nov-2015

 ------------------------------
 #p b3lyp/6-311++G(3df,2p) freq
 ------------------------------

 ---------
 b3lyp opt
 ---------
 Symbolic Z-matrix:
 Charge =  0 Multiplicity = 1

                         Standard orientation:
 ---------------------------------------------------------------------
 Center     Atomic      Atomic             Coordinates (Angstroms)
 Number     Number       Type             X           Y           Z
 ---------------------------------------------------------------------
      1         16           0        0.010894   -0.481325    0.000000
      2          6           0        0.010894    1.167801   -0.000000
      3          1           0        1.082809    1.426519   -0.000000
      4          1           0       -1.322475   -0.732135    0.000000
 ---------------------------------------------------------------------

 SCF Done:  E(RB3LYP) =  -437.439844037     A.U. after   11 cycles

 The electronic state is 1-A'.
 Alpha  occ. eigenvalues --  -88.90407 -10.22060  -7.98929  -5.95096  -5.94818
 Alpha  occ. eigenvalues --   -5.94717  -0.82960  -0.61445  -0.42319  -0.41553
 Alpha  occ. eigenvalues --   -0.34208  -0.24070
 Alpha virt. eigenvalues --   -0.09638  -0.01978   0.00281   0.02147   0.04543
 Alpha virt. eigenvalues --    0.05326   0.06973   0.08857   0.09694   0.10611
 Alpha virt. eigenvalues --    0.11022   0.14073   0.15240   0.16959   0.17655

 Mulliken charges:
               1
     1  S    0.020587
     2  C   -0.333719
     3  H    0.163673
     4  H    0.149459
 Sum of Mulliken charges =  -0.00000

 Dipole moment (field-independent basis, Debye):
    X=              0.4509    Y=             -1.7876    Z=              0.0000  Tot=              1.8436
 Quadrupole moment (field-independent basis, Debye-Ang):
   XX=            -18.6390   YY=            -22.7959   ZZ=            -20.3930
   XY=              3.5643   XZ=             -0.0000   YZ=              0.0000

  Exact polarizability:  32.125   2.556  46.528  -0.000   0.000  26.466
 Approx polarizability:  47.976   5.357  80.969  -0.000  -0.000  39.935

                      1                      2                      3
                     A'                     A'                     A"
 Frequencies --    882.7082               946.7129               984.4940
 Red. masses --      2.9483                 1.4387                 1.0690
 Frc consts  --      1.3535                 0.7597                 0.6105
 IR Inten    --     20.5944                14.1138                20.0168

                      4                      5                      6
                     A'                     A'                     A'
 Frequencies --   1168.4565              2543.7654              2986.3007
 Red. masses --      1.1613                 1.0399                 1.0825
 Frc consts  --      0.9341                 3.9645                 5.6877
 IR Inten    --     13.2315                13.9299                20.2123

 - Thermochemistry -
 -------------------
 Temperature   298.150 Kelvin.  Pressure   1.00000 Atm.
 Atom     1 has atomic number 16 and mass  31.97207

 Molecular mass:    45.98772 amu.
 Principal axes and moments of inertia in atomic units:
                           1         2         3
     Eigenvalues --     9.56973  95.06832 104.63805
           X            0.10589   0.99438   0.00000
           Y            0.99438  -0.10589   0.00000
           Z           -0.00000  -0.00000   1.00000
 This molecule is an asymmetric top.
 Rotational symmetry number  1.
 Rotational temperatures (Kelvin)      9.05082     0.91107     0.82775
 Rotational constants (GHZ):         188.58861    18.98362    17.24747
 Zero-point vibrational energy      56897.0 (Joules/Mol)
                                   13.59871 (Kcal/Mol)
 Vibrational temperatures:   1270.02  1362.11  1416.47  1681.15  3659.91
          (Kelvin)           4296.62

 Zero-point correction=                           0.021671 (Hartree/Particle)
 Thermal correction to Energy=                    0.024665
 Thermal correction to Enthalpy=                  0.025609
 Thermal correction to Gibbs Free Energy=        -0.001478
 Sum of electronic and zero-point Energies=           -437.418173
 Sum of electronic and thermal Energies=              -437.415180
 Sum of electronic and thermal Enthalpies=            -437.414235
 Sum of electronic and thermal Free Energies=         -437.441322

                     E (Thermal)             CV                S
                      KCal/Mol        Cal/Mol-Kelvin    Cal/Mol-Kelvin
 Total                   15.477              7.548             57.008
 Electronic               0.000              0.000              0.000
 Translational            0.889              2.981             37.403
 Rotational               0.889              2.981             19.193
 Vibrational             13.700              1.586              0.412

 Optimization completed.
    -- Stationary point found.
 Normal termination of Gaussian 09 at Wed Aug  3 23:09:47 2016.
