 Gaussian 09, Revision E.01,
 Gaussian 09:  EM64L-G09RevE.01 30-Nov-2015

 ------------------------------
 #p b3lyp/6-311++G(3df,2p) freq
 ------------------------------

 ---------
 b3lyp opt
 ---------
 Symbolic Z-matrix:
 Charge =  1 Multiplicity = 4

                         Standard orientation:
 ---------------------------------------------------------------------
 Center     Atomic      Atomic             Coordinates (Angstroms)
 Number     Number       Type             X           Y           Z
 ---------------------------------------------------------------------
      1         16           0       -0.000000   -1.461549   -0.125266
      2         16           0        0.000000    1.461549   -0.125266
      3          6           0       -0.000000    0.000000    0.757943
      4          1           0        1.343832   -1.644732   -0.269574
      5          1           0       -1.343832    1.644732   -0.269574
 ---------------------------------------------------------------------

 SCF Done:  E(UB3LYP) =  -835.301481553     A.U. after   12 cycles

 The electronic state is 4-A.
 Alpha  occ. eigenvalues --  -89.16294 -89.16294 -10.48816  -8.24465  -8.24462
 Alpha  occ. eigenvalues --   -6.20842  -6.20841  -6.20567  -6.20567  -6.20210
 Alpha  occ. eigenvalues --   -6.20210  -1.10732  -1.02118  -0.83279  -0.72472
 Alpha  occ. eigenvalues --   -0.65036  -0.64640  -0.63053  -0.53601  -0.48048
 Alpha  occ. eigenvalues --   -0.48004
 Alpha virt. eigenvalues --   -0.23593  -0.20898  -0.19288  -0.16418  -0.13531
 Alpha virt. eigenvalues --   -0.10716  -0.10401  -0.08944  -0.08303  -0.08290
 Alpha virt. eigenvalues --   -0.05490  -0.05292  -0.04351  -0.04236  -0.04175

  Beta  occ. eigenvalues --  -89.15795 -89.15794 -10.46291  -8.23992  -8.23990
  Beta  occ. eigenvalues --   -6.20214  -6.20214  -6.19860  -6.19860  -6.19432
  Beta  occ. eigenvalues --   -6.19431  -1.06829  -0.98858  -0.78528  -0.69997
  Beta  occ. eigenvalues --   -0.61966  -0.61470  -0.55892
  Beta virt. eigenvalues --   -0.42420  -0.33254  -0.33251  -0.22464  -0.18029
  Beta virt. eigenvalues --   -0.17577  -0.14704  -0.12641  -0.10352  -0.09962
  Beta virt. eigenvalues --   -0.07888  -0.07726  -0.06963  -0.04706  -0.04562

 Mulliken charges and spin densities:
               1          2
     1  S    0.289676   0.742994
     2  S    0.289676   0.742994
     3  C    0.021020   1.380158
     4  H    0.199814   0.066927
     5  H    0.199814   0.066927
 Sum of Mulliken charges =   1.00000   3.00000

 Dipole moment (field-independent basis, Debye):
    X=              0.0000    Y=             -0.0000    Z=             -0.8985  Tot=              0.8985
 Quadrupole moment (field-independent basis, Debye-Ang):
   XX=            -25.0645   YY=            -15.4515   ZZ=            -29.9274
   XY=             -4.6565   XZ=             -0.0000   YZ=             -0.0000

  Exact polarizability:  37.665  -6.249  83.453   0.000   0.000  37.292
 Approx polarizability:  61.712  -8.053 154.294   0.000  -0.000  63.308

                      1                      2                      3
                      A                      B                      A
 Frequencies --    232.8454               346.3788               495.0113
 Red. masses --     12.1014                 1.2450                 1.0597
 Frc consts  --      0.3866                 0.0880                 0.1530
 IR Inten    --      0.2163                17.5679                29.0944

                      4                      5                      6
                      A                      B                      A
 Frequencies --    681.3690               874.0713               875.6572
 Red. masses --     14.4146                 1.8068                 1.0634
 Frc consts  --      3.9429                 0.8133                 0.4804
 IR Inten    --      0.0138                14.9258                 5.6683

                      7                      8                      9
                      B                      B                      A
 Frequencies --    963.1766              2506.9878              2513.5254
 Red. masses --      2.7413                 1.0395                 1.0391
 Frc consts  --      1.4984                 3.8492                 3.8678
 IR Inten    --     65.2910                72.7888                 1.0819

 - Thermochemistry -
 -------------------
 Temperature   298.150 Kelvin.  Pressure   1.00000 Atm.
 Atom     1 has atomic number 16 and mass  31.97207

 Molecular mass:    77.95979 amu.
 Principal axes and moments of inertia in atomic units:
                           1         2         3
     Eigenvalues --    41.19795 520.25189 536.47540
           X           -0.03214  -0.00000   0.99948
           Y            0.99948   0.00000   0.03214
           Z           -0.00000   1.00000   0.00000
 This molecule is an asymmetric top.
 Rotational symmetry number  2.
 Rotational temperatures (Kelvin)      2.10238     0.16648     0.16145
 Rotational constants (GHZ):          43.80658     3.46898     3.36407
 Zero-point vibrational energy      56757.0 (Joules/Mol)
                                   13.56524 (Kcal/Mol)
 Warning -- explicit consideration of   3 degrees of freedom as
           vibrations may cause significant error
 Vibrational temperatures:    335.01   498.36   712.21   980.34  1257.59
          (Kelvin)           1259.87  1385.79  3606.99  3616.40

 Zero-point correction=                           0.021618 (Hartree/Particle)
 Thermal correction to Energy=                    0.025836
 Thermal correction to Enthalpy=                  0.026780
 Thermal correction to Gibbs Free Energy=        -0.005893
 Sum of electronic and zero-point Energies=           -835.279864
 Sum of electronic and thermal Energies=              -835.275646
 Sum of electronic and thermal Enthalpies=            -835.274701
 Sum of electronic and thermal Free Energies=         -835.307375

                     E (Thermal)             CV                S
                      KCal/Mol        Cal/Mol-Kelvin    Cal/Mol-Kelvin
 Total                   16.212             12.954             68.767
 Electronic               0.000              0.000              2.755
 Translational            0.889              2.981             38.976
 Rotational               0.889              2.981             22.579
 Vibrational             14.435              6.993              4.457
 Vibration     1          0.654              1.791              1.857
 Vibration     2          0.724              1.583              1.183
 Vibration     3          0.851              1.261              0.671

 Optimization completed.
    -- Stationary point found.
 Normal termination of Gaussian 09 at Wed Aug  3 23:09:12 2016.
