 Gaussian 09, Revision E.01,
 Gaussian 09:  EM64L-G09RevE.01 30-Nov-2015

 ------------------------------
 #p b3lyp/6-311++G(3df,2p) freq
 ------------------------------

 ---------
 b3lyp opt
 ---------
 Symbolic Z-matrix:
 Charge =  1 Multiplicity = 4

                         Standard orientation:
 ---------------------------------------------------------------------
 Center     Atomic      Atomic             Coordinates (Angstroms)
 Number     Number       Type             X           Y           Z
 ---------------------------------------------------------------------
      1         16           0       -1.426813   -0.120943   -0.082037
      2         16           0        1.481842   -0.192345   -0.039252
      3          6           0        0.052095    0.738298    0.229176
      4          1           0       -1.262900   -1.146420    0.790340
      5          1           0        0.069869    1.729244   -0.224772
 ---------------------------------------------------------------------

 SCF Done:  E(UB3LYP) =  -835.331601070     A.U. after   15 cycles

 The electronic state is 4-A.
 Alpha  occ. eigenvalues --  -89.17493 -89.16174 -10.46674  -8.25453  -8.24344
 Alpha  occ. eigenvalues --   -6.22216  -6.21663  -6.21180  -6.20724  -6.20434
 Alpha  occ. eigenvalues --   -6.20114  -1.10225  -1.00842  -0.84952  -0.69322
 Alpha  occ. eigenvalues --   -0.69119  -0.63840  -0.60512  -0.56289  -0.53783
 Alpha  occ. eigenvalues --   -0.44194
 Alpha virt. eigenvalues --   -0.23368  -0.19764  -0.17094  -0.14913  -0.12877
 Alpha virt. eigenvalues --   -0.10515  -0.10317  -0.09655  -0.07742  -0.07502
 Alpha virt. eigenvalues --   -0.06562  -0.06348  -0.04634  -0.04209  -0.03138

  Beta  occ. eigenvalues --  -89.16416 -89.15682 -10.45532  -8.24472  -8.23893
  Beta  occ. eigenvalues --   -6.20571  -6.20101  -6.20036  -6.19882  -6.19759
  Beta  occ. eigenvalues --   -6.19321  -1.06670  -0.95881  -0.80977  -0.67169
  Beta  occ. eigenvalues --   -0.66269  -0.59917  -0.54542
  Beta virt. eigenvalues --   -0.43080  -0.40950  -0.30596  -0.21928  -0.17961
  Beta virt. eigenvalues --   -0.15017  -0.14265  -0.12081  -0.09944  -0.09612
  Beta virt. eigenvalues --   -0.08404  -0.07115  -0.06599  -0.06092  -0.05555

 Mulliken charges and spin densities:
               1          2
     1  S    0.269023   0.746991
     2  S    0.401688   1.646680
     3  C   -0.074105   0.573718
     4  H    0.193813   0.009398
     5  H    0.209579   0.023213
 Sum of Mulliken charges =   1.00000   3.00000

 Dipole moment (field-independent basis, Debye):
    X=             -0.1285    Y=             -0.3665    Z=              0.1541  Tot=              0.4178
 Quadrupole moment (field-independent basis, Debye-Ang):
   XX=            -18.1590   YY=            -24.5137   ZZ=            -29.2812
   XY=              1.3769   XZ=             -0.9502   YZ=             -2.2238

  Exact polarizability:  81.410   0.579  39.999  -0.425   0.091  33.500
 Approx polarizability: 155.629  -0.872  66.871   1.563   0.094  52.974

                      1                      2                      3
                      A                      A                      A
 Frequencies --    214.7082               336.9012               604.8493
 Red. masses --      7.3790                 1.2953                 1.5318
 Frc consts  --      0.2004                 0.0866                 0.3302
 IR Inten    --      2.9980                27.5058                45.4458

                      4                      5                      6
                      A                      A                      A
 Frequencies --    692.6080               859.4842               929.7708
 Red. masses --      3.2857                 4.9894                 1.1999
 Frc consts  --      0.9287                 2.1716                 0.6112
 IR Inten    --      9.8727                78.7452                27.8556

                      7                      8                      9
                      A                      A                      A
 Frequencies --   1178.9802              2586.7404              3092.2945
 Red. masses --      1.1255                 1.0393                 1.0825
 Frc consts  --      0.9217                 4.0973                 6.0990
 IR Inten    --     17.4634                24.1362                44.7946

 - Thermochemistry -
 -------------------
 Temperature   298.150 Kelvin.  Pressure   1.00000 Atm.
 Atom     1 has atomic number 16 and mass  31.97207

 Molecular mass:    77.95979 amu.
 Principal axes and moments of inertia in atomic units:
                           1         2         3
     Eigenvalues --    50.24579 494.09729 534.24970
           X            0.99990   0.01140  -0.00874
           Y           -0.01234   0.99322  -0.11563
           Z            0.00736   0.11573   0.99325
 This molecule is an asymmetric top.
 Rotational symmetry number  1.
 Rotational temperatures (Kelvin)      1.72380     0.17530     0.16212
 Rotational constants (GHZ):          35.91826     3.65260     3.37809
 Zero-point vibrational energy      62782.0 (Joules/Mol)
                                   15.00527 (Kcal/Mol)
 Warning -- explicit consideration of   3 degrees of freedom as
           vibrations may cause significant error
 Vibrational temperatures:    308.92   484.73   870.24   996.51  1236.60
          (Kelvin)           1337.73  1696.29  3721.74  4449.12

 Zero-point correction=                           0.023912 (Hartree/Particle)
 Thermal correction to Energy=                    0.028061
 Thermal correction to Enthalpy=                  0.029006
 Thermal correction to Gibbs Free Energy=        -0.004324
 Sum of electronic and zero-point Energies=           -835.307689
 Sum of electronic and thermal Energies=              -835.303540
 Sum of electronic and thermal Enthalpies=            -835.302596
 Sum of electronic and thermal Free Energies=         -835.335926

                     E (Thermal)             CV                S
                      KCal/Mol        Cal/Mol-Kelvin    Cal/Mol-Kelvin
 Total                   17.609             12.486             70.149
 Electronic               0.000              0.000              2.755
 Translational            0.889              2.981             38.976
 Rotational               0.889              2.981             24.099
 Vibrational             15.831              6.524              4.320
 Vibration     1          0.645              1.819              2.003
 Vibration     2          0.718              1.602              1.227
 Vibration     3          0.963              1.022              0.441

 Optimization completed.
    -- Stationary point found.
 Normal termination of Gaussian 09 at Wed Aug  3 20:47:14 2016.
