 Gaussian 09, Revision E.01,
 Gaussian 09:  EM64L-G09RevE.01 30-Nov-2015

 ------------------------------
 #p b3lyp/6-311++G(3df,2p) freq
 ------------------------------

 ---------
 b3lyp opt
 ---------
 Symbolic Z-matrix:
 Charge =  1 Multiplicity = 2

                         Standard orientation:
 ---------------------------------------------------------------------
 Center     Atomic      Atomic             Coordinates (Angstroms)
 Number     Number       Type             X           Y           Z
 ---------------------------------------------------------------------
      1         16           0       -0.614636   -1.214413   -0.000000
      2         16           0       -0.000000    0.834484    0.000000
      3          6           0        1.523163    0.994327    0.000000
      4          1           0        2.598775    0.920532    0.000000
      5          1           0       -1.903573   -0.807640   -0.000000
 ---------------------------------------------------------------------

 SCF Done:  E(UB3LYP) =  -835.363597711     A.U. after   16 cycles

 The electronic state is 2-A'.
 Alpha  occ. eigenvalues --  -89.18949 -89.11791 -10.51315  -8.27011  -8.20158
 Alpha  occ. eigenvalues --   -6.23138  -6.22906  -6.22807  -6.16847  -6.16093
 Alpha  occ. eigenvalues --   -6.15499  -1.12024  -0.98444  -0.84681  -0.72961
 Alpha  occ. eigenvalues --   -0.67874  -0.62130  -0.60531  -0.50731  -0.49831
 Alpha virt. eigenvalues --   -0.34308  -0.28043  -0.19711  -0.18840  -0.14220
 Alpha virt. eigenvalues --   -0.12417  -0.10524  -0.10229  -0.09833  -0.08486
 Alpha virt. eigenvalues --   -0.07254  -0.05913  -0.05496  -0.04897  -0.03456

  Beta  occ. eigenvalues --  -89.19028 -89.11601 -10.49970  -8.27048  -8.19983
  Beta  occ. eigenvalues --   -6.23274  -6.23035  -6.22869  -6.16231  -6.15948
  Beta  occ. eigenvalues --   -6.15444  -1.10735  -0.96642  -0.82761  -0.71761
  Beta  occ. eigenvalues --   -0.66743  -0.61726  -0.58974  -0.49320
  Beta virt. eigenvalues --   -0.38733  -0.32984  -0.25832  -0.18857  -0.18000
  Beta virt. eigenvalues --   -0.14105  -0.12172  -0.10304  -0.10177  -0.09527
  Beta virt. eigenvalues --   -0.08242  -0.07035  -0.05879  -0.05196  -0.04175

 Mulliken charges and spin densities:
               1          2
     1  S    0.106109   0.271745
     2  S    0.168391  -0.055388
     3  C    0.154000   0.803752
     4  H    0.378643  -0.017942
     5  H    0.192857  -0.002166
 Sum of Mulliken charges =   1.00000   1.00000

 Dipole moment (field-independent basis, Debye):
    X=              1.3639    Y=              1.1241    Z=              0.0000  Tot=              1.7674
 Quadrupole moment (field-independent basis, Debye-Ang):
   XX=            -14.8357   YY=            -23.2883   ZZ=            -30.5592
   XY=              5.8031   XZ=             -0.0000   YZ=              0.0000

  Exact polarizability:  58.096  18.200  56.952  -0.000   0.000  31.927
 Approx polarizability: 120.932  45.958 115.175   0.000   0.000  49.790

                      1                      2                      3
                     A"                     A'                     A'
 Frequencies --    182.7862               218.8316               364.7297
 Red. masses --      1.1231                 2.5273                 3.7747
 Frc consts  --      0.0221                 0.0713                 0.2959
 IR Inten    --     17.7073                22.9203                 2.9065

                      4                      5                      6
                     A'                     A"                     A'
 Frequencies --    379.3280               690.9033               850.9615
 Red. masses --      2.5035                 1.2329                 1.0758
 Frc consts  --      0.2122                 0.3467                 0.4590
 IR Inten    --     66.6430                47.2176                15.8259

                      7                      8                      9
                     A'                     A'                     A'
 Frequencies --   1176.4207              2628.8513              3279.3922
 Red. masses --      6.8425                 1.0390                 1.1100
 Frc consts  --      5.5795                 4.2307                 7.0333
 IR Inten    --     11.3434                45.7185               203.3626

 - Thermochemistry -
 -------------------
 Temperature   298.150 Kelvin.  Pressure   1.00000 Atm.
 Atom     1 has atomic number 16 and mass  31.97207

 Molecular mass:    77.95979 amu.
 Principal axes and moments of inertia in atomic units:
                           1         2         3
     Eigenvalues --    63.60210 411.93260 475.53470
           X            0.57776   0.81620  -0.00000
           Y            0.81620  -0.57776  -0.00000
           Z            0.00000   0.00000   1.00000
 This molecule is an asymmetric top.
 Rotational symmetry number  1.
 Rotational temperatures (Kelvin)      1.36181     0.21026     0.18214
 Rotational constants (GHZ):          28.37550     4.38116     3.79518
 Zero-point vibrational energy      58450.8 (Joules/Mol)
                                   13.97007 (Kcal/Mol)
 Warning -- explicit consideration of   4 degrees of freedom as
           vibrations may cause significant error
 Vibrational temperatures:    262.99   314.85   524.76   545.77   994.05
          (Kelvin)           1224.34  1692.60  3782.33  4718.31

 Zero-point correction=                           0.022263 (Hartree/Particle)
 Thermal correction to Energy=                    0.027090
 Thermal correction to Enthalpy=                  0.028035
 Thermal correction to Gibbs Free Energy=        -0.005859
 Sum of electronic and zero-point Energies=           -835.341335
 Sum of electronic and thermal Energies=              -835.336507
 Sum of electronic and thermal Enthalpies=            -835.335563
 Sum of electronic and thermal Free Energies=         -835.369456

                     E (Thermal)             CV                S
                      KCal/Mol        Cal/Mol-Kelvin    Cal/Mol-Kelvin
 Total                   16.999             14.335             71.334
 Electronic               0.000              0.000              1.377
 Translational            0.889              2.981             38.976
 Rotational               0.889              2.981             24.036
 Vibrational             15.222              8.374              6.945
 Vibration     1          0.630              1.863              2.300
 Vibration     2          0.647              1.812              1.969
 Vibration     3          0.738              1.545              1.102
 Vibration     4          0.749              1.514              1.042

 Optimization completed.
    -- Stationary point found.
 Normal termination of Gaussian 09 at Wed Aug  3 23:07:35 2016.
