 Gaussian 09, Revision E.01,
 Gaussian 09:  EM64L-G09RevE.01 30-Nov-2015

 ------------------------------
 #p b3lyp/6-311++G(3df,2p) freq
 ------------------------------

 ---------
 b3lyp opt
 ---------
 Symbolic Z-matrix:
 Charge =  0 Multiplicity = 1

                         Standard orientation:
 ---------------------------------------------------------------------
 Center     Atomic      Atomic             Coordinates (Angstroms)
 Number     Number       Type             X           Y           Z
 ---------------------------------------------------------------------
      1         16           0       -1.416769    0.241646   -0.000258
      2         16           0        0.718391   -0.485064   -0.000348
      3          6           0        1.869526    0.547334    0.000528
      4          1           0        1.837716    1.630275    0.001213
      5          1           0       -1.880824   -1.019575    0.005314
 ---------------------------------------------------------------------

 SCF Done:  E(RB3LYP) =  -835.684266414     A.U. after   12 cycles

 The electronic state is 1-A.
 Alpha  occ. eigenvalues --  -88.93070 -88.85983 -10.23057  -8.01220  -7.94579
 Alpha  occ. eigenvalues --   -5.97525  -5.97135  -5.96896  -5.90837  -5.90616
 Alpha  occ. eigenvalues --   -5.90092  -0.85164  -0.73032  -0.59225  -0.47273
 Alpha  occ. eigenvalues --   -0.42169  -0.37132  -0.35263  -0.26525  -0.25386
 Alpha virt. eigenvalues --   -0.09900  -0.07206  -0.01777   0.00520   0.03115
 Alpha virt. eigenvalues --    0.04441   0.04813   0.05094   0.05945   0.06796
 Alpha virt. eigenvalues --    0.07511   0.09122   0.09669   0.11177   0.12289

 Mulliken charges:
               1
     1  S   -0.224784
     2  S    0.162631
     3  C   -0.263312
     4  H    0.212219
     5  H    0.113246
 Sum of Mulliken charges =  -0.00000

 Dipole moment (field-independent basis, Debye):
    X=             -0.2556    Y=             -0.1318    Z=              0.0036  Tot=              0.2876
 Quadrupole moment (field-independent basis, Debye-Ang):
   XX=            -36.6451   YY=            -29.3658   ZZ=            -34.3956
   XY=              3.8357   XZ=             -0.0086   YZ=             -0.0109

  Exact polarizability: 103.639   4.909  49.239   0.001   0.008  41.533
 Approx polarizability: 229.979  18.195  87.466   0.023   0.000  65.629

                      1                      2                      3
                      A                      A                      A
 Frequencies --    157.7909               217.0112               354.4647
 Red. masses --      1.1019                 4.0387                 9.2686
 Frc consts  --      0.0162                 0.1121                 0.6861
 IR Inten    --     15.8310                73.3986                76.4773

                      4                      5                      6
                      A                      A                      A
 Frequencies --    687.3050               731.5103               786.0083
 Red. masses --      1.1822                 1.3548                 1.2930
 Frc consts  --      0.3290                 0.4271                 0.4706
 IR Inten    --    138.9473               173.5775                32.5767

                      7                      8                      9
                      A                      A                      A
 Frequencies --   1183.7212              2676.3008              3185.3409
 Red. masses --      4.9884                 1.0389                 1.0964
 Frc consts  --      4.1182                 4.3841                 6.5541
 IR Inten    --     35.7541                 1.4792                 1.1652

 - Thermochemistry -
 -------------------
 Temperature   298.150 Kelvin.  Pressure   1.00000 Atm.
 Atom     1 has atomic number 16 and mass  31.97207

 Molecular mass:    77.95979 amu.
 Principal axes and moments of inertia in atomic units:
                           1         2         3
     Eigenvalues --    58.91429 463.50478 522.41880
           X            0.99908   0.04290  -0.00007
           Y           -0.04290   0.99908  -0.00022
           Z            0.00006   0.00022   1.00000
 This molecule is an asymmetric top.
 Rotational symmetry number  1.
 Rotational temperatures (Kelvin)      1.47017     0.18687     0.16579
 Rotational constants (GHZ):          30.63334     3.89368     3.45459
 Zero-point vibrational energy      59690.4 (Joules/Mol)
                                   14.26634 (Kcal/Mol)
 Warning -- explicit consideration of   3 degrees of freedom as
           vibrations may cause significant error
 Vibrational temperatures:    227.03   312.23   510.00   988.88  1052.48
          (Kelvin)           1130.89  1703.11  3850.60  4582.99

 Zero-point correction=                           0.022735 (Hartree/Particle)
 Thermal correction to Energy=                    0.027407
 Thermal correction to Enthalpy=                  0.028351
 Thermal correction to Gibbs Free Energy=        -0.004770
 Sum of electronic and zero-point Energies=           -835.661532
 Sum of electronic and thermal Energies=              -835.656859
 Sum of electronic and thermal Enthalpies=            -835.655915
 Sum of electronic and thermal Free Energies=         -835.689036

                     E (Thermal)             CV                S
                      KCal/Mol        Cal/Mol-Kelvin    Cal/Mol-Kelvin
 Total                   17.198             13.751             69.709
 Electronic               0.000              0.000              0.000
 Translational            0.889              2.981             38.976
 Rotational               0.889              2.981             24.171
 Vibrational             15.421              7.790              6.562
 Vibration     1          0.621              1.894              2.576
 Vibration     2          0.646              1.815              1.984
 Vibration     3          0.730              1.566              1.146

 Normal termination of Gaussian 09 at Wed Aug  3 20:37:33 2016.
