 Gaussian 09, Revision E.01,
 Gaussian 09:  EM64L-G09RevE.01 30-Nov-2015

 ------------------------------
 #p b3lyp/6-311++G(3df,2p) freq
 ------------------------------

 ---------
 b3lyp opt
 ---------
 Symbolic Z-matrix:
 Charge =  1 Multiplicity = 4

                         Standard orientation:
 ---------------------------------------------------------------------
 Center     Atomic      Atomic             Coordinates (Angstroms)
 Number     Number       Type             X           Y           Z
 ---------------------------------------------------------------------
      1         16           0        1.399325   -0.228181   -0.036874
      2         16           0       -1.504421   -0.180898    0.042959
      3          6           0       -0.049833    0.716987   -0.202193
      4          1           0        2.043442    0.526956    0.887494
      5          1           0       -0.062915    1.716379    0.228309
 ---------------------------------------------------------------------

 SCF Done:  E(UB3LYP) =  -835.329179482     A.U. after   15 cycles

 The electronic state is 4-A.
 Alpha  occ. eigenvalues --  -89.17423 -89.15868 -10.46324  -8.25367  -8.24064
 Alpha  occ. eigenvalues --   -6.22142  -6.21580  -6.21090  -6.20457  -6.20184
 Alpha  occ. eigenvalues --   -6.19753  -1.09895  -1.00895  -0.83957  -0.73158
 Alpha  occ. eigenvalues --   -0.65480  -0.63300  -0.60623  -0.56088  -0.54053
 Alpha  occ. eigenvalues --   -0.43648
 Alpha virt. eigenvalues --   -0.23233  -0.20738  -0.16948  -0.13857  -0.12490
 Alpha virt. eigenvalues --   -0.11050  -0.10466  -0.09356  -0.07810  -0.07025
 Alpha virt. eigenvalues --   -0.06531  -0.05591  -0.04629  -0.03498  -0.03086

  Beta  occ. eigenvalues --  -89.16337 -89.15394 -10.45182  -8.24377  -8.23620
  Beta  occ. eigenvalues --   -6.20480  -6.19944  -6.19862  -6.19776  -6.19482
  Beta  occ. eigenvalues --   -6.19051  -1.06272  -0.95966  -0.79488  -0.71303
  Beta  occ. eigenvalues --   -0.62722  -0.59927  -0.54437
  Beta virt. eigenvalues --   -0.43000  -0.40869  -0.29900  -0.22159  -0.18451
  Beta virt. eigenvalues --   -0.15432  -0.13026  -0.12025  -0.09954  -0.09895
  Beta virt. eigenvalues --   -0.08121  -0.07300  -0.06612  -0.05935  -0.04771

 Mulliken charges and spin densities:
               1          2
     1  S    0.270707   0.713041
     2  S    0.402934   1.650929
     3  C   -0.082410   0.596443
     4  H    0.198673   0.016821
     5  H    0.210096   0.022765
 Sum of Mulliken charges =   1.00000   3.00000

 Dipole moment (field-independent basis, Debye):
    X=              0.6669    Y=              0.8721    Z=              1.0545  Tot=              1.5223
 Quadrupole moment (field-independent basis, Debye-Ang):
   XX=            -15.5033   YY=            -25.9376   ZZ=            -29.0051
   XY=              1.0587   XZ=              1.7410   YZ=              1.6476

  Exact polarizability:  83.884   0.825  38.193   2.096  -0.352  33.558
 Approx polarizability: 152.738   1.120  62.581   3.424  -0.538  52.882

                      1                      2                      3
                      A                      A                      A
 Frequencies --    217.4590               249.0466               515.6315
 Red. masses --      6.3479                 1.2771                 1.4196
 Frc consts  --      0.1769                 0.0467                 0.2224
 IR Inten    --      1.3107                13.1016                33.7721

                      4                      5                      6
                      A                      A                      A
 Frequencies --    690.4392               866.7382               923.3415
 Red. masses --      4.5099                 3.9182                 1.2448
 Frc consts  --      1.2667                 1.7343                 0.6253
 IR Inten    --      1.5288                75.7673                36.4178

                      7                      8                      9
                      A                      A                      A
 Frequencies --   1129.6378              2587.3142              3105.1634
 Red. masses --      1.1471                 1.0395                 1.0833
 Frc consts  --      0.8624                 4.0998                 6.1542
 IR Inten    --     19.9103                47.3243                43.8756

 - Thermochemistry -
 -------------------
 Temperature   298.150 Kelvin.  Pressure   1.00000 Atm.
 Atom     1 has atomic number 16 and mass  31.97207

 Molecular mass:    77.95979 amu.
 Principal axes and moments of inertia in atomic units:
                           1         2         3
     Eigenvalues --    48.05835 501.79143 540.38753
           X            0.99988   0.00678   0.01370
           Y           -0.00790   0.99649   0.08333
           Z           -0.01308  -0.08343   0.99643
 This molecule is an asymmetric top.
 Rotational symmetry number  1.
 Rotational temperatures (Kelvin)      1.80226     0.17261     0.16028
 Rotational constants (GHZ):          37.55312     3.59660     3.33972
 Zero-point vibrational energy      61516.6 (Joules/Mol)
                                   14.70282 (Kcal/Mol)
 Warning -- explicit consideration of   3 degrees of freedom as
           vibrations may cause significant error
 Vibrational temperatures:    312.87   358.32   741.88   993.39  1247.04
          (Kelvin)           1328.48  1625.29  3722.56  4467.63

 Zero-point correction=                           0.023430 (Hartree/Particle)
 Thermal correction to Energy=                    0.027747
 Thermal correction to Enthalpy=                  0.028691
 Thermal correction to Gibbs Free Energy=        -0.004953
 Sum of electronic and zero-point Energies=           -835.305749
 Sum of electronic and thermal Energies=              -835.301433
 Sum of electronic and thermal Enthalpies=            -835.300488
 Sum of electronic and thermal Free Energies=         -835.334132

                     E (Thermal)             CV                S
                      KCal/Mol        Cal/Mol-Kelvin    Cal/Mol-Kelvin
 Total                   17.411             12.876             70.809
 Electronic               0.000              0.000              2.755
 Translational            0.889              2.981             38.976
 Rotational               0.889              2.981             24.081
 Vibrational             15.634              6.915              4.997
 Vibration     1          0.646              1.814              1.980
 Vibration     2          0.662              1.764              1.737
 Vibration     3          0.871              1.215              0.620

 Optimization completed.
    -- Stationary point found.
 Normal termination of Gaussian 09 at Wed Aug  3 20:44:17 2016.
