 Gaussian 09, Revision E.01,
 Gaussian 09:  EM64L-G09RevE.01 30-Nov-2015

 ------------------------------
 #p b3lyp/6-311++G(3df,2p) freq
 ------------------------------

 ---------
 b3lyp opt
 ---------
 Symbolic Z-matrix:
 Charge =  1 Multiplicity = 2

                         Standard orientation:
 ---------------------------------------------------------------------
 Center     Atomic      Atomic             Coordinates (Angstroms)
 Number     Number       Type             X           Y           Z
 ---------------------------------------------------------------------
      1         16           0       -1.388055    0.108252   -0.000229
      2         16           0        0.680824   -0.524949    0.000228
      3          6           0        1.699143    0.615384   -0.000466
      4          1           0        2.252682    1.541082    0.000106
      5          1           0       -1.131839    1.433775    0.002699
 ---------------------------------------------------------------------

 SCF Done:  E(UB3LYP) =  -835.361882670     A.U. after   16 cycles

 The electronic state is 2-A.
 Alpha  occ. eigenvalues --  -89.18957 -89.11770 -10.51527  -8.27016  -8.20131
 Alpha  occ. eigenvalues --   -6.23152  -6.22914  -6.22793  -6.16856  -6.16077
 Alpha  occ. eigenvalues --   -6.15457  -1.11909  -0.98060  -0.85244  -0.74296
 Alpha  occ. eigenvalues --   -0.64935  -0.62125  -0.62083  -0.50761  -0.49817
 Alpha virt. eigenvalues --   -0.34421  -0.28305  -0.21994  -0.17211  -0.14853
 Alpha virt. eigenvalues --   -0.11094  -0.10216  -0.09854  -0.09596  -0.08714
 Alpha virt. eigenvalues --   -0.07094  -0.06186  -0.06027  -0.05429  -0.03590

  Beta  occ. eigenvalues --  -89.19041 -89.11549 -10.50240  -8.27061  -8.19930
  Beta  occ. eigenvalues --   -6.23301  -6.23044  -6.22865  -6.16191  -6.15864
  Beta  occ. eigenvalues --   -6.15379  -1.10676  -0.96206  -0.83423  -0.73404
  Beta  occ. eigenvalues --   -0.62419  -0.61701  -0.61414  -0.49277
  Beta virt. eigenvalues --   -0.39033  -0.33172  -0.25755  -0.21265  -0.16726
  Beta virt. eigenvalues --   -0.14536  -0.10960  -0.10162  -0.09659  -0.09240
  Beta virt. eigenvalues --   -0.08436  -0.06880  -0.05967  -0.05424  -0.04856

 Mulliken charges and spin densities:
               1          2
     1  S    0.123940   0.322735
     2  S    0.153013  -0.069315
     3  C    0.166432   0.771970
     4  H    0.379434  -0.017894
     5  H    0.177181  -0.007495
 Sum of Mulliken charges =   1.00000   1.00000

 Dipole moment (field-independent basis, Debye):
    X=              2.1591    Y=              2.0567    Z=              0.0023  Tot=              2.9819
 Quadrupole moment (field-independent basis, Debye-Ang):
   XX=            -16.5548   YY=            -22.3110   ZZ=            -30.5947
   XY=              2.4157   XZ=             -0.0013   YZ=              0.0067

  Exact polarizability:  73.833   3.185  40.853  -0.009  -0.002  32.161
 Approx polarizability: 162.826  15.519  76.718  -0.023  -0.003  50.169

                      1                      2                      3
                      A                      A                      A
 Frequencies --    181.3597               226.7342               334.0016
 Red. masses --      1.1664                 2.9535                20.1287
 Frc consts  --      0.0226                 0.0895                 1.3230
 IR Inten    --     16.6890                12.8458                25.2604

                      4                      5                      6
                      A                      A                      A
 Frequencies --    419.3571               697.9403               798.3676
 Red. masses --      1.4771                 1.2364                 1.0738
 Frc consts  --      0.1530                 0.3549                 0.4033
 IR Inten    --     65.3385                41.6390                 4.0017

                      7                      8                      9
                      A                      A                      A
 Frequencies --   1186.7942              2645.4264              3275.1176
 Red. masses --      6.7929                 1.0391                 1.1103
 Frc consts  --      5.6371                 4.2844                 7.0170
 IR Inten    --     13.2688                28.6944               188.7469

 - Thermochemistry -
 -------------------
 Temperature   298.150 Kelvin.  Pressure   1.00000 Atm.
 Atom     1 has atomic number 16 and mass  31.97207

 Molecular mass:    77.95979 amu.
 Principal axes and moments of inertia in atomic units:
                           1         2         3
     Eigenvalues --    64.45500 419.56502 484.01994
           X            0.99982   0.01872  -0.00002
           Y           -0.01872   0.99982   0.00022
           Z            0.00002  -0.00022   1.00000
 This molecule is an asymmetric top.
 Rotational symmetry number  1.
 Rotational temperatures (Kelvin)      1.34379     0.20644     0.17895
 Rotational constants (GHZ):          28.00002     4.30146     3.72865
 Zero-point vibrational energy      58408.3 (Joules/Mol)
                                   13.95991 (Kcal/Mol)
 Warning -- explicit consideration of   4 degrees of freedom as
           vibrations may cause significant error
 Vibrational temperatures:    260.94   326.22   480.55   603.36  1004.18
          (Kelvin)           1148.67  1707.53  3806.17  4712.16

 Zero-point correction=                           0.022247 (Hartree/Particle)
 Thermal correction to Energy=                    0.027070
 Thermal correction to Enthalpy=                  0.028014
 Thermal correction to Gibbs Free Energy=        -0.005888
 Sum of electronic and zero-point Energies=           -835.339636
 Sum of electronic and thermal Energies=              -835.334813
 Sum of electronic and thermal Enthalpies=            -835.333868
 Sum of electronic and thermal Free Energies=         -835.367771

                     E (Thermal)             CV                S
                      KCal/Mol        Cal/Mol-Kelvin    Cal/Mol-Kelvin
 Total                   16.987             14.364             71.354
 Electronic               0.000              0.000              1.377
 Translational            0.889              2.981             38.976
 Rotational               0.889              2.981             24.085
 Vibrational             15.209              8.402              6.915
 Vibration     1          0.630              1.865              2.314
 Vibration     2          0.650              1.800              1.905
 Vibration     3          0.716              1.608              1.241
 Vibration     4          0.782              1.428              0.894

 Optimization completed.
    -- Stationary point found.
 Normal termination of Gaussian 09 at Wed Aug  3 20:40:56 2016.
