 Gaussian 09, Revision E.01,
 Gaussian 09:  EM64L-G09RevE.01 30-Nov-2015

 ------------------------------
 #p b3lyp/6-311++G(3df,2p) freq
 ------------------------------

 ---------
 b3lyp opt
 ---------
 Symbolic Z-matrix:
 Charge =  2 Multiplicity = 1

                         Standard orientation:
 ---------------------------------------------------------------------
 Center     Atomic      Atomic             Coordinates (Angstroms)
 Number     Number       Type             X           Y           Z
 ---------------------------------------------------------------------
      1         16           0       -0.000000    1.068239   -0.235383
      2         16           0       -0.000000   -1.068239   -0.235383
      3          6           0       -0.000000    0.000000    1.348236
      4          1           0       -1.379385    1.183201   -0.278576
      5          1           0        1.379385   -1.183201   -0.278576
 ---------------------------------------------------------------------

 SCF Done:  E(RB3LYP) =  -834.720652481     A.U. after   11 cycles

 The electronic state is 1-A.
 Alpha  occ. eigenvalues --  -89.46166 -89.46166 -10.84580  -8.54058  -8.54055
 Alpha  occ. eigenvalues --   -6.50355  -6.50339  -6.49932  -6.49932  -6.49796
 Alpha  occ. eigenvalues --   -6.49795  -1.40932  -1.22544  -1.10192  -0.97379
 Alpha  occ. eigenvalues --   -0.94772  -0.86752  -0.85817  -0.79863
 Alpha virt. eigenvalues --   -0.65009  -0.60127  -0.52182  -0.50104  -0.47491
 Alpha virt. eigenvalues --   -0.43961  -0.32693  -0.32366  -0.28842  -0.28548
 Alpha virt. eigenvalues --   -0.25734  -0.25557  -0.24119  -0.23757  -0.23626

 Mulliken charges:
               1
     1  S    0.468018
     2  S    0.468018
     3  C    0.449658
     4  H    0.307153
     5  H    0.307153
 Sum of Mulliken charges =   2.00000

 Dipole moment (field-independent basis, Debye):
    X=             -0.0000    Y=              0.0000    Z=             -0.5002  Tot=              0.5002
 Quadrupole moment (field-independent basis, Debye-Ang):
   XX=            -19.5352   YY=            -12.2551   ZZ=            -23.9166
   XY=             -4.7398   XZ=              0.0000   YZ=              0.0000

  Exact polarizability:  31.938  -4.263  49.325  -0.000  -0.000  39.325
 Approx polarizability:  57.641  -7.080 114.019  -0.000   0.000  86.165

                      1                      2                      3
                      B                      A                      B
 Frequencies --    388.5528               461.1266               556.4800
 Red. masses --      4.4120                13.3321                 1.3891
 Frc consts  --      0.3925                 1.6703                 0.2534
 IR Inten    --     40.2463                 1.0228                 8.0406

                      4                      5                      6
                      A                      A                      B
 Frequencies --    582.0580               646.2829               747.0071
 Red. masses --      1.1166                 8.9052                 1.0702
 Frc consts  --      0.2229                 2.1915                 0.3519
 IR Inten    --     27.0029               118.9224                52.5420

                      7                      8                      9
                      A                      B                      A
 Frequencies --    943.3435              2376.9921              2391.8890
 Red. masses --      1.0700                 1.0385                 1.0410
 Frc consts  --      0.5610                 3.4569                 3.5089
 IR Inten    --      0.4221               487.5895                13.0713

 - Thermochemistry -
 -------------------
 Temperature   298.150 Kelvin.  Pressure   1.00000 Atm.
 Atom     1 has atomic number 16 and mass  31.97207

 Molecular mass:    77.95979 amu.
 Principal axes and moments of inertia in atomic units:
                           1         2         3
     Eigenvalues --   104.25052 284.34908 362.28018
           X           -0.04558   0.00000   0.99896
           Y            0.99896  -0.00000   0.04558
           Z            0.00000   1.00000  -0.00000
 This molecule is an asymmetric top.
 Rotational symmetry number  2.
 Rotational temperatures (Kelvin)      0.83082     0.30460     0.23908
 Rotational constants (GHZ):          17.31158     6.34692     4.98162
 Zero-point vibrational energy      54392.6 (Joules/Mol)
                                   13.00014 (Kcal/Mol)
 Warning -- explicit consideration of   4 degrees of freedom as
           vibrations may cause significant error
 Vibrational temperatures:    559.04   663.46   800.65   837.45   929.86
          (Kelvin)           1074.78  1357.26  3419.96  3441.39

 Zero-point correction=                           0.020717 (Hartree/Particle)
 Thermal correction to Energy=                    0.024758
 Thermal correction to Enthalpy=                  0.025702
 Thermal correction to Gibbs Free Energy=        -0.005190
 Sum of electronic and zero-point Energies=           -834.699935
 Sum of electronic and thermal Energies=              -834.695895
 Sum of electronic and thermal Enthalpies=            -834.694950
 Sum of electronic and thermal Free Energies=         -834.725843

                     E (Thermal)             CV                S
                      KCal/Mol        Cal/Mol-Kelvin    Cal/Mol-Kelvin
 Total                   15.536             13.114             65.018
 Electronic               0.000              0.000              0.000
 Translational            0.889              2.981             38.976
 Rotational               0.889              2.981             22.511
 Vibrational             13.758              7.153              3.531
 Vibration     1          0.757              1.495              1.006
 Vibration     2          0.819              1.336              0.763
 Vibration     3          0.912              1.126              0.531
 Vibration     4          0.939              1.070              0.482

 Optimization completed.
    -- Stationary point found.
 Normal termination of Gaussian 09 at Wed Aug  3 23:08:53 2016.
