 Gaussian 09, Revision E.01,
 Gaussian 09:  EM64L-G09RevE.01 30-Nov-2015

 ------------------------------
 #p b3lyp/6-311++G(3df,2p) freq
 ------------------------------

 ---------
 b3lyp opt
 ---------
 Symbolic Z-matrix:
 Charge =  0 Multiplicity = 1

                         Standard orientation:
 ---------------------------------------------------------------------
 Center     Atomic      Atomic             Coordinates (Angstroms)
 Number     Number       Type             X           Y           Z
 ---------------------------------------------------------------------
      1         16           0       -1.531034   -0.159575   -0.000061
      2         16           0        1.498743   -0.082121   -0.000116
      3          6           0       -0.096881    0.593630    0.000188
      4          1           0        1.125601   -1.375468    0.001261
      5          1           0       -0.027663    1.680831    0.000449
 ---------------------------------------------------------------------

 SCF Done:  E(RB3LYP) =  -835.751364962     A.U. after   11 cycles

 The electronic state is 1-A.
 Alpha  occ. eigenvalues --  -88.89422 -88.84146 -10.27315  -7.98067  -7.92813
 Alpha  occ. eigenvalues --   -5.94376  -5.93973  -5.93660  -5.89030  -5.88959
 Alpha  occ. eigenvalues --   -5.88255  -0.84975  -0.74503  -0.60176  -0.45509
 Alpha  occ. eigenvalues --   -0.44342  -0.37598  -0.36850  -0.27135  -0.24078
 Alpha virt. eigenvalues --   -0.09463  -0.02761  -0.00405   0.00641   0.02832
 Alpha virt. eigenvalues --    0.04356   0.05021   0.05705   0.07277   0.07604
 Alpha virt. eigenvalues --    0.09386   0.10138   0.10203   0.11314   0.12113

 Mulliken charges:
               1
     1  S   -0.277694
     2  S   -0.140852
     3  C    0.098778
     4  H    0.134330
     5  H    0.185438
 Sum of Mulliken charges =  -0.00000

 Dipole moment (field-independent basis, Debye):
    X=              1.7343    Y=              0.1861    Z=              0.0007  Tot=              1.7442
 Quadrupole moment (field-independent basis, Debye-Ang):
   XX=            -34.9300   YY=            -29.8762   ZZ=            -33.9833
   XY=             -0.7572   XZ=              0.0007   YZ=             -0.0026

  Exact polarizability:  86.153   0.690  49.021  -0.016  -0.004  39.255
 Approx polarizability: 162.084   8.487  82.576   0.000  -0.002  62.484

                      1                      2                      3
                      A                      A                      A
 Frequencies --    324.2740               439.7853               683.6005
 Red. masses --      6.2328                 1.2974                 5.0656
 Frc consts  --      0.3861                 0.1478                 1.3947
 IR Inten    --      2.5026                 4.8397                39.5185

                      4                      5                      6
                      A                      A                      A
 Frequencies --    853.4426               945.4526              1071.0632
 Red. masses --      1.3488                 1.3577                 3.1592
 Frc consts  --      0.5788                 0.7150                 2.1353
 IR Inten    --     31.4845                53.4913               139.2439

                      7                      8                      9
                      A                      A                      A
 Frequencies --   1319.1434              2644.6796              3083.1379
 Red. masses --      1.3025                 1.0378                 1.0862
 Frc consts  --      1.3354                 4.2767                 6.0836
 IR Inten    --     57.1881                 1.3599                 5.7394

 - Thermochemistry -
 -------------------
 Temperature   298.150 Kelvin.  Pressure   1.00000 Atm.
 Atom     1 has atomic number 16 and mass  31.97207

 Molecular mass:    77.95979 amu.
 Principal axes and moments of inertia in atomic units:
                           1         2         3
     Eigenvalues --    35.68733 529.06859 564.75591
           X            0.99994  -0.01140   0.00001
           Y            0.01140   0.99994  -0.00010
           Z           -0.00001   0.00010   1.00000
 This molecule is an asymmetric top.
 Rotational symmetry number  1.
 Rotational temperatures (Kelvin)      2.42702     0.16371     0.15337
 Rotational constants (GHZ):          50.57092     3.41117     3.19561
 Zero-point vibrational energy      67975.3 (Joules/Mol)
                                   16.24648 (Kcal/Mol)
 Warning -- explicit consideration of   2 degrees of freedom as
           vibrations may cause significant error
 Vibrational temperatures:    466.56   632.75   983.55  1227.91  1360.29
          (Kelvin)           1541.02  1897.95  3805.10  4435.94

 Zero-point correction=                           0.025890 (Hartree/Particle)
 Thermal correction to Energy=                    0.029654
 Thermal correction to Enthalpy=                  0.030598
 Thermal correction to Gibbs Free Energy=        -0.000608
 Sum of electronic and zero-point Energies=           -835.725475
 Sum of electronic and thermal Energies=              -835.721711
 Sum of electronic and thermal Enthalpies=            -835.720767
 Sum of electronic and thermal Free Energies=         -835.751973

                     E (Thermal)             CV                S
                      KCal/Mol        Cal/Mol-Kelvin    Cal/Mol-Kelvin
 Total                   18.608             11.286             65.679
 Electronic               0.000              0.000              0.000
 Translational            0.889              2.981             38.976
 Rotational               0.889              2.981             23.882
 Vibrational             16.831              5.325              2.822
 Vibration     1          0.709              1.627              1.288
 Vibration     2          0.800              1.383              0.827

 Optimization completed.
    -- Stationary point found.
 Normal termination of Gaussian 09 at Wed Aug  3 20:40:00 2016.
