 Gaussian 09, Revision E.01,
 Gaussian 09:  EM64L-G09RevE.01 30-Nov-2015

 ------------------------------
 #p b3lyp/6-311++G(3df,2p) freq
 ------------------------------

 ---------
 b3lyp opt
 ---------
 Symbolic Z-matrix:
 Charge =  0 Multiplicity = 3

                         Standard orientation:
 ---------------------------------------------------------------------
 Center     Atomic      Atomic             Coordinates (Angstroms)
 Number     Number       Type             X           Y           Z
 ---------------------------------------------------------------------
      1         16           0       -1.552170   -0.069537   -0.086138
      2         16           0        1.529277   -0.180098   -0.011955
      3          6           0       -0.007467    0.563302    0.027812
      4          1           0       -1.843711   -0.322015    1.221926
      5          1           0        2.254818    0.936357    0.180694
 ---------------------------------------------------------------------

 SCF Done:  E(UB3LYP) =  -835.650893101     A.U. after   14 cycles

 The electronic state is 3-A.
 Alpha  occ. eigenvalues --  -88.88815 -88.88685 -10.23711  -7.97248  -7.97144
 Alpha  occ. eigenvalues --   -5.93538  -5.93431  -5.93207  -5.93163  -5.92944
 Alpha  occ. eigenvalues --   -5.92829  -0.84393  -0.76932  -0.58428  -0.46906
 Alpha  occ. eigenvalues --   -0.43283  -0.39897  -0.33749  -0.32675  -0.22587
 Alpha  occ. eigenvalues --   -0.19794
 Alpha virt. eigenvalues --   -0.02406  -0.00525  -0.00375   0.02028   0.03994
 Alpha virt. eigenvalues --    0.04156   0.05603   0.06539   0.07081   0.08536
 Alpha virt. eigenvalues --    0.09548   0.10244   0.10915   0.11093   0.11937

  Beta  occ. eigenvalues --  -88.88678 -88.88507 -10.21398  -7.97104  -7.96978
  Beta  occ. eigenvalues --   -5.93447  -5.93283  -5.93079  -5.92961  -5.92571
  Beta  occ. eigenvalues --   -5.92409  -0.81904  -0.75783  -0.54880  -0.45392
  Beta  occ. eigenvalues --   -0.40328  -0.37696  -0.30290  -0.29739
  Beta virt. eigenvalues --   -0.10368  -0.07831  -0.02041   0.00063   0.00682
  Beta virt. eigenvalues --    0.02533   0.04109   0.04301   0.05907   0.06656
  Beta virt. eigenvalues --    0.07759   0.08991   0.10031   0.10902   0.11279

 Mulliken charges and spin densities:
               1          2
     1  S   -0.103736   0.226393
     2  S   -0.181041   0.304451
     3  C    0.019679   1.358945
     4  H    0.112026   0.098060
     5  H    0.153072   0.012151
 Sum of Mulliken charges =  -0.00000   2.00000

 Dipole moment (field-independent basis, Debye):
    X=              0.3199    Y=              0.0158    Z=              0.8075  Tot=              0.8687
 Quadrupole moment (field-independent basis, Debye-Ang):
   XX=            -29.2232   YY=            -33.7284   ZZ=            -33.1647
   XY=              2.7496   XZ=             -1.2603   YZ=             -0.1393

  Exact polarizability:  86.916   2.521  46.387  -2.313  -0.725  44.907
 Approx polarizability: 130.668   6.127  75.537  -3.464  -1.127  69.810

                      1                      2                      3
                      A                      A                      A
 Frequencies --     87.7965               249.6385               404.3178
 Red. masses --      1.3409                10.1557                 1.1322
 Frc consts  --      0.0061                 0.3729                 0.1090
 IR Inten    --     19.5118                 2.2825                10.9770

                      4                      5                      6
                      A                      A                      A
 Frequencies --    589.2919               902.8470               923.8501
 Red. masses --      9.6373                 1.2844                 1.1780
 Frc consts  --      1.9718                 0.6168                 0.5924
 IR Inten    --      3.7991                 4.4935                11.8188

                      7                      8                      9
                      A                      A                      A
 Frequencies --   1094.0424              2446.8902              2650.5064
 Red. masses --      4.1942                 1.0402                 1.0387
 Frc consts  --      2.9578                 3.6693                 4.2995
 IR Inten    --     23.7420                44.1552                 0.2332

 - Thermochemistry -
 -------------------
 Temperature   298.150 Kelvin.  Pressure   1.00000 Atm.
 Atom     1 has atomic number 16 and mass  31.97207

 Molecular mass:    77.95979 amu.
 Principal axes and moments of inertia in atomic units:
                           1         2         3
     Eigenvalues --    27.42376 579.03314 594.10692
           X            0.99978   0.01666  -0.01243
           Y           -0.01735   0.99820  -0.05749
           Z            0.01145   0.05769   0.99827
 This molecule is an asymmetric top.
 Rotational symmetry number  1.
 Rotational temperatures (Kelvin)      3.15835     0.14958     0.14579
 Rotational constants (GHZ):          65.80939     3.11682     3.03774
 Zero-point vibrational energy      55920.5 (Joules/Mol)
                                   13.36532 (Kcal/Mol)
 Warning -- explicit consideration of   4 degrees of freedom as
           vibrations may cause significant error
 Vibrational temperatures:    126.32   359.17   581.72   847.86  1298.99
          (Kelvin)           1329.21  1574.08  3520.52  3813.48

 Zero-point correction=                           0.021299 (Hartree/Particle)
 Thermal correction to Energy=                    0.025976
 Thermal correction to Enthalpy=                  0.026921
 Thermal correction to Gibbs Free Energy=        -0.007339
 Sum of electronic and zero-point Energies=           -835.629594
 Sum of electronic and thermal Energies=              -835.624917
 Sum of electronic and thermal Enthalpies=            -835.623973
 Sum of electronic and thermal Free Energies=         -835.658232

                     E (Thermal)             CV                S
                      KCal/Mol        Cal/Mol-Kelvin    Cal/Mol-Kelvin
 Total                   16.300             13.451             72.105
 Electronic               0.000              0.000              2.183
 Translational            0.889              2.981             38.976
 Rotational               0.889              2.981             23.760
 Vibrational             14.523              7.489              7.186
 Vibration     1          0.601              1.958              3.709
 Vibration     2          0.662              1.763              1.733
 Vibration     3          0.770              1.461              0.947
 Vibration     4          0.947              1.055              0.468

 Normal termination of Gaussian 09 at Wed Aug  3 20:40:56 2016.
