 Gaussian 09, Revision E.01,
 Gaussian 09:  EM64L-G09RevE.01 30-Nov-2015

 ------------------------------
 #p b3lyp/6-311++G(3df,2p) freq
 ------------------------------

 ---------
 b3lyp opt
 ---------
 Symbolic Z-matrix:
 Charge =  0 Multiplicity = 3

                         Standard orientation:
 ---------------------------------------------------------------------
 Center     Atomic      Atomic             Coordinates (Angstroms)
 Number     Number       Type             X           Y           Z
 ---------------------------------------------------------------------
      1         16           0       -0.503376   -0.093013    0.012933
      2          6           0        1.161649    0.049353   -0.144410
      3          1           0        1.948551   -0.022266    0.597520
      4          1           0       -0.864428    1.214356    0.062019
 ---------------------------------------------------------------------

 SCF Done:  E(UB3LYP) =  -437.411423030     A.U. after   13 cycles

 The electronic state is 3-A.
 Alpha  occ. eigenvalues --  -88.88581 -10.22726  -7.97063  -5.93338  -5.93052
 Alpha  occ. eigenvalues --   -5.92748  -0.81715  -0.62633  -0.47255  -0.40680
 Alpha  occ. eigenvalues --   -0.34493  -0.24598  -0.22535
 Alpha virt. eigenvalues --   -0.01716   0.00195   0.02347   0.04521   0.05120
 Alpha virt. eigenvalues --    0.07624   0.08813   0.09161   0.09822   0.10568
 Alpha virt. eigenvalues --    0.13440   0.15119   0.16861   0.18150   0.24490

  Beta  occ. eigenvalues --  -88.88435 -10.20171  -7.96912  -5.93254  -5.92889
  Beta  occ. eigenvalues --   -5.92365  -0.79229  -0.57655  -0.45258  -0.38013
  Beta  occ. eigenvalues --   -0.30138
  Beta virt. eigenvalues --   -0.09386  -0.08888  -0.01175   0.00864   0.02760
  Beta virt. eigenvalues --    0.04724   0.05385   0.08084   0.09659   0.10091
  Beta virt. eigenvalues --    0.11026   0.11829   0.13781   0.15642   0.18247

 Mulliken charges and spin densities:
               1          2
     1  S   -0.053840   0.251842
     2  C   -0.248222   1.632019
     3  H    0.171987   0.024614
     4  H    0.130074   0.091525
 Sum of Mulliken charges =  -0.00000   2.00000

 Dipole moment (field-independent basis, Debye):
    X=             -0.2646    Y=              0.7115    Z=              0.7779  Tot=              1.0869
 Quadrupole moment (field-independent basis, Debye-Ang):
   XX=            -19.0040   YY=            -19.1684   ZZ=            -21.5849
   XY=             -1.2077   XZ=              1.3958   YZ=              0.0722

  Exact polarizability:  46.562  -1.153  29.391  -1.819  -0.053  29.538
 Approx polarizability:  70.576  -2.201  44.210  -3.990  -0.132  41.127

                      1                      2                      3
                      A                      A                      A
 Frequencies --    456.4964               826.0098               867.1001
 Red. masses --      1.1126                 2.0222                 1.4365
 Frc consts  --      0.1366                 0.8129                 0.6364
 IR Inten    --     18.1497                11.0781                19.9205

                      4                      5                      6
                      A                      A                      A
 Frequencies --    931.2957              2515.1670              3154.3943
 Red. masses --      1.4897                 1.0392                 1.0896
 Frc consts  --      0.7613                 3.8733                 6.3875
 IR Inten    --      5.5433                 6.0327                 5.0637

 - Thermochemistry -
 -------------------
 Temperature   298.150 Kelvin.  Pressure   1.00000 Atm.
 Atom     1 has atomic number 16 and mass  31.97207

 Molecular mass:    45.98772 amu.
 Principal axes and moments of inertia in atomic units:
                           1         2         3
     Eigenvalues --     8.16666 105.34513 109.47851
           X            0.99846  -0.04011   0.03826
           Y            0.03892   0.99874   0.03156
           Z           -0.03948  -0.03002   0.99877
 This molecule is an asymmetric top.
 Rotational symmetry number  1.
 Rotational temperatures (Kelvin)     10.60578     0.82219     0.79115
 Rotational constants (GHZ):         220.98883    17.13170    16.48489
 Zero-point vibrational energy      52339.4 (Joules/Mol)
                                   12.50942 (Kcal/Mol)
 Warning -- explicit consideration of   1 degrees of freedom as
           vibrations may cause significant error
 Vibrational temperatures:    656.80  1188.44  1247.56  1339.93  3618.76
          (Kelvin)           4538.46

 Zero-point correction=                           0.019935 (Hartree/Particle)
 Thermal correction to Energy=                    0.023206
 Thermal correction to Enthalpy=                  0.024150
 Thermal correction to Gibbs Free Energy=        -0.004364
 Sum of electronic and zero-point Energies=           -437.391488
 Sum of electronic and thermal Energies=              -437.388217
 Sum of electronic and thermal Enthalpies=            -437.387273
 Sum of electronic and thermal Free Energies=         -437.415787

                     E (Thermal)             CV                S
                      KCal/Mol        Cal/Mol-Kelvin    Cal/Mol-Kelvin
 Total                   14.562              8.924             60.014
 Electronic               0.000              0.000              2.183
 Translational            0.889              2.981             37.403
 Rotational               0.889              2.981             19.183
 Vibrational             12.785              2.962              1.246
 Vibration     1          0.815              1.347              0.776

 Optimization completed.
    -- Stationary point found.
 Normal termination of Gaussian 09 at Wed Aug  3 20:08:12 2016.
