 Gaussian 09, Revision E.01,
 Gaussian 09:  EM64L-G09RevE.01 30-Nov-2015

 ------------------------------
 #p b3lyp/6-311++G(3df,2p) freq
 ------------------------------

 ---------
 b3lyp opt
 ---------
 Symbolic Z-matrix:
 Charge =  0 Multiplicity = 1

                         Standard orientation:
 ---------------------------------------------------------------------
 Center     Atomic      Atomic             Coordinates (Angstroms)
 Number     Number       Type             X           Y           Z
 ---------------------------------------------------------------------
      1         16           0        0.982594   -0.260273   -0.099443
      2         16           0       -1.058040   -0.291604   -0.002239
      3          6           0       -0.017157    1.277728    0.208350
      4          1           0        0.000879    1.709460   -0.805315
      5          1           0        1.309195   -0.545794    1.182136
 ---------------------------------------------------------------------

 SCF Done:  E(RB3LYP) =  -835.643001851     A.U. after   13 cycles

 The electronic state is 1-A.
 Alpha  occ. eigenvalues --  -88.95087 -88.88397 -10.20956  -8.03233  -7.96747
 Alpha  occ. eigenvalues --   -5.99499  -5.99149  -5.98957  -5.93292  -5.92734
 Alpha  occ. eigenvalues --   -5.92053  -0.89582  -0.69037  -0.61154  -0.47511
 Alpha  occ. eigenvalues --   -0.43615  -0.37595  -0.33144  -0.28862  -0.21417
 Alpha virt. eigenvalues --   -0.08893  -0.03498  -0.02956  -0.00019   0.01292
 Alpha virt. eigenvalues --    0.03554   0.05693   0.06456   0.06602   0.07129
 Alpha virt. eigenvalues --    0.07665   0.08349   0.08920   0.11143   0.12812

 Mulliken charges:
               1
     1  S    0.080014
     2  S   -0.109498
     3  C   -0.321846
     4  H    0.179016
     5  H    0.172315
 Sum of Mulliken charges =  -0.00000

 Dipole moment (field-independent basis, Debye):
    X=              1.5962    Y=             -1.6256    Z=             -0.5102  Tot=              2.3347
 Quadrupole moment (field-independent basis, Debye-Ang):
   XX=            -29.5464   YY=            -35.6236   ZZ=            -33.7984
   XY=             -1.4240   XZ=              1.2375   YZ=             -3.7012

  Exact polarizability:  61.249   0.466  58.347   1.276   2.204  44.839
 Approx polarizability: 122.677  -1.334 105.911   0.816   4.505  70.736

                      1                      2                      3
                      A                      A                      A
 Frequencies --    397.5489               499.4648               628.1250
 Red. masses --     10.8367                16.4052                10.3425
 Frc consts  --      1.0091                 2.4112                 2.4042
 IR Inten    --      3.7956                 1.1955                 6.6779

                      4                      5                      6
                      A                      A                      A
 Frequencies --    705.2701               886.6596              1061.4742
 Red. masses --      1.1459                 1.0629                 1.0745
 Frc consts  --      0.3358                 0.4923                 0.7133
 IR Inten    --      9.6046                 1.4049                 3.7704

                      7                      8                      9
                      A                      A                      A
 Frequencies --   1115.6065              2576.7807              2961.4830
 Red. masses --      1.1009                 1.0400                 1.0857
 Frc consts  --      0.8073                 4.0685                 5.6102
 IR Inten    --      5.1949                 0.8672                26.9623

 - Thermochemistry -
 -------------------
 Temperature   298.150 Kelvin.  Pressure   1.00000 Atm.
 Atom     1 has atomic number 16 and mass  31.97207

 Molecular mass:    77.95979 amu.
 Principal axes and moments of inertia in atomic units:
                           1         2         3
     Eigenvalues --   109.11584 253.95351 343.79377
           X            0.99961  -0.01384   0.02418
           Y            0.01574   0.99664  -0.08036
           Z           -0.02299   0.08071   0.99647
 This molecule is an asymmetric top.
 Rotational symmetry number  1.
 Rotational temperatures (Kelvin)      0.79378     0.34106     0.25194
 Rotational constants (GHZ):          16.53968     7.10658     5.24949
 Zero-point vibrational energy      64792.2 (Joules/Mol)
                                   15.48571 (Kcal/Mol)
 Warning -- explicit consideration of   2 degrees of freedom as
           vibrations may cause significant error
 Vibrational temperatures:    571.98   718.62   903.73  1014.73  1275.70
          (Kelvin)           1527.22  1605.11  3707.41  4260.91

 Zero-point correction=                           0.024678 (Hartree/Particle)
 Thermal correction to Energy=                    0.028412
 Thermal correction to Enthalpy=                  0.029356
 Thermal correction to Gibbs Free Energy=        -0.001698
 Sum of electronic and zero-point Energies=           -835.618324
 Sum of electronic and thermal Energies=              -835.614590
 Sum of electronic and thermal Enthalpies=            -835.613646
 Sum of electronic and thermal Free Energies=         -835.644700

                     E (Thermal)             CV                S
                      KCal/Mol        Cal/Mol-Kelvin    Cal/Mol-Kelvin
 Total                   17.829             11.582             65.359
 Electronic               0.000              0.000              0.000
 Translational            0.889              2.981             38.976
 Rotational               0.889              2.981             23.770
 Vibrational             16.051              5.620              2.614
 Vibration     1          0.764              1.475              0.972
 Vibration     2          0.855              1.251              0.659

 Optimization completed.
    -- Stationary point found.
 Normal termination of Gaussian 09 at Wed Aug  3 20:37:43 2016.
