 Gaussian 09, Revision E.01,
 Gaussian 09:  EM64L-G09RevE.01 30-Nov-2015

 ------------------------------
 #p b3lyp/6-311++G(3df,2p) freq
 ------------------------------

 ---------
 b3lyp opt
 ---------
 Symbolic Z-matrix:
 Charge =  0 Multiplicity = 1

                         Standard orientation:
 ---------------------------------------------------------------------
 Center     Atomic      Atomic             Coordinates (Angstroms)
 Number     Number       Type             X           Y           Z
 ---------------------------------------------------------------------
      1         16           0       -1.460934    0.083174   -0.000327
      2         16           0        0.730021   -0.490032    0.000278
      3          6           0        1.851203    0.574972   -0.000363
      4          1           0        1.799849    1.657059   -0.001085
      5          1           0       -1.212453    1.402835    0.004040
 ---------------------------------------------------------------------

 SCF Done:  E(RB3LYP) =  -835.683377100     A.U. after   12 cycles

 The electronic state is 1-A.
 Alpha  occ. eigenvalues --  -88.93128 -88.85899 -10.23326  -8.01269  -7.94494
 Alpha  occ. eigenvalues --   -5.97575  -5.97191  -5.96939  -5.90758  -5.90522
 Alpha  occ. eigenvalues --   -5.90010  -0.85197  -0.72812  -0.59759  -0.48059
 Alpha  occ. eigenvalues --   -0.39709  -0.37167  -0.36933  -0.26498  -0.25368
 Alpha virt. eigenvalues --   -0.10067  -0.07426  -0.01684   0.00142   0.02347
 Alpha virt. eigenvalues --    0.04420   0.04507   0.05668   0.06409   0.07494
 Alpha virt. eigenvalues --    0.07899   0.08628   0.09748   0.11652   0.12042

 Mulliken charges:
               1
     1  S   -0.215786
     2  S    0.105125
     3  C   -0.213410
     4  H    0.220445
     5  H    0.103627
 Sum of Mulliken charges =  -0.00000

 Dipole moment (field-independent basis, Debye):
    X=              0.2101    Y=              1.2374    Z=              0.0015  Tot=              1.2551
 Quadrupole moment (field-independent basis, Debye-Ang):
   XX=            -38.2217   YY=            -28.3976   ZZ=            -34.4033
   XY=              0.8738   XZ=             -0.0040   YZ=              0.0096

  Exact polarizability: 102.965   3.269  49.548  -0.006  -0.005  41.434
 Approx polarizability: 234.494  20.791  89.628  -0.008   0.004  65.531

                      1                      2                      3
                      A                      A                      A
 Frequencies --    152.4069               228.9743               349.8120
 Red. masses --      1.1465                 3.5794                15.7449
 Frc consts  --      0.0157                 0.1106                 1.1352
 IR Inten    --      5.8112                58.6805                97.7641

                      4                      5                      6
                      A                      A                      A
 Frequencies --    672.7762               736.7774               780.7643
 Red. masses --      1.1294                 1.3890                 1.2946
 Frc consts  --      0.3012                 0.4443                 0.4650
 IR Inten    --    158.7751               158.0638                32.9073

                      7                      8                      9
                      A                      A                      A
 Frequencies --   1183.1462              2682.2511              3185.9219
 Red. masses --      5.0255                 1.0389                 1.0968
 Frc consts  --      4.1448                 4.4036                 6.5592
 IR Inten    --     34.1573                 2.7715                 0.7912

 - Thermochemistry -
 -------------------
 Temperature   298.150 Kelvin.  Pressure   1.00000 Atm.
 Atom     1 has atomic number 16 and mass  31.97207

 Molecular mass:    77.95979 amu.
 Principal axes and moments of inertia in atomic units:
                           1         2         3
     Eigenvalues --    58.86846 468.37319 527.24148
           X            0.99994   0.01116  -0.00005
           Y           -0.01116   0.99994   0.00024
           Z            0.00005  -0.00023   1.00000
 This molecule is an asymmetric top.
 Rotational symmetry number  1.
 Rotational temperatures (Kelvin)      1.47131     0.18492     0.16428
 Rotational constants (GHZ):          30.65719     3.85321     3.42299
 Zero-point vibrational energy      59650.8 (Joules/Mol)
                                   14.25688 (Kcal/Mol)
 Warning -- explicit consideration of   3 degrees of freedom as
           vibrations may cause significant error
 Vibrational temperatures:    219.28   329.44   503.30   967.97  1060.06
          (Kelvin)           1123.34  1702.28  3859.16  4583.83

 Zero-point correction=                           0.022720 (Hartree/Particle)
 Thermal correction to Energy=                    0.027395
 Thermal correction to Enthalpy=                  0.028339
 Thermal correction to Gibbs Free Energy=        -0.004794
 Sum of electronic and zero-point Energies=           -835.660657
 Sum of electronic and thermal Energies=              -835.655982
 Sum of electronic and thermal Enthalpies=            -835.655038
 Sum of electronic and thermal Free Energies=         -835.688172

                     E (Thermal)             CV                S
                      KCal/Mol        Cal/Mol-Kelvin    Cal/Mol-Kelvin
 Total                   17.190             13.777             69.735
 Electronic               0.000              0.000              0.000
 Translational            0.889              2.981             38.976
 Rotational               0.889              2.981             24.190
 Vibrational             15.413              7.815              6.569
 Vibration     1          0.619              1.900              2.642
 Vibration     2          0.652              1.797              1.887
 Vibration     3          0.727              1.576              1.167

 Normal termination of Gaussian 09 at Wed Aug  3 20:37:43 2016.
