 Gaussian 09, Revision E.01,
 Gaussian 09:  EM64L-G09RevE.01 30-Nov-2015

 ------------------------------
 #p b3lyp/6-311++G(3df,2p) freq
 ------------------------------

 ---------
 b3lyp opt
 ---------
 Symbolic Z-matrix:
 Charge =  2 Multiplicity = 3

                         Standard orientation:
 ---------------------------------------------------------------------
 Center     Atomic      Atomic             Coordinates (Angstroms)
 Number     Number       Type             X           Y           Z
 ---------------------------------------------------------------------
      1         16           0       -1.478943   -0.243217    0.000000
      2         16           0        1.548869    0.004009   -0.000000
      3          6           0        0.000000    0.608738   -0.000000
      4          1           0       -0.111034    1.705835   -0.000000
      5          1           0       -1.007772   -1.530929    0.000000
 ---------------------------------------------------------------------

 SCF Done:  E(UB3LYP) =  -834.827020888     A.U. after   14 cycles

 The electronic state is 3-A".
 Alpha  occ. eigenvalues --  -89.45924 -89.44059 -10.76584  -8.53571  -8.51926
 Alpha  occ. eigenvalues --   -6.50238  -6.49939  -6.49263  -6.48520  -6.48005
 Alpha  occ. eigenvalues --   -6.47528  -1.37028  -1.28333  -1.09603  -0.95567
 Alpha  occ. eigenvalues --   -0.95371  -0.87830  -0.86167  -0.80740  -0.80626
 Alpha virt. eigenvalues --   -0.58433  -0.47556  -0.41421  -0.38488  -0.35578
 Alpha virt. eigenvalues --   -0.32809  -0.30159  -0.29305  -0.26530  -0.26472
 Alpha virt. eigenvalues --   -0.25210  -0.24975  -0.22787  -0.22528  -0.21305

  Beta  occ. eigenvalues --  -89.44863 -89.43560 -10.77044  -8.52607  -8.51469
  Beta  occ. eigenvalues --   -6.48673  -6.48280  -6.47989  -6.47640  -6.47189
  Beta  occ. eigenvalues --   -6.47104  -1.34879  -1.23854  -1.07670  -0.93981
  Beta  occ. eigenvalues --   -0.93388  -0.84696  -0.84400
  Beta virt. eigenvalues --   -0.68710  -0.66091  -0.56687  -0.46685  -0.39778
  Beta virt. eigenvalues --   -0.36798  -0.34936  -0.31898  -0.28088  -0.27943
  Beta virt. eigenvalues --   -0.26134  -0.25187  -0.24198  -0.22662  -0.21473

 Mulliken charges and spin densities:
               1          2
     1  S    0.516589   0.726812
     2  S    0.674398   1.543241
     3  C    0.253378  -0.293475
     4  H    0.295601   0.035547
     5  H    0.260034  -0.012125
 Sum of Mulliken charges =   2.00000   2.00000

 Dipole moment (field-independent basis, Debye):
    X=              0.0904    Y=             -0.3186    Z=              0.0000  Tot=              0.3312
 Quadrupole moment (field-independent basis, Debye-Ang):
   XX=             -4.6966   YY=            -17.9226   ZZ=            -25.5797
   XY=              3.2308   XZ=             -0.0000   YZ=             -0.0000

  Exact polarizability:  63.174   3.630  34.101   0.000  -0.000  25.593
 Approx polarizability: 124.770   5.451  57.354  -0.000  -0.000  40.904

                      1                      2                      3
                     A'                     A"                     A'
 Frequencies --    259.4265               386.8389               679.5297
 Red. masses --      7.6031                 1.4244                 8.2428
 Frc consts  --      0.3015                 0.1256                 2.2425
 IR Inten    --      3.8067                19.3469                 8.5938

                      4                      5                      6
                     A'                     A"                     A'
 Frequencies --    767.6319               844.2018               965.8535
 Red. masses --      6.2157                 1.2378                 1.1313
 Frc consts  --      2.1580                 0.5197                 0.6218
 IR Inten    --     73.5325                43.2127                19.0461

                      7                      8                      9
                     A'                     A'                     A'
 Frequencies --   1243.8513              2499.5214              2981.9801
 Red. masses --      1.1356                 1.0404                 1.0848
 Frc consts  --      1.0351                 3.8295                 5.6834
 IR Inten    --     21.6875                95.8357               158.0800

 - Thermochemistry -
 -------------------
 Temperature   298.150 Kelvin.  Pressure   1.00000 Atm.
 Atom     1 has atomic number 16 and mass  31.97207

 Molecular mass:    77.95979 amu.
 Principal axes and moments of inertia in atomic units:
                           1         2         3
     Eigenvalues --    37.10081 531.71844 568.81925
           X            0.99550  -0.09476   0.00000
           Y            0.09476   0.99550   0.00000
           Z           -0.00000  -0.00000   1.00000
 This molecule is an asymmetric top.
 Rotational symmetry number  1.
 Rotational temperatures (Kelvin)      2.33455     0.16289     0.15227
 Rotational constants (GHZ):          48.64425     3.39417     3.17279
 Zero-point vibrational energy      63574.6 (Joules/Mol)
                                   15.19468 (Kcal/Mol)
 Warning -- explicit consideration of   2 degrees of freedom as
           vibrations may cause significant error
 Vibrational temperatures:    373.26   556.57   977.69  1104.45  1214.62
          (Kelvin)           1389.65  1789.62  3596.25  4290.40

 Zero-point correction=                           0.024214 (Hartree/Particle)
 Thermal correction to Energy=                    0.028175
 Thermal correction to Enthalpy=                  0.029119
 Thermal correction to Gibbs Free Energy=        -0.003500
 Sum of electronic and zero-point Energies=           -834.802807
 Sum of electronic and thermal Energies=              -834.798846
 Sum of electronic and thermal Enthalpies=            -834.797902
 Sum of electronic and thermal Free Energies=         -834.830521

                     E (Thermal)             CV                S
                      KCal/Mol        Cal/Mol-Kelvin    Cal/Mol-Kelvin
 Total                   17.680             11.958             68.652
 Electronic               0.000              0.000              2.183
 Translational            0.889              2.981             38.976
 Rotational               0.889              2.981             23.932
 Vibrational             15.902              5.996              3.561
 Vibration     1          0.668              1.747              1.666
 Vibration     2          0.755              1.498              1.012

 Optimization completed.
    -- Stationary point found.
 Normal termination of Gaussian 09 at Wed Aug  3 23:09:29 2016.
