 Gaussian 09, Revision E.01,
 Gaussian 09:  EM64L-G09RevE.01 30-Nov-2015

 ------------------------------
 #p b3lyp/6-311++G(3df,2p) freq
 ------------------------------

 ---------
 b3lyp opt
 ---------
 Symbolic Z-matrix:
 Charge =  1 Multiplicity = 4

                         Standard orientation:
 ---------------------------------------------------------------------
 Center     Atomic      Atomic             Coordinates (Angstroms)
 Number     Number       Type             X           Y           Z
 ---------------------------------------------------------------------
      1         16           0        1.239815    0.297379   -0.016156
      2         16           0       -0.609746   -0.610625   -0.000248
      3          6           0       -1.640774    0.758118   -0.119793
      4          1           0       -2.148697    1.299880    0.674126
      5          1           0        1.912230   -0.836660    0.307097
 ---------------------------------------------------------------------

 SCF Done:  E(UB3LYP) =  -835.299543397     A.U. after   15 cycles

 The electronic state is 4-A.
 Alpha  occ. eigenvalues --  -89.17536 -89.17018 -10.47740  -8.25721  -8.25037
 Alpha  occ. eigenvalues --   -6.21985  -6.21928  -6.21475  -6.21263  -6.21100
 Alpha  occ. eigenvalues --   -6.20885  -1.10781  -0.99563  -0.84259  -0.70700
 Alpha  occ. eigenvalues --   -0.68993  -0.63042  -0.61421  -0.54933  -0.48811
 Alpha  occ. eigenvalues --   -0.46727
 Alpha virt. eigenvalues --   -0.29007  -0.21679  -0.20656  -0.15052  -0.11794
 Alpha virt. eigenvalues --   -0.10851  -0.10420  -0.09988  -0.08754  -0.07880
 Alpha virt. eigenvalues --   -0.06573  -0.06190  -0.05385  -0.03698  -0.03058

  Beta  occ. eigenvalues --  -89.17005 -89.16656 -10.44923  -8.25230  -8.24686
  Beta  occ. eigenvalues --   -6.21416  -6.21137  -6.21094  -6.20634  -6.20616
  Beta  occ. eigenvalues --   -6.19989  -1.07923  -0.95282  -0.79068  -0.69223
  Beta  occ. eigenvalues --   -0.66659  -0.59121  -0.56855
  Beta virt. eigenvalues --   -0.42174  -0.34005  -0.30795  -0.26555  -0.19661
  Beta virt. eigenvalues --   -0.18160  -0.14378  -0.11257  -0.10486  -0.09829
  Beta virt. eigenvalues --   -0.09345  -0.07844  -0.06706  -0.05781  -0.04699

 Mulliken charges and spin densities:
               1          2
     1  S    0.293563   0.727819
     2  S    0.277460   0.540371
     3  C   -0.008243   1.708610
     4  H    0.224115   0.023723
     5  H    0.213105  -0.000523
 Sum of Mulliken charges =   1.00000   3.00000

 Dipole moment (field-independent basis, Debye):
    X=              0.8232    Y=             -0.0468    Z=              0.8123  Tot=              1.1575
 Quadrupole moment (field-independent basis, Debye-Ang):
   XX=            -16.2067   YY=            -25.8069   ZZ=            -29.4248
   XY=             -2.9258   XZ=             -0.8066   YZ=              0.6364

  Exact polarizability:  72.994  -2.111  42.072   1.022  -0.315  32.066
 Approx polarizability: 139.393   6.121  74.059   2.999  -1.546  49.797

                      1                      2                      3
                      A                      A                      A
 Frequencies --    218.8339               343.1781               440.7491
 Red. masses --      4.8432                 1.1140                 3.0865
 Frc consts  --      0.1366                 0.0773                 0.3533
 IR Inten    --      2.8236                20.3970                12.1431

                      4                      5                      6
                      A                      A                      A
 Frequencies --    500.6414               776.5271               852.5875
 Red. masses --      1.7279                 4.6786                 1.2288
 Frc consts  --      0.2552                 1.6622                 0.5263
 IR Inten    --      9.0051                 3.7460                11.0495

                      7                      8                      9
                      A                      A                      A
 Frequencies --    880.4784              2591.9580              3149.6381
 Red. masses --      1.1901                 1.0389                 1.0890
 Frc consts  --      0.5436                 4.1122                 6.3650
 IR Inten    --      8.1209                65.6123                37.6577

 - Thermochemistry -
 -------------------
 Temperature   298.150 Kelvin.  Pressure   1.00000 Atm.
 Atom     1 has atomic number 16 and mass  31.97207

 Molecular mass:    77.95979 amu.
 Principal axes and moments of inertia in atomic units:
                           1         2         3
     Eigenvalues --    87.57783 366.46225 449.07241
           X            0.99842  -0.05531  -0.00971
           Y            0.05557   0.99805   0.02834
           Z            0.00812  -0.02883   0.99955
 This molecule is an asymmetric top.
 Rotational symmetry number  1.
 Rotational temperatures (Kelvin)      0.98899     0.23635     0.19287
 Rotational constants (GHZ):          20.60728     4.92477     4.01882
 Zero-point vibrational energy      58345.4 (Joules/Mol)
                                   13.94489 (Kcal/Mol)
 Warning -- explicit consideration of   4 degrees of freedom as
           vibrations may cause significant error
 Vibrational temperatures:    314.85   493.76   634.14   720.31  1117.25
          (Kelvin)           1226.68  1266.81  3729.24  4531.62

 Zero-point correction=                           0.022223 (Hartree/Particle)
 Thermal correction to Energy=                    0.026659
 Thermal correction to Enthalpy=                  0.027604
 Thermal correction to Gibbs Free Energy=        -0.006181
 Sum of electronic and zero-point Energies=           -835.277321
 Sum of electronic and thermal Energies=              -835.272884
 Sum of electronic and thermal Enthalpies=            -835.271940
 Sum of electronic and thermal Free Energies=         -835.305724

                     E (Thermal)             CV                S
                      KCal/Mol        Cal/Mol-Kelvin    Cal/Mol-Kelvin
 Total                   16.729             13.780             71.105
 Electronic               0.000              0.000              2.755
 Translational            0.889              2.981             38.976
 Rotational               0.889              2.981             24.181
 Vibrational             14.952              7.818              5.194
 Vibration     1          0.647              1.812              1.969
 Vibration     2          0.722              1.589              1.197
 Vibration     3          0.801              1.381              0.824
 Vibration     4          0.856              1.249              0.657

 Optimization completed.
    -- Stationary point found.
 Normal termination of Gaussian 09 at Wed Aug  3 20:44:15 2016.
