 Gaussian 09, Revision E.01,
 Gaussian 09:  EM64L-G09RevE.01 30-Nov-2015

 ------------------------------
 #p b3lyp/6-311++G(3df,2p) freq
 ------------------------------

 ---------
 b3lyp opt
 ---------
 Symbolic Z-matrix:
 Charge =  2 Multiplicity = 3

                         Standard orientation:
 ---------------------------------------------------------------------
 Center     Atomic      Atomic             Coordinates (Angstroms)
 Number     Number       Type             X           Y           Z
 ---------------------------------------------------------------------
      1         16           0        1.018822   -0.251820   -0.103201
      2         16           0       -1.105253   -0.270301   -0.012718
      3          6           0        0.022350    1.164802    0.175141
      4          1           0        0.033045    2.106106   -0.386071
      5          1           0        1.215749   -0.740991    1.189932
 ---------------------------------------------------------------------

 SCF Done:  E(UB3LYP) =  -834.750805486     A.U. after   17 cycles

 The electronic state is 3-A.
 Alpha  occ. eigenvalues --  -89.48396 -89.47616 -10.76857  -8.55869  -8.55405
 Alpha  occ. eigenvalues --   -6.52545  -6.51986  -6.51632  -6.51517  -6.51319
 Alpha  occ. eigenvalues --   -6.51241  -1.43353  -1.22341  -1.13320  -0.98556
 Alpha  occ. eigenvalues --   -0.96659  -0.89329  -0.87398  -0.83922  -0.75170
 Alpha virt. eigenvalues --   -0.60804  -0.50313  -0.47852  -0.45569  -0.34663
 Alpha virt. eigenvalues --   -0.33669  -0.31424  -0.29614  -0.27885  -0.26050
 Alpha virt. eigenvalues --   -0.25294  -0.24915  -0.24126  -0.23260  -0.22277

  Beta  occ. eigenvalues --  -89.47739 -89.47563 -10.75269  -8.55347  -8.55268
  Beta  occ. eigenvalues --   -6.51656  -6.51596  -6.51292  -6.51151  -6.51015
  Beta  occ. eigenvalues --   -6.50507  -1.41253  -1.19533  -1.09895  -0.96626
  Beta  occ. eigenvalues --   -0.93285  -0.88281  -0.85409
  Beta virt. eigenvalues --   -0.70684  -0.59753  -0.58347  -0.48365  -0.46297
  Beta virt. eigenvalues --   -0.43739  -0.33390  -0.32880  -0.30005  -0.28770
  Beta virt. eigenvalues --   -0.26895  -0.25160  -0.24559  -0.24244  -0.23291

 Mulliken charges and spin densities:
               1          2
     1  S    0.543877   0.069967
     2  S    0.691546   0.952583
     3  C    0.172608   0.880115
     4  H    0.280323  -0.000737
     5  H    0.311646   0.098072
 Sum of Mulliken charges =   2.00000   2.00000

 Dipole moment (field-independent basis, Debye):
    X=              0.6800    Y=              0.4007    Z=              0.7310  Tot=              1.0757
 Quadrupole moment (field-independent basis, Debye-Ang):
   XX=            -12.1597   YY=            -17.4688   ZZ=            -23.2432
   XY=             -0.9555   XZ=              1.7788   YZ=             -2.3139

  Exact polarizability:  47.091  -0.818  36.730   0.932  -0.935  27.221
 Approx polarizability: 105.683  -1.636  65.163  -0.172  -0.107  44.708

                      1                      2                      3
                      A                      A                      A
 Frequencies --    422.9860               501.6224               612.4385
 Red. masses --     14.9928                 1.8313                 2.2986
 Frc consts  --      1.5805                 0.2715                 0.5080
 IR Inten    --      9.9293                26.9656                14.8863

                      4                      5                      6
                      A                      A                      A
 Frequencies --    636.1001               709.3886               830.4377
 Red. masses --      1.4296                 1.2207                 2.6818
 Frc consts  --      0.3408                 0.3619                 1.0897
 IR Inten    --      4.5298                63.0307                 4.6822

                      7                      8                      9
                      A                      A                      A
 Frequencies --    984.6375              2270.2556              3080.4921
 Red. masses --      1.0950                 1.0396                 1.0947
 Frc consts  --      0.6255                 3.1569                 6.1204
 IR Inten    --      5.9397               249.2971               218.2564

 - Thermochemistry -
 -------------------
 Temperature   298.150 Kelvin.  Pressure   1.00000 Atm.
 Atom     1 has atomic number 16 and mass  31.97207

 Molecular mass:    77.95979 amu.
 Principal axes and moments of inertia in atomic units:
                           1         2         3
     Eigenvalues --    99.58701 271.02741 355.37522
           X            0.99968  -0.01454   0.02076
           Y            0.01599   0.99732  -0.07142
           Z           -0.01966   0.07173   0.99723
 This molecule is an asymmetric top.
 Rotational symmetry number  1.
 Rotational temperatures (Kelvin)      0.86973     0.31958     0.24372
 Rotational constants (GHZ):          18.12225     6.65889     5.07841
 Zero-point vibrational energy      60102.5 (Joules/Mol)
                                   14.36485 (Kcal/Mol)
 Warning -- explicit consideration of   3 degrees of freedom as
           vibrations may cause significant error
 Vibrational temperatures:    608.58   721.72   881.16   915.20  1020.65
          (Kelvin)           1194.81  1416.67  3266.39  4432.14

 Zero-point correction=                           0.022892 (Hartree/Particle)
 Thermal correction to Energy=                    0.026748
 Thermal correction to Enthalpy=                  0.027692
 Thermal correction to Gibbs Free Energy=        -0.004556
 Sum of electronic and zero-point Energies=           -834.727914
 Sum of electronic and thermal Energies=              -834.724058
 Sum of electronic and thermal Enthalpies=            -834.723114
 Sum of electronic and thermal Free Energies=         -834.755361

                     E (Thermal)             CV                S
                      KCal/Mol        Cal/Mol-Kelvin    Cal/Mol-Kelvin
 Total                   16.784             12.402             67.871
 Electronic               0.000              0.000              2.183
 Translational            0.889              2.981             38.976
 Rotational               0.889              2.981             23.776
 Vibrational             15.007              6.440              2.935
 Vibration     1          0.785              1.420              0.882
 Vibration     2          0.857              1.246              0.654
 Vibration     3          0.972              1.006              0.429

 Optimization completed.
    -- Stationary point found.
 Normal termination of Gaussian 09 at Wed Aug  3 20:47:17 2016.
