 Gaussian 09, Revision E.01,
 Gaussian 09:  EM64L-G09RevE.01 30-Nov-2015

 ------------------------------
 #p b3lyp/6-311++G(3df,2p) freq
 ------------------------------

 ---------
 b3lyp opt
 ---------
 Symbolic Z-matrix:
 Charge =  0 Multiplicity = 3

                         Standard orientation:
 ---------------------------------------------------------------------
 Center     Atomic      Atomic             Coordinates (Angstroms)
 Number     Number       Type             X           Y           Z
 ---------------------------------------------------------------------
      1         16           0        1.572684    0.051325   -0.066278
      2         16           0       -1.572813    0.051191    0.066291
      3          6           0        0.000145   -0.552265   -0.000331
      4          1           0        1.599148    0.835494    1.044326
      5          1           0       -1.597962    0.837845   -1.042547
 ---------------------------------------------------------------------

 SCF Done:  E(UB3LYP) =  -835.649682720     A.U. after   13 cycles

 The electronic state is 3-A.
 Alpha  occ. eigenvalues --  -88.88806 -88.88805 -10.24144  -7.97266  -7.97264
 Alpha  occ. eigenvalues --   -5.93580  -5.93579  -5.93209  -5.93209  -5.92928
 Alpha  occ. eigenvalues --   -5.92928  -0.84510  -0.77045  -0.58597  -0.49178
 Alpha  occ. eigenvalues --   -0.40835  -0.39879  -0.35767  -0.30809  -0.22300
 Alpha  occ. eigenvalues --   -0.21358
 Alpha virt. eigenvalues --   -0.02546  -0.00760  -0.00151   0.02975   0.03683
 Alpha virt. eigenvalues --    0.04173   0.04910   0.05935   0.06613   0.08465
 Alpha virt. eigenvalues --    0.08997   0.09835   0.10709   0.11220   0.12330

  Beta  occ. eigenvalues --  -88.88667 -88.88667 -10.21801  -7.97116  -7.97115
  Beta  occ. eigenvalues --   -5.93486  -5.93486  -5.93089  -5.93088  -5.92565
  Beta  occ. eigenvalues --   -5.92565  -0.81897  -0.75856  -0.54654  -0.47472
  Beta  occ. eigenvalues --   -0.39562  -0.37384  -0.31611  -0.28408
  Beta virt. eigenvalues --   -0.10057  -0.09120  -0.01583   0.00068   0.00509
  Beta virt. eigenvalues --    0.03269   0.03856   0.04484   0.05467   0.06059
  Beta virt. eigenvalues --    0.06746   0.08967   0.09206   0.10369   0.11146

 Mulliken charges and spin densities:
               1          2
     1  S   -0.117489   0.226036
     2  S   -0.117691   0.225967
     3  C   -0.001415   1.362738
     4  H    0.118278   0.092713
     5  H    0.118316   0.092546
 Sum of Mulliken charges =  -0.00000   2.00000

 Dipole moment (field-independent basis, Debye):
    X=              0.0005    Y=              1.3924    Z=              0.0015  Tot=              1.3924
 Quadrupole moment (field-independent basis, Debye-Ang):
   XX=            -32.2691   YY=            -33.8043   ZZ=            -31.8597
   XY=             -0.0014   XZ=              2.1552   YZ=             -0.0027

  Exact polarizability:  84.592   0.001  48.282   3.034   0.003  45.436
 Approx polarizability: 126.154   0.004  78.260   4.135   0.003  72.610

                      1                      2                      3
                      A                      A                      A
 Frequencies --    184.5677               259.8865               345.8536
 Red. masses --      1.6854                 6.8546                 1.0837
 Frc consts  --      0.0338                 0.2728                 0.0764
 IR Inten    --      7.6959                 0.2168                 8.7707

                      4                      5                      6
                      A                      A                      A
 Frequencies --    559.0653               917.7945               918.0460
 Red. masses --      8.0941                 1.1546                 1.1612
 Frc consts  --      1.4905                 0.5730                 0.5766
 IR Inten    --      1.9583                32.3950                11.3275

                      7                      8                      9
                      A                      A                      A
 Frequencies --   1060.6860              2495.4996              2496.5806
 Red. masses --     12.3382                 1.0387                 1.0389
 Frc consts  --      8.1785                 3.8112                 3.8152
 IR Inten    --     20.6353                 5.7789                37.5254

 - Thermochemistry -
 -------------------
 Temperature   298.150 Kelvin.  Pressure   1.00000 Atm.
 Atom     1 has atomic number 16 and mass  31.97207

 Molecular mass:    77.95979 amu.
 Principal axes and moments of inertia in atomic units:
                           1         2         3
     Eigenvalues --    27.17990 592.06305 602.04709
           X            0.99979  -0.00001   0.02053
           Y            0.00002   1.00000  -0.00035
           Z           -0.02053   0.00035   0.99979
 This molecule is an asymmetric top.
 Rotational symmetry number  1.
 Rotational temperatures (Kelvin)      3.18669     0.14629     0.14387
 Rotational constants (GHZ):          66.39984     3.04822     2.99767
 Zero-point vibrational energy      55255.4 (Joules/Mol)
                                   13.20636 (Kcal/Mol)
 Warning -- explicit consideration of   4 degrees of freedom as
           vibrations may cause significant error
 Vibrational temperatures:    265.55   373.92   497.61   804.37  1320.50
          (Kelvin)           1320.86  1526.09  3590.46  3592.02

 Zero-point correction=                           0.021046 (Hartree/Particle)
 Thermal correction to Energy=                    0.025616
 Thermal correction to Enthalpy=                  0.026560
 Thermal correction to Gibbs Free Energy=        -0.007143
 Sum of electronic and zero-point Energies=           -835.628637
 Sum of electronic and thermal Energies=              -835.624066
 Sum of electronic and thermal Enthalpies=            -835.623122
 Sum of electronic and thermal Free Energies=         -835.656825

                     E (Thermal)             CV                S
                      KCal/Mol        Cal/Mol-Kelvin    Cal/Mol-Kelvin
 Total                   16.074             13.543             70.934
 Electronic               0.000              0.000              2.183
 Translational            0.889              2.981             38.976
 Rotational               0.889              2.981             23.786
 Vibrational             14.297              7.581              5.988
 Vibration     1          0.631              1.861              2.282
 Vibration     2          0.668              1.746              1.663
 Vibration     3          0.724              1.584              1.185
 Vibration     4          0.915              1.120              0.526

 Optimization completed.
    -- Stationary point found.
 Normal termination of Gaussian 09 at Wed Aug  3 20:40:48 2016.
