 Gaussian 09, Revision E.01,
 Gaussian 09:  EM64L-G09RevE.01 30-Nov-2015

 ------------------------------
 #p b3lyp/6-311++G(3df,2p) freq
 ------------------------------

 ---------
 b3lyp opt
 ---------
 Symbolic Z-matrix:
 Charge =  0 Multiplicity = 1

                         Standard orientation:
 ---------------------------------------------------------------------
 Center     Atomic      Atomic             Coordinates (Angstroms)
 Number     Number       Type             X           Y           Z
 ---------------------------------------------------------------------
      1         16           0       -0.752929   -1.150118    0.000000
      2         16           0        0.000000    0.854885   -0.000000
      3          6           0        1.598553    0.768008    0.000000
      4          1           0        1.972894    1.800148    0.000000
      5          1           0        0.482647   -1.684462    0.000000
 ---------------------------------------------------------------------

 SCF Done:  E(RB3LYP) =  -835.673998753     A.U. after   13 cycles

 The electronic state is 1-A'.
 Alpha  occ. eigenvalues --  -88.92910 -88.87889 -10.21835  -8.01141  -7.96493
 Alpha  occ. eigenvalues --   -5.97391  -5.97020  -5.96899  -5.92870  -5.92481
 Alpha  occ. eigenvalues --   -5.91931  -0.85792  -0.74035  -0.58787  -0.45772
 Alpha  occ. eigenvalues --   -0.40644  -0.38123  -0.37323  -0.27038  -0.24747
 Alpha virt. eigenvalues --   -0.09532  -0.07050  -0.01405  -0.00292   0.02518
 Alpha virt. eigenvalues --    0.03939   0.04368   0.05819   0.05952   0.07227
 Alpha virt. eigenvalues --    0.07953   0.08929   0.09821   0.11932   0.12711

 Mulliken charges:
               1
     1  S   -0.077084
     2  S    0.087615
     3  C   -0.337291
     4  H    0.168951
     5  H    0.157809
 Sum of Mulliken charges =  -0.00000

 Dipole moment (field-independent basis, Debye):
    X=             -0.6038    Y=              0.8137    Z=             -0.0000  Tot=              1.0133
 Quadrupole moment (field-independent basis, Debye-Ang):
   XX=            -35.9611   YY=            -28.8999   ZZ=            -34.4218
   XY=              0.6561   XZ=             -0.0000   YZ=              0.0000

  Exact polarizability:  68.807  15.940  67.732  -0.003  -0.004  40.994
 Approx polarizability: 135.240  29.524 115.889   0.000  -0.000  64.066

                      1                      2                      3
                     A"                     A'                     A'
 Frequencies --    210.4914               294.0558               393.7137
 Red. masses --      1.1516                 5.3669                 7.8869
 Frc consts  --      0.0301                 0.2734                 0.7203
 IR Inten    --     15.1312                 1.3638                87.2167

                      4                      5                      6
                     A"                     A'                     A'
 Frequencies --    754.4973               788.4674               832.6233
 Red. masses --      1.0976                 1.1841                 1.5284
 Frc consts  --      0.3681                 0.4337                 0.6243
 IR Inten    --     29.9173                53.9834                25.6118

                      7                      8                      9
                     A'                     A'                     A'
 Frequencies --   1023.9540              2654.1822              3040.5766
 Red. masses --      3.2063                 1.0384                 1.0836
 Frc consts  --      1.9807                 4.3101                 5.9024
 IR Inten    --     18.5465                 6.1144                 0.9825

 - Thermochemistry -
 -------------------
 Temperature   298.150 Kelvin.  Pressure   1.00000 Atm.
 Atom     1 has atomic number 16 and mass  31.97207

 Molecular mass:    77.95979 amu.
 Principal axes and moments of inertia in atomic units:
                           1         2         3
     Eigenvalues --    67.34840 403.08034 470.42874
           X            0.60148   0.79889   0.00000
           Y            0.79889  -0.60148   0.00000
           Z           -0.00000   0.00000   1.00000
 This molecule is an asymmetric top.
 Rotational symmetry number  1.
 Rotational temperatures (Kelvin)      1.28606     0.21488     0.18412
 Rotational constants (GHZ):          26.79709     4.47737     3.83638
 Zero-point vibrational energy      59768.8 (Joules/Mol)
                                   14.28508 (Kcal/Mol)
 Warning -- explicit consideration of   3 degrees of freedom as
           vibrations may cause significant error
 Vibrational temperatures:    302.85   423.08   566.47  1085.55  1134.43
          (Kelvin)           1197.96  1473.24  3818.77  4374.71

 Zero-point correction=                           0.022765 (Hartree/Particle)
 Thermal correction to Energy=                    0.027162
 Thermal correction to Enthalpy=                  0.028107
 Thermal correction to Gibbs Free Energy=        -0.004319
 Sum of electronic and zero-point Energies=           -835.651234
 Sum of electronic and thermal Energies=              -835.646836
 Sum of electronic and thermal Enthalpies=            -835.645892
 Sum of electronic and thermal Free Energies=         -835.678317

                     E (Thermal)             CV                S
                      KCal/Mol        Cal/Mol-Kelvin    Cal/Mol-Kelvin
 Total                   17.045             13.305             68.245
 Electronic               0.000              0.000              0.000
 Translational            0.889              2.981             38.976
 Rotational               0.889              2.981             24.061
 Vibrational             15.267              7.343              5.208
 Vibration     1          0.643              1.825              2.039
 Vibration     2          0.689              1.685              1.451
 Vibration     3          0.761              1.484              0.986

 Optimization completed.
    -- Stationary point found.
 Normal termination of Gaussian 09 at Wed Aug  3 23:07:09 2016.
