 Gaussian 09, Revision E.01,
 Gaussian 09:  EM64L-G09RevE.01 30-Nov-2015

 ------------------------------
 #p b3lyp/6-311++G(3df,2p) freq
 ------------------------------

 ---------
 b3lyp opt
 ---------
 Symbolic Z-matrix:
 Charge =  1 Multiplicity = 4

                         Standard orientation:
 ---------------------------------------------------------------------
 Center     Atomic      Atomic             Coordinates (Angstroms)
 Number     Number       Type             X           Y           Z
 ---------------------------------------------------------------------
      1         16           0       -0.074960   -0.402853   -0.000000
      2          6           0       -0.074960    1.297918    0.000000
      3          1           0        0.824561   -0.670930    0.997110
      4          1           0        0.824561   -0.670930   -0.997110
 ---------------------------------------------------------------------

 SCF Done:  E(UB3LYP) =  -436.967381396     A.U. after   13 cycles

 The electronic state is 4-A".
 Alpha  occ. eigenvalues --  -89.23528 -10.54718  -8.31549  -6.27883  -6.27554
 Alpha  occ. eigenvalues --   -6.27226  -1.14137  -0.90205  -0.77196  -0.70316
 Alpha  occ. eigenvalues --   -0.64862  -0.53763  -0.51522
 Alpha virt. eigenvalues --   -0.26368  -0.26196  -0.22295  -0.12770  -0.12037
 Alpha virt. eigenvalues --   -0.11699  -0.09491  -0.08185  -0.06493  -0.06334
 Alpha virt. eigenvalues --   -0.05061  -0.04920  -0.01360  -0.00611   0.00266

  Beta  occ. eigenvalues --  -89.23399 -10.50099  -8.31399  -6.27528  -6.27516
  Beta  occ. eigenvalues --   -6.27019  -1.11186  -0.82262  -0.75421  -0.66208
  Beta virt. eigenvalues --   -0.44246  -0.35248  -0.32574  -0.24299  -0.23644
  Beta virt. eigenvalues --   -0.19652  -0.12519  -0.11700  -0.10911  -0.07736
  Beta virt. eigenvalues --   -0.06826  -0.04628  -0.04293  -0.03964  -0.03844

 Mulliken charges and spin densities:
               1          2
     1  S    0.334397   0.250578
     2  C    0.197329   2.587498
     3  H    0.234137   0.080962
     4  H    0.234137   0.080962
 Sum of Mulliken charges =   1.00000   3.00000

 Dipole moment (field-independent basis, Debye):
    X=              1.2931    Y=             -0.8455    Z=              0.0000  Tot=              1.5450
 Quadrupole moment (field-independent basis, Debye-Ang):
   XX=            -15.9714   YY=            -12.7655   ZZ=            -14.4216
   XY=             -1.7011   XZ=              0.0000   YZ=             -0.0000

  Exact polarizability:  21.703  -1.833  32.127   0.000  -0.000  22.683
 Approx polarizability:  31.825  -3.140  51.064   0.000  -0.000  34.309

                      1                      2                      3
                     A'                     A"                     A'
 Frequencies --    792.2496               894.6645               904.5263
 Red. masses --      5.1910                 1.0923                 1.3292
 Frc consts  --      1.9197                 0.5151                 0.6407
 IR Inten    --      2.1295                 0.6078                12.7605

                      4                      5                      6
                     A'                     A'                     A"
 Frequencies --   1153.0686              2462.6617              2469.5912
 Red. masses --      1.0340                 1.0343                 1.0424
 Frc consts  --      0.8100                 3.6958                 3.7456
 IR Inten    --      4.0236                39.6558                56.0363

 - Thermochemistry -
 -------------------
 Temperature   298.150 Kelvin.  Pressure   1.00000 Atm.
 Atom     1 has atomic number 16 and mass  31.97207

 Molecular mass:    45.98772 amu.
 Principal axes and moments of inertia in atomic units:
                           1         2         3
     Eigenvalues --    12.49315  99.38790 101.20771
           X           -0.05117   0.00000   0.99869
           Y            0.99869   0.00000   0.05117
           Z           -0.00000   1.00000  -0.00000
 This molecule is an asymmetric top.
 Rotational symmetry number  1.
 Rotational temperatures (Kelvin)      6.93290     0.87147     0.85580
 Rotational constants (GHZ):         144.45843    18.15856    17.83205
 Zero-point vibrational energy      51898.6 (Joules/Mol)
                                   12.40405 (Kcal/Mol)
 Vibrational temperatures:   1139.87  1287.22  1301.41  1659.01  3543.22
          (Kelvin)           3553.19

 Zero-point correction=                           0.019767 (Hartree/Particle)
 Thermal correction to Energy=                    0.022809
 Thermal correction to Enthalpy=                  0.023753
 Thermal correction to Gibbs Free Energy=        -0.004836
 Sum of electronic and zero-point Energies=           -436.947614
 Sum of electronic and thermal Energies=              -436.944573
 Sum of electronic and thermal Enthalpies=            -436.943628
 Sum of electronic and thermal Free Energies=         -436.972217

                     E (Thermal)             CV                S
                      KCal/Mol        Cal/Mol-Kelvin    Cal/Mol-Kelvin
 Total                   14.313              7.868             60.171
 Electronic               0.000              0.000              2.755
 Translational            0.889              2.981             37.403
 Rotational               0.889              2.981             19.469
 Vibrational             12.535              1.906              0.544

 Optimization completed.
    -- Stationary point found.
 Normal termination of Gaussian 09 at Wed Aug  3 22:47:42 2016.
