 Gaussian 09, Revision E.01,
 Gaussian 09:  EM64L-G09RevE.01 30-Nov-2015

 ------------------------------
 #p b3lyp/6-311++G(3df,2p) freq
 ------------------------------

 ---------
 b3lyp opt
 ---------
 Symbolic Z-matrix:
 Charge =  2 Multiplicity = 3

                         Standard orientation:
 ---------------------------------------------------------------------
 Center     Atomic      Atomic             Coordinates (Angstroms)
 Number     Number       Type             X           Y           Z
 ---------------------------------------------------------------------
      1         16           0        0.000000    0.000000    0.639079
      2          6           0       -0.000000   -0.000000   -1.142974
      3          1           0       -0.000000    0.971902   -1.683706
      4          1           0        0.000000   -0.971902   -1.683706
 ---------------------------------------------------------------------

 SCF Done:  E(UB3LYP) =  -436.450736244     A.U. after   12 cycles

 The electronic state is 3-A2.
 Alpha  occ. eigenvalues --  -89.58703 -10.89481  -8.65852  -6.62611  -6.62405
 Alpha  occ. eigenvalues --   -6.61473  -1.42733  -1.22077  -1.04497  -1.00469
 Alpha  occ. eigenvalues --   -0.95119  -0.90381
 Alpha virt. eigenvalues --   -0.71692  -0.55083  -0.39683  -0.37418  -0.36290
 Alpha virt. eigenvalues --   -0.34451  -0.31985  -0.30055  -0.29951  -0.27289
 Alpha virt. eigenvalues --   -0.26494  -0.25311  -0.24682  -0.21699  -0.16387

  Beta  occ. eigenvalues --  -89.57468 -10.89253  -8.64722  -6.60799  -6.60486
  Beta  occ. eigenvalues --   -6.59945  -1.36918  -1.18199  -1.02660  -0.98336
  Beta virt. eigenvalues --   -0.80979  -0.74424  -0.66783  -0.52030  -0.39078
  Beta virt. eigenvalues --   -0.35819  -0.34077  -0.29643  -0.29341  -0.28839
  Beta virt. eigenvalues --   -0.28473  -0.25959  -0.25005  -0.24086  -0.22419

 Mulliken charges and spin densities:
               1          2
     1  S    1.046350   1.788389
     2  C    0.340766   0.159295
     3  H    0.306442   0.026158
     4  H    0.306442   0.026158
 Sum of Mulliken charges =   2.00000   2.00000

 Dipole moment (field-independent basis, Debye):
    X=              0.0000    Y=              0.0000    Z=             -2.8867  Tot=              2.8867
 Quadrupole moment (field-independent basis, Debye-Ang):
   XX=            -13.0828   YY=            -11.4001   ZZ=             -0.8559
   XY=             -0.0000   XZ=             -0.0000   YZ=             -0.0000

  Exact polarizability:  14.656  -0.000  16.808   0.000   0.000  30.036
 Approx polarizability:  22.361  -0.000  23.460  -0.000  -0.000  49.114

                      1                      2                      3
                     A1                     B2                     B1
 Frequencies --    680.5345               808.4434              1040.8953
 Red. masses --      7.5487                 1.1742                 1.2706
 Frc consts  --      2.0598                 0.4522                 0.8111
 IR Inten    --     27.8460                 0.4710                14.4169

                      4                      5                      6
                     A1                     A1                     B2
 Frequencies --   1323.0718              2855.5466              2986.9166
 Red. masses --      1.0873                 1.0417                 1.1266
 Frc consts  --      1.1214                 5.0048                 5.9220
 IR Inten    --     22.9870               246.9503               229.7761

 - Thermochemistry -
 -------------------
 Temperature   298.150 Kelvin.  Pressure   1.00000 Atm.
 Atom     1 has atomic number 16 and mass  31.97207

 Molecular mass:    45.98772 amu.
 Principal axes and moments of inertia in atomic units:
                           1         2         3
     Eigenvalues --     6.79920 122.16151 128.96071
           X            0.00000   0.00000   1.00000
           Y            0.00000   1.00000  -0.00000
           Z            1.00000  -0.00000  -0.00000
 This molecule is an asymmetric top.
 Rotational symmetry number  2.
 Rotational temperatures (Kelvin)     12.73882     0.70901     0.67163
 Rotational constants (GHZ):         265.43426    14.77340    13.99450
 Zero-point vibrational energy      57991.4 (Joules/Mol)
                                   13.86028 (Kcal/Mol)
 Vibrational temperatures:    979.14  1163.17  1497.61  1903.60  4108.49
          (Kelvin)           4297.50

 Zero-point correction=                           0.022088 (Hartree/Particle)
 Thermal correction to Energy=                    0.025159
 Thermal correction to Enthalpy=                  0.026103
 Thermal correction to Gibbs Free Energy=        -0.001528
 Sum of electronic and zero-point Energies=           -436.428648
 Sum of electronic and thermal Energies=              -436.425578
 Sum of electronic and thermal Enthalpies=            -436.424633
 Sum of electronic and thermal Free Energies=         -436.452264

                     E (Thermal)             CV                S
                      KCal/Mol        Cal/Mol-Kelvin    Cal/Mol-Kelvin
 Total                   15.787              7.938             58.153
 Electronic               0.000              0.000              2.183
 Translational            0.889              2.981             37.403
 Rotational               0.889              2.981             17.933
 Vibrational             14.010              1.976              0.635

 Optimization completed.
    -- Stationary point found.
 Normal termination of Gaussian 09 at Wed Aug  3 22:48:11 2016.
