 Gaussian 09, Revision E.01,
 Gaussian 09:  EM64L-G09RevE.01 30-Nov-2015

 ------------------------------
 #p b3lyp/6-311++G(3df,2p) freq
 ------------------------------

 ---------
 b3lyp opt
 ---------
 Symbolic Z-matrix:
 Charge =  1 Multiplicity = 2

                         Standard orientation:
 ---------------------------------------------------------------------
 Center     Atomic      Atomic             Coordinates (Angstroms)
 Number     Number       Type             X           Y           Z
 ---------------------------------------------------------------------
      1         16           0       -1.407639   -0.374010   -0.000000
      2         16           0        1.555528    0.023371    0.000000
      3          6           0        0.000000    0.550196   -0.000000
      4          1           0       -2.260810    0.670978   -0.000000
      5          1           0       -0.105403    1.638079   -0.000000
 ---------------------------------------------------------------------

 SCF Done:  E(UB3LYP) =  -835.422948420     A.U. after   15 cycles

 The electronic state is 2-A'.
 Alpha  occ. eigenvalues --  -89.15543 -89.13177 -10.51520  -8.23765  -8.21642
 Alpha  occ. eigenvalues --   -6.20637  -6.19659  -6.19323  -6.17962  -6.17508
 Alpha  occ. eigenvalues --   -6.17292  -1.10738  -1.00833  -0.83230  -0.74370
 Alpha  occ. eigenvalues --   -0.66548  -0.61123  -0.60635  -0.54602  -0.51174
 Alpha virt. eigenvalues --   -0.32905  -0.22867  -0.19161  -0.15450  -0.13616
 Alpha virt. eigenvalues --   -0.12928  -0.10802  -0.10107  -0.07201  -0.07186
 Alpha virt. eigenvalues --   -0.07089  -0.06428  -0.06143  -0.05257  -0.03068

  Beta  occ. eigenvalues --  -89.14906 -89.13159 -10.51596  -8.23182  -8.21625
  Beta  occ. eigenvalues --   -6.19312  -6.18887  -6.18711  -6.17891  -6.17467
  Beta  occ. eigenvalues --   -6.17327  -1.09659  -0.99045  -0.81536  -0.73466
  Beta  occ. eigenvalues --   -0.65335  -0.60801  -0.59972  -0.50422
  Beta virt. eigenvalues --   -0.41204  -0.32740  -0.22639  -0.18358  -0.15092
  Beta virt. eigenvalues --   -0.13225  -0.12710  -0.10322  -0.10080  -0.07108
  Beta virt. eigenvalues --   -0.06776  -0.06604  -0.06297  -0.05899  -0.04847

 Mulliken charges and spin densities:
               1          2
     1  S    0.106953   0.025549
     2  S    0.238945   0.990398
     3  C    0.212331  -0.060619
     4  H    0.206269   0.002268
     5  H    0.235503   0.042404
 Sum of Mulliken charges =   1.00000   1.00000

 Dipole moment (field-independent basis, Debye):
    X=             -0.6819    Y=              1.5932    Z=             -0.0000  Tot=              1.7330
 Quadrupole moment (field-independent basis, Debye-Ang):
   XX=            -14.8910   YY=            -24.7172   ZZ=            -30.4229
   XY=             -0.9333   XZ=             -0.0000   YZ=              0.0000

  Exact polarizability:  74.708   2.175  36.739   0.000   0.000  31.207
 Approx polarizability: 148.694   5.544  62.163   0.000  -0.000  48.775

                      1                      2                      3
                     A'                     A"                     A'
 Frequencies --    285.2669               450.8127               735.3518
 Red. masses --     11.4241                 1.1870                 5.3335
 Frc consts  --      0.5477                 0.1421                 1.6992
 IR Inten    --      0.9716                20.0849                 0.6366

                      4                      5                      6
                     A"                     A'                     A'
 Frequencies --    804.5781               957.1340              1052.1708
 Red. masses --      1.3955                 2.0756                 1.3442
 Frc consts  --      0.5322                 1.1203                 0.8768
 IR Inten    --     25.7098               109.6986                26.6012

                      7                      8                      9
                     A'                     A'                     A'
 Frequencies --   1228.6231              2644.6237              3067.0067
 Red. masses --      1.5111                 1.0392                 1.0841
 Frc consts  --      1.3440                 4.2823                 6.0085
 IR Inten    --     24.5264                46.4575                49.5323

 - Thermochemistry -
 -------------------
 Temperature   298.150 Kelvin.  Pressure   1.00000 Atm.
 Atom     1 has atomic number 16 and mass  31.97207

 Molecular mass:    77.95979 amu.
 Principal axes and moments of inertia in atomic units:
                           1         2         3
     Eigenvalues --    33.04498 527.67817 560.72315
           X            0.99290  -0.11896   0.00000
           Y            0.11896   0.99290   0.00000
           Z            0.00000  -0.00000   1.00000
 This molecule is an asymmetric top.
 Rotational symmetry number  1.
 Rotational temperatures (Kelvin)      2.62109     0.16414     0.15447
 Rotational constants (GHZ):          54.61469     3.42016     3.21860
 Zero-point vibrational energy      67143.8 (Joules/Mol)
                                   16.04775 (Kcal/Mol)
 Warning -- explicit consideration of   2 degrees of freedom as
           vibrations may cause significant error
 Vibrational temperatures:    410.43   648.62  1058.01  1157.61  1377.10
          (Kelvin)           1513.84  1767.71  3805.02  4412.73

 Zero-point correction=                           0.025574 (Hartree/Particle)
 Thermal correction to Energy=                    0.029373
 Thermal correction to Enthalpy=                  0.030317
 Thermal correction to Gibbs Free Energy=        -0.001582
 Sum of electronic and zero-point Energies=           -835.397375
 Sum of electronic and thermal Energies=              -835.393575
 Sum of electronic and thermal Enthalpies=            -835.392631
 Sum of electronic and thermal Free Energies=         -835.424531

                     E (Thermal)             CV                S
                      KCal/Mol        Cal/Mol-Kelvin    Cal/Mol-Kelvin
 Total                   18.432             11.366             67.138
 Electronic               0.000              0.000              1.377
 Translational            0.889              2.981             38.976
 Rotational               0.889              2.981             23.796
 Vibrational             16.654              5.404              2.989
 Vibration     1          0.683              1.701              1.502
 Vibration     2          0.810              1.359              0.793

 Optimization completed.
    -- Stationary point found.
 Normal termination of Gaussian 09 at Wed Aug  3 23:07:36 2016.
