 Gaussian 09, Revision E.01,
 Gaussian 09:  EM64L-G09RevE.01 30-Nov-2015

 ------------------------------
 #p b3lyp/6-311++G(3df,2p) freq
 ------------------------------

 ---------
 b3lyp opt
 ---------
 Symbolic Z-matrix:
 Charge =  2 Multiplicity = 1

                         Standard orientation:
 ---------------------------------------------------------------------
 Center     Atomic      Atomic             Coordinates (Angstroms)
 Number     Number       Type             X           Y           Z
 ---------------------------------------------------------------------
      1         16           0        1.579901   -0.065783   -0.065110
      2         16           0       -1.580036   -0.066340    0.064153
      3          6           0        0.000148    0.051687    0.001287
      4          1           0       -1.812429    0.906181   -0.897364
      5          1           0        1.813699    0.897669    0.904945
 ---------------------------------------------------------------------

 SCF Done:  E(RB3LYP) =  -834.852500131     A.U. after   11 cycles

 The electronic state is 1-A.
 Alpha  occ. eigenvalues --  -89.42957 -89.42956 -10.80740  -8.51016  -8.51011
 Alpha  occ. eigenvalues --   -6.47201  -6.47199  -6.46943  -6.46940  -6.46793
 Alpha  occ. eigenvalues --   -6.46790  -1.37410  -1.30220  -1.05948  -0.98211
 Alpha  occ. eigenvalues --   -0.91832  -0.90304  -0.81984  -0.81942
 Alpha virt. eigenvalues --   -0.60318  -0.60198  -0.45268  -0.43677  -0.42468
 Alpha virt. eigenvalues --   -0.33598  -0.31908  -0.28461  -0.28417  -0.26410
 Alpha virt. eigenvalues --   -0.26233  -0.24662  -0.24510  -0.23188  -0.22197

 Mulliken charges:
               1
     1  S    0.382142
     2  S    0.381923
     3  C    0.622833
     4  H    0.306559
     5  H    0.306544
 Sum of Mulliken charges =   2.00000

 Dipole moment (field-independent basis, Debye):
    X=              0.0023    Y=              1.7041    Z=              0.0065  Tot=              1.7042
 Quadrupole moment (field-independent basis, Debye-Ang):
   XX=              3.7324   YY=            -23.3188   ZZ=            -23.3290
   XY=             -0.0162   XZ=              3.8259   YZ=             -0.0014

  Exact polarizability:  72.984  -0.012  28.136   3.055  -0.001  28.243
 Approx polarizability: 165.688  -0.008  46.899   4.339   0.001  46.742

                      1                      2                      3
                      A                      A                      A
 Frequencies --    321.0034               326.0745               607.7844
 Red. masses --      5.5025                 4.3170                10.9038
 Frc consts  --      0.3341                 0.2704                 2.3732
 IR Inten    --      1.7152                17.3098                 0.0475

                      4                      5                      6
                      A                      A                      A
 Frequencies --    623.0629               893.2284               896.7901
 Red. masses --      1.0416                 1.2271                 1.2049
 Frc consts  --      0.2382                 0.5768                 0.5709
 IR Inten    --     31.4825                14.3007                34.7442

                      7                      8                      9
                      A                      A                      A
 Frequencies --   1455.2308              2368.0853              2380.4903
 Red. masses --     12.3288                 1.0407                 1.0387
 Frc consts  --     15.3827                 3.4386                 3.4679
 IR Inten    --    142.1825               398.8159               163.2786

 - Thermochemistry -
 -------------------
 Temperature   298.150 Kelvin.  Pressure   1.00000 Atm.
 Atom     1 has atomic number 16 and mass  31.97207

 Molecular mass:    77.95979 amu.
 Principal axes and moments of inertia in atomic units:
                           1         2         3
     Eigenvalues --    13.39235 600.48771 600.73626
           X            0.99981   0.00018   0.01968
           Y            0.00009   0.99991  -0.01339
           Z           -0.01968   0.01339   0.99972
 This molecule is an asymmetric top.
 Rotational symmetry number  1.
 Rotational temperatures (Kelvin)      6.46741     0.14424     0.14418
 Rotational constants (GHZ):         134.75910     3.00546     3.00422
 Zero-point vibrational energy      59046.2 (Joules/Mol)
                                   14.11238 (Kcal/Mol)
 Warning -- explicit consideration of   3 degrees of freedom as
           vibrations may cause significant error
 Vibrational temperatures:    461.85   469.15   874.47   896.45  1285.15
          (Kelvin)           1290.28  2093.75  3407.14  3424.99

 Zero-point correction=                           0.022490 (Hartree/Particle)
 Thermal correction to Energy=                    0.026525
 Thermal correction to Enthalpy=                  0.027469
 Thermal correction to Gibbs Free Energy=        -0.003796
 Sum of electronic and zero-point Energies=           -834.830011
 Sum of electronic and thermal Energies=              -834.825975
 Sum of electronic and thermal Enthalpies=            -834.825031
 Sum of electronic and thermal Free Energies=         -834.856296

                     E (Thermal)             CV                S
                      KCal/Mol        Cal/Mol-Kelvin    Cal/Mol-Kelvin
 Total                   16.645             12.324             65.803
 Electronic               0.000              0.000              0.000
 Translational            0.889              2.981             38.976
 Rotational               0.889              2.981             23.095
 Vibrational             14.867              6.362              3.732
 Vibration     1          0.706              1.633              1.305
 Vibration     2          0.710              1.623              1.279
 Vibration     3          0.967              1.015              0.436

 Optimization completed.
    -- Stationary point found.
 Normal termination of Gaussian 09 at Wed Aug  3 20:46:31 2016.
