 Gaussian 09, Revision E.01,
 Gaussian 09:  EM64L-G09RevE.01 30-Nov-2015

 ------------------------------
 #p b3lyp/6-311++G(3df,2p) freq
 ------------------------------

 ---------
 b3lyp opt
 ---------
 Symbolic Z-matrix:
 Charge =  0 Multiplicity = 1

                         Standard orientation:
 ---------------------------------------------------------------------
 Center     Atomic      Atomic             Coordinates (Angstroms)
 Number     Number       Type             X           Y           Z
 ---------------------------------------------------------------------
      1         16           0       -0.000000    0.000000    0.319481
      2          6           0        0.000000   -0.000000   -1.266444
      3          1           0        0.000000    1.035222    1.243484
      4          1           0       -0.000000   -1.035222    1.243484
 ---------------------------------------------------------------------

 SCF Done:  E(RB3LYP) =  -437.321617592     A.U. after   11 cycles

 The electronic state is 1-A1.
 Alpha  occ. eigenvalues --  -88.94316 -10.22027  -8.02490  -5.98557  -5.98539
 Alpha  occ. eigenvalues --   -5.98386  -0.85478  -0.62658  -0.49939  -0.36360
 Alpha  occ. eigenvalues --   -0.31169  -0.22356
 Alpha virt. eigenvalues --   -0.08909  -0.06559  -0.00620   0.00735   0.03821
 Alpha virt. eigenvalues --    0.03981   0.08169   0.08254   0.08757   0.09278
 Alpha virt. eigenvalues --    0.11185   0.11771   0.13469   0.15752   0.16150

 Mulliken charges:
               1
     1  S    0.212383
     2  C   -0.441371
     3  H    0.114494
     4  H    0.114494
 Sum of Mulliken charges =  -0.00000

 Dipole moment (field-independent basis, Debye):
    X=             -0.0000    Y=              0.0000    Z=              4.0419  Tot=              4.0419
 Quadrupole moment (field-independent basis, Debye-Ang):
   XX=            -20.1068   YY=            -20.4024   ZZ=            -22.9948
   XY=             -0.0000   XZ=              0.0000   YZ=              0.0000

  Exact polarizability:  26.102  -0.000  37.505   0.000   0.000  57.311
 Approx polarizability:  42.243   0.000  55.726  -0.000   0.000 115.547

                      1                      2                      3
                     B1                     B2                     A1
 Frequencies --    177.8020               597.4126              1015.7288
 Red. masses --      1.2126                 1.2438                 9.6394
 Frc consts  --      0.0226                 0.2615                 5.8594
 IR Inten    --     47.6570                39.5932                20.9990

                      4                      5                      6
                     A1                     B2                     A1
 Frequencies --   1357.7546              2160.3935              2260.0554
 Red. masses --      1.0689                 1.0519                 1.0279
 Frc consts  --      1.1610                 2.8926                 3.0936
 IR Inten    --     65.5117               221.0465               162.5371

 - Thermochemistry -
 -------------------
 Temperature   298.150 Kelvin.  Pressure   1.00000 Atm.
 Atom     1 has atomic number 16 and mass  31.97207

 Molecular mass:    45.98772 amu.
 Principal axes and moments of inertia in atomic units:
                           1         2         3
     Eigenvalues --     7.71400  91.03808  98.75208
           X           -0.00000   0.00000   1.00000
           Y            0.00000   1.00000  -0.00000
           Z            1.00000  -0.00000   0.00000
 This molecule is an asymmetric top.
 Rotational symmetry number  2.
 Rotational temperatures (Kelvin)     11.22813     0.95140     0.87708
 Rotational constants (GHZ):         233.95656    19.82403    18.27548
 Zero-point vibrational energy      45273.6 (Joules/Mol)
                                   10.82064 (Kcal/Mol)
 Warning -- explicit consideration of   2 degrees of freedom as
           vibrations may cause significant error
 Vibrational temperatures:    255.82   859.54  1461.41  1953.50  3108.32
          (Kelvin)           3251.71

 Zero-point correction=                           0.017244 (Hartree/Particle)
 Thermal correction to Energy=                    0.020878
 Thermal correction to Enthalpy=                  0.021822
 Thermal correction to Gibbs Free Energy=        -0.005650
 Sum of electronic and zero-point Energies=           -437.304374
 Sum of electronic and thermal Energies=              -437.300740
 Sum of electronic and thermal Enthalpies=            -437.299795
 Sum of electronic and thermal Free Energies=         -437.327267

                     E (Thermal)             CV                S
                      KCal/Mol        Cal/Mol-Kelvin    Cal/Mol-Kelvin
 Total                   13.101              9.362             57.820
 Electronic               0.000              0.000              0.000
 Translational            0.889              2.981             37.403
 Rotational               0.889              2.981             17.501
 Vibrational             11.324              3.400              2.916
 Vibration     1          0.628              1.870              2.351
 Vibration     2          0.955              1.037              0.454

 Optimization completed.
    -- Stationary point found.
 Normal termination of Gaussian 09 at Wed Aug  3 23:08:01 2016.
