 Gaussian 09, Revision E.01,
 Gaussian 09:  EM64L-G09RevE.01 30-Nov-2015

 ------------------------------
 #p b3lyp/6-311++G(3df,2p) freq
 ------------------------------

 ---------
 b3lyp opt
 ---------
 Symbolic Z-matrix:
 Charge =  0 Multiplicity = 1

                         Standard orientation:
 ---------------------------------------------------------------------
 Center     Atomic      Atomic             Coordinates (Angstroms)
 Number     Number       Type             X           Y           Z
 ---------------------------------------------------------------------
      1         16           0        0.000000    1.411728   -0.190580
      2         16           0       -0.000000   -1.411728   -0.190580
      3          6           0       -0.000000   -0.000000    0.739538
      4          1           0        0.000000    2.290772    0.830667
      5          1           0       -0.000000   -2.290772    0.830667
 ---------------------------------------------------------------------

 SCF Done:  E(RB3LYP) =  -835.692371348     A.U. after   11 cycles

 The electronic state is 1-A1.
 Alpha  occ. eigenvalues --  -88.88908 -88.88908 -10.23455  -7.97463  -7.97460
 Alpha  occ. eigenvalues --   -5.93688  -5.93687  -5.93361  -5.93360  -5.93177
 Alpha  occ. eigenvalues --   -5.93176  -0.84906  -0.76134  -0.57427  -0.43768
 Alpha  occ. eigenvalues --   -0.42607  -0.38758  -0.36236  -0.28010  -0.23222
 Alpha virt. eigenvalues --   -0.08063  -0.03112   0.00031   0.00463   0.02566
 Alpha virt. eigenvalues --    0.03717   0.04627   0.04689   0.06899   0.08552
 Alpha virt. eigenvalues --    0.08674   0.09752   0.10114   0.10228   0.10861

 Mulliken charges:
               1
     1  S   -0.146558
     2  S   -0.146558
     3  C   -0.058839
     4  H    0.175977
     5  H    0.175977
 Sum of Mulliken charges =  -0.00000

 Dipole moment (field-independent basis, Debye):
    X=             -0.0000    Y=              0.0000    Z=             -0.2533  Tot=              0.2533
 Quadrupole moment (field-independent basis, Debye-Ang):
   XX=            -34.3938   YY=            -25.7971   ZZ=            -35.1562
   XY=             -0.0000   XZ=              0.0000   YZ=              0.0000

  Exact polarizability:  40.239   0.000  85.091   0.000   0.000  48.596
 Approx polarizability:  63.050   0.000 145.452   0.000  -0.000  81.845

                      1                      2                      3
                     A1                     A2                     B1
 Frequencies --    282.3583               489.9993               547.4580
 Red. masses --     11.1511                 1.0886                 1.1919
 Frc consts  --      0.5238                 0.1540                 0.2105
 IR Inten    --      2.2975                 0.0000                25.4412

                      4                      5                      6
                     A1                     B2                     A1
 Frequencies --    652.9893               847.0462              1019.5568
 Red. masses --     11.0882                 2.4280                 1.0806
 Frc consts  --      2.7856                 1.0264                 0.6618
 IR Inten    --      0.5003                76.7926                 0.6447

                      7                      8                      9
                     B2                     A1                     B2
 Frequencies --   1102.1268              2618.1926              2620.6023
 Red. masses --      1.7227                 1.0406                 1.0394
 Frc consts  --      1.2329                 4.2028                 4.2055
 IR Inten    --     43.7152                 0.0648                 1.9269

 - Thermochemistry -
 -------------------
 Temperature   298.150 Kelvin.  Pressure   1.00000 Atm.
 Atom     1 has atomic number 16 and mass  31.97207

 Molecular mass:    77.95979 amu.
 Principal axes and moments of inertia in atomic units:
                           1         2         3
     Eigenvalues --    36.57452 492.86606 529.44058
           X            0.00000   0.00000   1.00000
           Y            1.00000   0.00000  -0.00000
           Z            0.00000   1.00000   0.00000
 This molecule is an asymmetric top.
 Rotational symmetry number  2.
 Rotational temperatures (Kelvin)      2.36815     0.17573     0.16359
 Rotational constants (GHZ):          49.34422     3.66173     3.40877
 Zero-point vibrational energy      60891.9 (Joules/Mol)
                                   14.55351 (Kcal/Mol)
 Warning -- explicit consideration of   3 degrees of freedom as
           vibrations may cause significant error
 Vibrational temperatures:    406.25   705.00   787.67   939.50  1218.71
          (Kelvin)           1466.91  1585.71  3766.99  3770.46

 Zero-point correction=                           0.023192 (Hartree/Particle)
 Thermal correction to Energy=                    0.027149
 Thermal correction to Enthalpy=                  0.028093
 Thermal correction to Gibbs Free Energy=        -0.002701
 Sum of electronic and zero-point Energies=           -835.669179
 Sum of electronic and thermal Energies=              -835.665223
 Sum of electronic and thermal Enthalpies=            -835.664279
 Sum of electronic and thermal Free Energies=         -835.695072

                     E (Thermal)             CV                S
                      KCal/Mol        Cal/Mol-Kelvin    Cal/Mol-Kelvin
 Total                   17.036             12.220             64.810
 Electronic               0.000              0.000              0.000
 Translational            0.889              2.981             38.976
 Rotational               0.889              2.981             22.394
 Vibrational             15.258              6.258              3.440
 Vibration     1          0.681              1.706              1.519
 Vibration     2          0.846              1.272              0.684
 Vibration     3          0.903              1.145              0.549

 Optimization completed.
    -- Stationary point found.
 Normal termination of Gaussian 09 at Wed Aug  3 23:04:25 2016.
