 Gaussian 09, Revision E.01,
 Gaussian 09:  EM64L-G09RevE.01 30-Nov-2015

 ------------------------------
 #p b3lyp/6-311++G(3df,2p) freq
 ------------------------------

 ---------
 b3lyp opt
 ---------
 Symbolic Z-matrix:
 Charge =  2 Multiplicity = 1

                         Standard orientation:
 ---------------------------------------------------------------------
 Center     Atomic      Atomic             Coordinates (Angstroms)
 Number     Number       Type             X           Y           Z
 ---------------------------------------------------------------------
      1         16           0        0.075835   -0.448650   -0.000000
      2          6           0        0.075835    1.361775    0.000000
      3          1           0       -0.834185   -0.496124    1.079316
      4          1           0       -0.834185   -0.496124   -1.079316
 ---------------------------------------------------------------------

 SCF Done:  E(RB3LYP) =  -436.376181758     A.U. after   12 cycles

 The electronic state is 1-A'.
 Alpha  occ. eigenvalues --  -89.53121 -11.00350  -8.61213  -6.57342  -6.57221
 Alpha  occ. eigenvalues --   -6.56989  -1.42481  -1.17778  -1.04905  -0.97320
 Alpha  occ. eigenvalues --   -0.91181
 Alpha virt. eigenvalues --   -0.74631  -0.73416  -0.57964  -0.53611  -0.48462
 Alpha virt. eigenvalues --   -0.37381  -0.32090  -0.31277  -0.30136  -0.28575
 Alpha virt. eigenvalues --   -0.27588  -0.26630  -0.21133  -0.20506  -0.20111

 Mulliken charges:
               1
     1  S    0.516459
     2  C    0.775445
     3  H    0.354048
     4  H    0.354048
 Sum of Mulliken charges =   2.00000

 Dipole moment (field-independent basis, Debye):
    X=             -1.6735    Y=              0.7044    Z=             -0.0000  Tot=              1.8157
 Quadrupole moment (field-independent basis, Debye-Ang):
   XX=            -12.0615   YY=             -7.4769   ZZ=             -9.7265
   XY=              1.7049   XZ=              0.0000   YZ=              0.0000

  Exact polarizability:  18.997   1.926  30.765  -0.000  -0.000  20.834
 Approx polarizability:  31.209   3.248  68.489   0.000   0.000  34.797

                      1                      2                      3
                     A'                     A"                     A'
 Frequencies --    504.8294               610.5552               672.3008
 Red. masses --      1.1814                 1.0850                 6.8683
 Frc consts  --      0.1774                 0.2383                 1.8290
 IR Inten    --     18.1101                25.3464               280.1099

                      4                      5                      6
                     A'                     A"                     A'
 Frequencies --   1017.0287              2169.9881              2178.9633
 Red. masses --      1.0641                 1.0434                 1.0333
 Frc consts  --      0.6485                 2.8947                 2.8904
 IR Inten    --     43.6689               426.4978               340.8263

 - Thermochemistry -
 -------------------
 Temperature   298.150 Kelvin.  Pressure   1.00000 Atm.
 Atom     1 has atomic number 16 and mass  31.97207

 Molecular mass:    45.98772 amu.
 Principal axes and moments of inertia in atomic units:
                           1         2         3
     Eigenvalues --    13.96809 109.84351 112.64569
           X            0.03439   0.00000   0.99941
           Y            0.99941   0.00000  -0.03439
           Z           -0.00000   1.00000  -0.00000
 This molecule is an asymmetric top.
 Rotational symmetry number  1.
 Rotational temperatures (Kelvin)      6.20083     0.78852     0.76890
 Rotational constants (GHZ):         129.20459    16.43011    16.02140
 Zero-point vibrational energy      42788.4 (Joules/Mol)
                                   10.22668 (Kcal/Mol)
 Warning -- explicit consideration of   2 degrees of freedom as
           vibrations may cause significant error
 Vibrational temperatures:    726.34   878.45   967.29  1463.28  3122.13
          (Kelvin)           3135.04

 Zero-point correction=                           0.016297 (Hartree/Particle)
 Thermal correction to Energy=                    0.019664
 Thermal correction to Enthalpy=                  0.020608
 Thermal correction to Gibbs Free Energy=        -0.007280
 Sum of electronic and zero-point Energies=           -436.359885
 Sum of electronic and thermal Energies=              -436.356518
 Sum of electronic and thermal Enthalpies=            -436.355574
 Sum of electronic and thermal Free Energies=         -436.383462

                     E (Thermal)             CV                S
                      KCal/Mol        Cal/Mol-Kelvin    Cal/Mol-Kelvin
 Total                   12.339              9.465             58.696
 Electronic               0.000              0.000              0.000
 Translational            0.889              2.981             37.403
 Rotational               0.889              2.981             19.786
 Vibrational             10.562              3.503              1.507
 Vibration     1          0.860              1.239              0.646
 Vibration     2          0.970              1.009              0.432

 Optimization completed.
    -- Stationary point found.
 Normal termination of Gaussian 09 at Wed Aug  3 22:47:36 2016.
