 Gaussian 09, Revision E.01,
 Gaussian 09:  EM64L-G09RevE.01 30-Nov-2015

 ------------------------------
 #p b3lyp/6-311++G(3df,2p) freq
 ------------------------------

 ---------
 b3lyp opt
 ---------
 Symbolic Z-matrix:
 Charge =  0 Multiplicity = 3

                         Standard orientation:
 ---------------------------------------------------------------------
 Center     Atomic      Atomic             Coordinates (Angstroms)
 Number     Number       Type             X           Y           Z
 ---------------------------------------------------------------------
      1         16           0       -0.072251   -0.413383    0.000000
      2          6           0       -0.072251    1.380720   -0.000000
      3          1           0        0.794757   -0.835098    0.971933
      4          1           0        0.794757   -0.835098   -0.971933
 ---------------------------------------------------------------------

 SCF Done:  E(UB3LYP) =  -437.326645156     A.U. after   13 cycles

 The electronic state is 3-A".
 Alpha  occ. eigenvalues --  -88.94056 -10.20760  -8.02346  -5.98536  -5.98415
 Alpha  occ. eigenvalues --   -5.97960  -0.84233  -0.60660  -0.50392  -0.41692
 Alpha  occ. eigenvalues --   -0.31065  -0.22813  -0.20877
 Alpha virt. eigenvalues --   -0.03938  -0.02662  -0.01327   0.03191   0.03750
 Alpha virt. eigenvalues --    0.06783   0.08200   0.08661   0.09517   0.10269
 Alpha virt. eigenvalues --    0.10384   0.12141   0.15295   0.18522   0.21749

  Beta  occ. eigenvalues --  -88.94078 -10.18417  -8.02333  -5.98555  -5.98444
  Beta  occ. eigenvalues --   -5.97941  -0.82844  -0.55142  -0.48989  -0.39508
  Beta  occ. eigenvalues --   -0.27427
  Beta virt. eigenvalues --   -0.09275  -0.06490  -0.03075  -0.00453  -0.00376
  Beta virt. eigenvalues --    0.03696   0.03874   0.07351   0.08991   0.09004
  Beta virt. eigenvalues --    0.09673   0.11810   0.12070   0.12635   0.16032

 Mulliken charges and spin densities:
               1          2
     1  S    0.157502   0.117802
     2  C   -0.416827   1.690859
     3  H    0.129662   0.095669
     4  H    0.129662   0.095669
 Sum of Mulliken charges =  -0.00000   2.00000

 Dipole moment (field-independent basis, Debye):
    X=              1.1905    Y=             -3.8836    Z=              0.0000  Tot=              4.0620
 Quadrupole moment (field-independent basis, Debye-Ang):
   XX=            -20.4769   YY=            -25.8883   ZZ=            -18.8722
   XY=             -0.9342   XZ=              0.0000   YZ=             -0.0000

  Exact polarizability:  32.328  -4.621  53.787   0.000   0.000  33.123
 Approx polarizability:  46.415  -8.756  87.467   0.000  -0.000  49.448

                      1                      2                      3
                     A'                     A"                     A'
 Frequencies --    516.7202               587.7535               699.1491
 Red. masses --     12.8627                 1.0904                 1.1561
 Frc consts  --      2.0235                 0.2219                 0.3329
 IR Inten    --      0.4557                 2.1747                 1.7729

                      4                      5                      6
                     A'                     A"                     A'
 Frequencies --   1171.9705              2388.2389              2402.2760
 Red. masses --      1.0366                 1.0425                 1.0341
 Frc consts  --      0.8389                 3.5034                 3.5161
 IR Inten    --     18.9854                 8.5509                76.3657

 - Thermochemistry -
 -------------------
 Temperature   298.150 Kelvin.  Pressure   1.00000 Atm.
 Atom     1 has atomic number 16 and mass  31.97207

 Molecular mass:    45.98772 amu.
 Principal axes and moments of inertia in atomic units:
                           1         2         3
     Eigenvalues --    11.68082 111.18190 113.10036
           X           -0.05370   0.00000   0.99856
           Y            0.99856   0.00000   0.05370
           Z           -0.00000   1.00000  -0.00000
 This molecule is an asymmetric top.
 Rotational symmetry number  1.
 Rotational temperatures (Kelvin)      7.41505     0.77903     0.76581
 Rotational constants (GHZ):         154.50471    16.23233    15.95699
 Zero-point vibrational energy      46451.6 (Joules/Mol)
                                   11.10221 (Kcal/Mol)
 Warning -- explicit consideration of   2 degrees of freedom as
           vibrations may cause significant error
 Vibrational temperatures:    743.44   845.65  1005.92  1686.20  3436.14
          (Kelvin)           3456.34

 Zero-point correction=                           0.017692 (Hartree/Particle)
 Thermal correction to Energy=                    0.021036
 Thermal correction to Enthalpy=                  0.021980
 Thermal correction to Gibbs Free Energy=        -0.006838
 Sum of electronic and zero-point Energies=           -437.308953
 Sum of electronic and thermal Energies=              -437.305609
 Sum of electronic and thermal Enthalpies=            -437.304665
 Sum of electronic and thermal Free Energies=         -437.333483

                     E (Thermal)             CV                S
                      KCal/Mol        Cal/Mol-Kelvin    Cal/Mol-Kelvin
 Total                   13.200              9.292             60.653
 Electronic               0.000              0.000              2.183
 Translational            0.889              2.981             37.403
 Rotational               0.889              2.981             19.624
 Vibrational             11.423              3.331              1.443
 Vibration     1          0.872              1.213              0.618
 Vibration     2          0.945              1.058              0.471

 Optimization completed.
    -- Stationary point found.
 Normal termination of Gaussian 09 at Wed Aug  3 23:09:50 2016.
