 Gaussian 09, Revision E.01,
 Gaussian 09:  EM64L-G09RevE.01 30-Nov-2015

 ------------------------------
 #p b3lyp/6-311++G(3df,2p) freq
 ------------------------------

 ---------
 b3lyp opt
 ---------
 Symbolic Z-matrix:
 Charge =  0 Multiplicity = 1

                         Standard orientation:
 ---------------------------------------------------------------------
 Center     Atomic      Atomic             Coordinates (Angstroms)
 Number     Number       Type             X           Y           Z
 ---------------------------------------------------------------------
      1         16           0        0.000000    0.000000    0.583787
      2          6           0       -0.000000   -0.000000   -1.022646
      3          1           0       -0.000000    0.920324   -1.602359
      4          1           0        0.000000   -0.920324   -1.602359
 ---------------------------------------------------------------------

 SCF Done:  E(RB3LYP) =  -437.511094939     A.U. after    9 cycles

 The electronic state is 1-A1.
 Alpha  occ. eigenvalues --  -88.85187 -10.24560  -7.93830  -5.90168  -5.89945
 Alpha  occ. eigenvalues --   -5.89189  -0.80667  -0.60983  -0.47268  -0.40478
 Alpha  occ. eigenvalues --   -0.32956  -0.23992
 Alpha virt. eigenvalues --   -0.10427  -0.00701   0.02300   0.02912   0.04959
 Alpha virt. eigenvalues --    0.06367   0.07720   0.09218   0.09968   0.12729
 Alpha virt. eigenvalues --    0.13865   0.14144   0.16246   0.16866   0.20527

 Mulliken charges:
               1
     1  S   -0.119115
     2  C   -0.172990
     3  H    0.146052
     4  H    0.146052
 Sum of Mulliken charges =  -0.00000

 Dipole moment (field-independent basis, Debye):
    X=             -0.0000    Y=             -0.0000    Z=             -1.7405  Tot=              1.7405
 Quadrupole moment (field-independent basis, Debye-Ang):
   XX=            -19.9220   YY=            -20.6249   ZZ=            -17.4097
   XY=             -0.0000   XZ=             -0.0000   YZ=              0.0000

  Exact polarizability:  25.043   0.000  30.061  -0.000   0.000  45.459
 Approx polarizability:  38.733  -0.000  41.368   0.000   0.000  83.066

                      1                      2                      3
                     B2                     B1                     A1
 Frequencies --   1003.8883              1032.4274              1091.3997
 Red. masses --      1.2066                 1.2954                 4.7903
 Frc consts  --      0.7165                 0.8135                 3.3619
 IR Inten    --      2.6565                41.3860                13.6002

                      4                      5                      6
                     A1                     A1                     B2
 Frequencies --   1494.7189              3058.4135              3138.3153
 Red. masses --      1.1757                 1.0495                 1.1195
 Frc consts  --      1.5477                 5.7841                 6.4965
 IR Inten    --      3.5200                33.2689                 4.2813

 - Thermochemistry -
 -------------------
 Temperature   298.150 Kelvin.  Pressure   1.00000 Atm.
 Atom     1 has atomic number 16 and mass  31.97207

 Molecular mass:    45.98772 amu.
 Principal axes and moments of inertia in atomic units:
                           1         2         3
     Eigenvalues --     6.09670 101.43129 107.52799
           X            0.00000   0.00000   1.00000
           Y            0.00000   1.00000  -0.00000
           Z            1.00000  -0.00000  -0.00000
 This molecule is an asymmetric top.
 Rotational symmetry number  2.
 Rotational temperatures (Kelvin)     14.20668     0.85392     0.80550
 Rotational constants (GHZ):         296.01947    17.79275    16.78392
 Zero-point vibrational energy      64713.0 (Joules/Mol)
                                   15.46677 (Kcal/Mol)
 Vibrational temperatures:   1444.37  1485.43  1570.28  2150.56  4400.37
          (Kelvin)           4515.33

 Zero-point correction=                           0.024648 (Hartree/Particle)
 Thermal correction to Energy=                    0.027580
 Thermal correction to Enthalpy=                  0.028524
 Thermal correction to Gibbs Free Energy=         0.002338
 Sum of electronic and zero-point Energies=           -437.486447
 Sum of electronic and thermal Energies=              -437.483515
 Sum of electronic and thermal Enthalpies=            -437.482571
 Sum of electronic and thermal Free Energies=         -437.508757

                     E (Thermal)             CV                S
                      KCal/Mol        Cal/Mol-Kelvin    Cal/Mol-Kelvin
 Total                   17.307              7.042             55.113
 Electronic               0.000              0.000              0.000
 Translational            0.889              2.981             37.403
 Rotational               0.889              2.981             17.459
 Vibrational             15.529              1.080              0.251

 Optimization completed.
    -- Stationary point found.
 Normal termination of Gaussian 09 at Wed Aug  3 23:07:56 2016.
