 Gaussian 09, Revision E.01,
 Gaussian 09:  EM64L-G09RevE.01 30-Nov-2015

 ------------------------------
 #p b3lyp/6-311++G(3df,2p) freq
 ------------------------------

 ---------
 b3lyp opt
 ---------
 Symbolic Z-matrix:
 Charge =  1 Multiplicity = 4

                         Standard orientation:
 ---------------------------------------------------------------------
 Center     Atomic      Atomic             Coordinates (Angstroms)
 Number     Number       Type             X           Y           Z
 ---------------------------------------------------------------------
      1         16           0        0.530283   -0.092086    0.012913
      2          6           0       -1.237488    0.040870   -0.157242
      3          1           0       -1.925647   -0.007566    0.686038
      4          1           0        0.866046    1.235717    0.050800
 ---------------------------------------------------------------------

 SCF Done:  E(UB3LYP) =  -437.011365106     A.U. after   14 cycles

 The electronic state is 4-A.
 Alpha  occ. eigenvalues --  -89.24465 -10.51885  -8.32348  -6.29280  -6.28266
 Alpha  occ. eigenvalues --   -6.27920  -1.12180  -0.91276  -0.74797  -0.69671
 Alpha  occ. eigenvalues --   -0.66099  -0.54225  -0.51820
 Alpha virt. eigenvalues --   -0.26611  -0.24734  -0.16495  -0.12638  -0.11785
 Alpha virt. eigenvalues --   -0.10495  -0.09523  -0.09054  -0.06862  -0.06689
 Alpha virt. eigenvalues --   -0.06130  -0.04705  -0.01384  -0.00722   0.00198

  Beta  occ. eigenvalues --  -89.23766 -10.48801  -8.31686  -6.27835  -6.27499
  Beta  occ. eigenvalues --   -6.27136  -1.06754  -0.84662  -0.72055  -0.66084
  Beta virt. eigenvalues --   -0.49920  -0.35051  -0.34122  -0.24357  -0.21003
  Beta virt. eigenvalues --   -0.15211  -0.11464  -0.11039  -0.09416  -0.08347
  Beta virt. eigenvalues --   -0.06537  -0.05183  -0.04684  -0.04386  -0.03357

 Mulliken charges and spin densities:
               1          2
     1  S    0.505703   1.096788
     2  C    0.032224   1.822175
     3  H    0.232431   0.029709
     4  H    0.229642   0.051329
 Sum of Mulliken charges =   1.00000   3.00000

 Dipole moment (field-independent basis, Debye):
    X=              0.1945    Y=              0.9708    Z=              0.5449  Tot=              1.1301
 Quadrupole moment (field-independent basis, Debye-Ang):
   XX=            -10.9525   YY=            -15.4910   ZZ=            -15.9559
   XY=              1.3139   XZ=             -1.4838   YZ=              0.1533

  Exact polarizability:  33.637   1.293  22.482  -0.003   0.064  19.470
 Approx polarizability:  48.990   2.193  33.094   0.421   0.197  27.753

                      1                      2                      3
                      A                      A                      A
 Frequencies --    470.6218               687.8369               858.2799
 Red. masses --      1.1064                 4.5895                 1.0942
 Frc consts  --      0.1444                 1.2793                 0.4749
 IR Inten    --     30.8371                 1.4485                 2.8053

                      4                      5                      6
                      A                      A                      A
 Frequencies --    880.0408              2480.3945              3126.8697
 Red. masses --      1.3309                 1.0393                 1.0868
 Frc consts  --      0.6073                 3.7675                 6.2604
 IR Inten    --      2.4691                41.5161                61.1284

 - Thermochemistry -
 -------------------
 Temperature   298.150 Kelvin.  Pressure   1.00000 Atm.
 Atom     1 has atomic number 16 and mass  31.97207

 Molecular mass:    45.98772 amu.
 Principal axes and moments of inertia in atomic units:
                           1         2         3
     Eigenvalues --     8.84139 116.55817 120.30468
           X            0.99854   0.03608  -0.04012
           Y           -0.03482   0.99889   0.03164
           Z            0.04121  -0.03020   0.99869
 This molecule is an asymmetric top.
 Rotational symmetry number  1.
 Rotational temperatures (Kelvin)      9.79640     0.74310     0.71995
 Rotational constants (GHZ):         204.12415    15.48361    15.00142
 Zero-point vibrational energy      50865.5 (Joules/Mol)
                                   12.15714 (Kcal/Mol)
 Warning -- explicit consideration of   1 degrees of freedom as
           vibrations may cause significant error
 Vibrational temperatures:    677.12   989.64  1234.87  1266.18  3568.73
          (Kelvin)           4498.86

 Zero-point correction=                           0.019374 (Hartree/Particle)
 Thermal correction to Energy=                    0.022692
 Thermal correction to Enthalpy=                  0.023636
 Thermal correction to Gibbs Free Energy=        -0.005340
 Sum of electronic and zero-point Energies=           -436.991991
 Sum of electronic and thermal Energies=              -436.988673
 Sum of electronic and thermal Enthalpies=            -436.987729
 Sum of electronic and thermal Free Energies=         -437.016705

                     E (Thermal)             CV                S
                      KCal/Mol        Cal/Mol-Kelvin    Cal/Mol-Kelvin
 Total                   14.239              9.219             60.986
 Electronic               0.000              0.000              2.755
 Translational            0.889              2.981             37.403
 Rotational               0.889              2.981             19.456
 Vibrational             12.462              3.257              1.373
 Vibration     1          0.828              1.315              0.736

 Optimization completed.
    -- Stationary point found.
 Normal termination of Gaussian 09 at Wed Aug  3 20:08:12 2016.
