 Gaussian 09, Revision E.01,
 Gaussian 09:  EM64L-G09RevE.01 30-Nov-2015

 ------------------------------
 #p b3lyp/6-311++G(3df,2p) freq
 ------------------------------

 ---------
 b3lyp opt
 ---------
 Symbolic Z-matrix:
 Charge =  1 Multiplicity = 2

                         Standard orientation:
 ---------------------------------------------------------------------
 Center     Atomic      Atomic             Coordinates (Angstroms)
 Number     Number       Type             X           Y           Z
 ---------------------------------------------------------------------
      1         16           0        0.068085   -0.423498    0.000000
      2          6           0        0.068085    1.380051   -0.000000
      3          1           0       -0.748931   -0.752167    1.037356
      4          1           0       -0.748931   -0.752167   -1.037356
 ---------------------------------------------------------------------

 SCF Done:  E(UB3LYP) =  -437.018795691     A.U. after   15 cycles

 The electronic state is 2-A".
 Alpha  occ. eigenvalues --  -89.21684 -10.57528  -8.30131  -6.26230  -6.26173
 Alpha  occ. eigenvalues --   -6.25838  -1.11997  -0.88620  -0.77719  -0.67446
 Alpha  occ. eigenvalues --   -0.59596  -0.53168
 Alpha virt. eigenvalues --   -0.40652  -0.26907  -0.25645  -0.23659  -0.13475
 Alpha virt. eigenvalues --   -0.12946  -0.11994  -0.09600  -0.08209  -0.07136
 Alpha virt. eigenvalues --   -0.05901  -0.05167  -0.04687  -0.01615  -0.01084

  Beta  occ. eigenvalues --  -89.21726 -10.56070  -8.30158  -6.26270  -6.26209
  Beta  occ. eigenvalues --   -6.25899  -1.11105  -0.85283  -0.76799  -0.66928
  Beta  occ. eigenvalues --   -0.57786
  Beta virt. eigenvalues --   -0.39090  -0.37124  -0.26343  -0.24159  -0.23072
  Beta virt. eigenvalues --   -0.13268  -0.12802  -0.11916  -0.09316  -0.08057
  Beta virt. eigenvalues --   -0.05657  -0.05323  -0.04811  -0.04610  -0.01488

 Mulliken charges and spin densities:
               1          2
     1  S    0.289835   0.010054
     2  C    0.217239   0.916602
     3  H    0.246463   0.036672
     4  H    0.246463   0.036672
 Sum of Mulliken charges =   1.00000   1.00000

 Dipole moment (field-independent basis, Debye):
    X=             -1.3610    Y=             -1.7156    Z=              0.0000  Tot=              2.1899
 Quadrupole moment (field-independent basis, Debye-Ang):
   XX=            -15.3285   YY=            -15.3561   ZZ=            -14.4824
   XY=              1.4174   XZ=             -0.0000   YZ=              0.0000

  Exact polarizability:  22.233   2.409  37.435  -0.000   0.000  24.773
 Approx polarizability:  35.593   3.320  67.030  -0.000  -0.000  36.641

                      1                      2                      3
                     A'                     A"                     A'
 Frequencies --    438.4716               618.8236               655.3874
 Red. masses --      1.8734                 1.0951                 2.3369
 Frc consts  --      0.2122                 0.2471                 0.5914
 IR Inten    --    110.2515                 5.0908                21.2379

                      4                      5                      6
                     A'                     A'                     A"
 Frequencies --   1169.9444              2533.1057              2551.7085
 Red. masses --      1.0455                 1.0319                 1.0450
 Frc consts  --      0.8431                 3.9010                 4.0090
 IR Inten    --     10.6433                84.9606                98.7949

 - Thermochemistry -
 -------------------
 Temperature   298.150 Kelvin.  Pressure   1.00000 Atm.
 Atom     1 has atomic number 16 and mass  31.97207

 Molecular mass:    45.98772 amu.
 Principal axes and moments of inertia in atomic units:
                           1         2         3
     Eigenvalues --    12.13033 110.58287 113.94422
           X            0.04538  -0.00000   0.99897
           Y            0.99897   0.00000  -0.04538
           Z           -0.00000   1.00000   0.00000
 This molecule is an asymmetric top.
 Rotational symmetry number  1.
 Rotational temperatures (Kelvin)      7.14027     0.78325     0.76014
 Rotational constants (GHZ):         148.77921    16.32026    15.83881
 Zero-point vibrational energy      47655.9 (Joules/Mol)
                                   11.39003 (Kcal/Mol)
 Warning -- explicit consideration of   2 degrees of freedom as
           vibrations may cause significant error
 Vibrational temperatures:    630.86   890.35   942.96  1683.29  3644.57
          (Kelvin)           3671.33

 Zero-point correction=                           0.018151 (Hartree/Particle)
 Thermal correction to Energy=                    0.021558
 Thermal correction to Enthalpy=                  0.022503
 Thermal correction to Gibbs Free Energy=        -0.006055
 Sum of electronic and zero-point Energies=           -437.000645
 Sum of electronic and thermal Energies=              -436.997237
 Sum of electronic and thermal Enthalpies=            -436.996293
 Sum of electronic and thermal Free Energies=         -437.024851

                     E (Thermal)             CV                S
                      KCal/Mol        Cal/Mol-Kelvin    Cal/Mol-Kelvin
 Total                   13.528              9.485             60.104
 Electronic               0.000              0.000              1.377
 Translational            0.889              2.981             37.403
 Rotational               0.889              2.981             19.664
 Vibrational             11.751              3.524              1.660
 Vibration     1          0.799              1.386              0.831
 Vibration     2          0.979              0.992              0.418

 Optimization completed.
    -- Stationary point found.
 Normal termination of Gaussian 09 at Wed Aug  3 22:47:42 2016.
