 Gaussian 09, Revision E.01,
 Gaussian 09:  EM64L-G09RevE.01 30-Nov-2015

 ------------------------------
 #p b3lyp/6-311++G(3df,2p) freq
 ------------------------------

 ---------
 b3lyp opt
 ---------
 Symbolic Z-matrix:
 Charge =  0 Multiplicity = 3

                         Standard orientation:
 ---------------------------------------------------------------------
 Center     Atomic      Atomic             Coordinates (Angstroms)
 Number     Number       Type             X           Y           Z
 ---------------------------------------------------------------------
      1         16           0       -1.375585   -0.164492   -0.088393
      2         16           0        1.435171   -0.216798   -0.004076
      3          6           0        0.084128    0.791885    0.019280
      4          1           0       -1.547078   -0.512333    1.212033
      5          1           0        0.088939    1.861678    0.151788
 ---------------------------------------------------------------------

 SCF Done:  E(UB3LYP) =  -835.678565502     A.U. after   16 cycles

 The electronic state is 3-A.
 Alpha  occ. eigenvalues --  -88.88835 -88.88661 -10.23047  -7.97268  -7.96987
 Alpha  occ. eigenvalues --   -5.93741  -5.93592  -5.93246  -5.92915  -5.92887
 Alpha  occ. eigenvalues --   -5.92704  -0.84907  -0.74211  -0.60241  -0.48219
 Alpha  occ. eigenvalues --   -0.43352  -0.39331  -0.33194  -0.31092  -0.26904
 Alpha  occ. eigenvalues --   -0.19673
 Alpha virt. eigenvalues --   -0.01818  -0.00823   0.01704   0.02193   0.04027
 Alpha virt. eigenvalues --    0.04798   0.05912   0.06913   0.07226   0.08447
 Alpha virt. eigenvalues --    0.09007   0.09681   0.11082   0.12607   0.13267

  Beta  occ. eigenvalues --  -88.88685 -88.87976 -10.22005  -7.97120  -7.96362
  Beta  occ. eigenvalues --   -5.93451  -5.93097  -5.92571  -5.92561  -5.92036
  Beta  occ. eigenvalues --   -5.91827  -0.82436  -0.71681  -0.57152  -0.46549
  Beta  occ. eigenvalues --   -0.41208  -0.37422  -0.29069  -0.27588
  Beta virt. eigenvalues --   -0.16743  -0.08732  -0.01385   0.00031   0.02039
  Beta virt. eigenvalues --    0.02623   0.04176   0.05351   0.06327   0.07075
  Beta virt. eigenvalues --    0.07603   0.08821   0.09632   0.10368   0.11579

 Mulliken charges and spin densities:
               1          2
     1  S   -0.093012   0.223743
     2  S   -0.133025   1.128175
     3  C   -0.068974   0.602452
     4  H    0.111452   0.068251
     5  H    0.183560  -0.022621
 Sum of Mulliken charges =  -0.00000   2.00000

 Dipole moment (field-independent basis, Debye):
    X=             -0.5152    Y=              0.6287    Z=              0.8402  Tot=              1.1690
 Quadrupole moment (field-independent basis, Debye-Ang):
   XX=            -32.5854   YY=            -31.5982   ZZ=            -33.1663
   XY=              1.1629   XZ=             -1.3016   YZ=             -0.3692

  Exact polarizability:  92.664  -2.787  48.200  -2.119  -1.229  43.889
 Approx polarizability: 162.803  -6.652  77.612  -2.694  -2.782  69.001

                      1                      2                      3
                      A                      A                      A
 Frequencies --    203.4026               232.7866               278.7918
 Red. masses --      3.7475                 1.2557                 1.5259
 Frc consts  --      0.0913                 0.0401                 0.0699
 IR Inten    --     19.9821                 5.9431                38.1186

                      4                      5                      6
                      A                      A                      A
 Frequencies --    747.5824               890.9360               920.8257
 Red. masses --      7.3382                 3.9142                 1.1839
 Frc consts  --      2.4163                 1.8306                 0.5915
 IR Inten    --      5.2814                 8.4754                 5.5653

                      7                      8                      9
                      A                      A                      A
 Frequencies --   1154.2017              2523.2834              3205.9805
 Red. masses --      1.2079                 1.0397                 1.0884
 Frc consts  --      0.9481                 3.9001                 6.5914
 IR Inten    --      1.2470                15.3215                 0.3681

 - Thermochemistry -
 -------------------
 Temperature   298.150 Kelvin.  Pressure   1.00000 Atm.
 Atom     1 has atomic number 16 and mass  31.97207

 Molecular mass:    77.95979 amu.
 Principal axes and moments of inertia in atomic units:
                           1         2         3
     Eigenvalues --    54.73738 466.25187 508.85647
           X            0.99986   0.00757  -0.01489
           Y           -0.00797   0.99959  -0.02732
           Z            0.01468   0.02744   0.99952
 This molecule is an asymmetric top.
 Rotational symmetry number  1.
 Rotational temperatures (Kelvin)      1.58235     0.18577     0.17021
 Rotational constants (GHZ):          32.97091     3.87074     3.54666
 Zero-point vibrational energy      60757.1 (Joules/Mol)
                                   14.52129 (Kcal/Mol)
 Warning -- explicit consideration of   3 degrees of freedom as
           vibrations may cause significant error
 Vibrational temperatures:    292.65   334.93   401.12  1075.60  1281.86
          (Kelvin)           1324.86  1660.64  3630.44  4612.69

 Zero-point correction=                           0.023141 (Hartree/Particle)
 Thermal correction to Energy=                    0.027708
 Thermal correction to Enthalpy=                  0.028653
 Thermal correction to Gibbs Free Energy=        -0.005231
 Sum of electronic and zero-point Energies=           -835.655424
 Sum of electronic and thermal Energies=              -835.650857
 Sum of electronic and thermal Enthalpies=            -835.649913
 Sum of electronic and thermal Free Energies=         -835.683797

                     E (Thermal)             CV                S
                      KCal/Mol        Cal/Mol-Kelvin    Cal/Mol-Kelvin
 Total                   17.387             13.264             71.315
 Electronic               0.000              0.000              2.183
 Translational            0.889              2.981             38.976
 Rotational               0.889              2.981             24.078
 Vibrational             15.610              7.303              6.078
 Vibration     1          0.639              1.835              2.102
 Vibration     2          0.654              1.791              1.857
 Vibration     3          0.679              1.713              1.541

 Optimization completed.
    -- Stationary point found.
 Normal termination of Gaussian 09 at Wed Aug  3 20:41:04 2016.
