 Gaussian 09, Revision E.01,
 Gaussian 09:  EM64L-G09RevE.01 30-Nov-2015

 ------------------------------
 #p b3lyp/6-311++G(3df,2p) freq
 ------------------------------

 ---------
 b3lyp opt
 ---------
 Symbolic Z-matrix:
 Charge =  2 Multiplicity = 3

                         Standard orientation:
 ---------------------------------------------------------------------
 Center     Atomic      Atomic             Coordinates (Angstroms)
 Number     Number       Type             X           Y           Z
 ---------------------------------------------------------------------
      1         16           0        1.574809   -0.123191   -0.000000
      2         16           0       -1.606603    0.016595    0.000000
      3          6           0       -0.000000    0.321187   -0.000000
      4          1           0        2.119646    1.151083   -0.000000
      5          1           0       -1.610947   -1.372670    0.000000
 ---------------------------------------------------------------------

 SCF Done:  E(UB3LYP) =  -834.784078362     A.U. after   15 cycles

 The electronic state is 3-A".
 Alpha  occ. eigenvalues --  -89.44294 -89.44281 -10.77555  -8.52110  -8.52094
 Alpha  occ. eigenvalues --   -6.48655  -6.48654  -6.48163  -6.48154  -6.47761
 Alpha  occ. eigenvalues --   -6.47670  -1.36890  -1.29986  -1.07364  -0.98957
 Alpha  occ. eigenvalues --   -0.91408  -0.87988  -0.87968  -0.80285  -0.74294
 Alpha virt. eigenvalues --   -0.57833  -0.47178  -0.45073  -0.41149  -0.36056
 Alpha virt. eigenvalues --   -0.33577  -0.29061  -0.27748  -0.26445  -0.26171
 Alpha virt. eigenvalues --   -0.25826  -0.24545  -0.23619  -0.23158  -0.20243

  Beta  occ. eigenvalues --  -89.43890 -89.43853 -10.76407  -8.51711  -8.51700
  Beta  occ. eigenvalues --   -6.47937  -6.47896  -6.47451  -6.47450  -6.47399
  Beta  occ. eigenvalues --   -6.47379  -1.34063  -1.27282  -1.04400  -0.96879
  Beta  occ. eigenvalues --   -0.88190  -0.86003  -0.83943
  Beta virt. eigenvalues --   -0.69629  -0.60527  -0.54596  -0.45852  -0.43029
  Beta virt. eigenvalues --   -0.39555  -0.34210  -0.32397  -0.27373  -0.26708
  Beta virt. eigenvalues --   -0.25749  -0.25610  -0.25081  -0.22865  -0.22499

 Mulliken charges and spin densities:
               1          2
     1  S    0.481511   0.633367
     2  S    0.522175   0.573036
     3  C    0.416389   0.642947
     4  H    0.302835   0.059389
     5  H    0.277090   0.091261
 Sum of Mulliken charges =   2.00000   2.00000

 Dipole moment (field-independent basis, Debye):
    X=              0.5202    Y=             -0.3965    Z=              0.0000  Tot=              0.6541
 Quadrupole moment (field-independent basis, Debye-Ang):
   XX=              3.9198   YY=            -21.2458   ZZ=            -25.5382
   XY=              5.4939   XZ=             -0.0000   YZ=             -0.0000

  Exact polarizability:  75.588   4.381  32.514  -0.000  -0.000  25.581
 Approx polarizability: 154.097   3.744  54.265  -0.000  -0.000  40.875

                      1                      2                      3
                     A'                     A"                     A'
 Frequencies --    177.2814               309.8744               550.3240
 Red. masses --      5.3137                 2.9031                18.1747
 Frc consts  --      0.0984                 0.1642                 3.2431
 IR Inten    --     10.8651                 2.4673                 0.2956

                      4                      5                      6
                     A"                     A'                     A'
 Frequencies --    616.5257               872.3564               903.8079
 Red. masses --      1.0532                 1.3271                 1.3105
 Frc consts  --      0.2359                 0.5950                 0.6307
 IR Inten    --     55.8678                 2.9484                18.0996

                      7                      8                      9
                     A'                     A'                     A'
 Frequencies --    991.9811              2334.1917              2366.6773
 Red. masses --      2.7761                 1.0399                 1.0398
 Frc consts  --      1.6095                 3.3381                 3.4315
 IR Inten    --    142.1334               209.6030               191.2682

 - Thermochemistry -
 -------------------
 Temperature   298.150 Kelvin.  Pressure   1.00000 Atm.
 Atom     1 has atomic number 16 and mass  31.97207

 Molecular mass:    77.95979 amu.
 Principal axes and moments of inertia in atomic units:
                           1         2         3
     Eigenvalues --    17.61073 603.47918 621.08992
           X            0.99990   0.01442   0.00000
           Y           -0.01442   0.99990   0.00000
           Z            0.00000  -0.00000   1.00000
 This molecule is an asymmetric top.
 Rotational symmetry number  1.
 Rotational temperatures (Kelvin)      4.91824     0.14352     0.13945
 Rotational constants (GHZ):         102.47961     2.99056     2.90576
 Zero-point vibrational energy      54567.8 (Joules/Mol)
                                   13.04201 (Kcal/Mol)
 Warning -- explicit consideration of   4 degrees of freedom as
           vibrations may cause significant error
 Vibrational temperatures:    255.07   445.84   791.79   887.04  1255.12
          (Kelvin)           1300.38  1427.24  3358.38  3405.12

 Zero-point correction=                           0.020784 (Hartree/Particle)
 Thermal correction to Energy=                    0.025113
 Thermal correction to Enthalpy=                  0.026058
 Thermal correction to Gibbs Free Energy=        -0.007031
 Sum of electronic and zero-point Energies=           -834.763295
 Sum of electronic and thermal Energies=              -834.758965
 Sum of electronic and thermal Enthalpies=            -834.758021
 Sum of electronic and thermal Free Energies=         -834.791109

                     E (Thermal)             CV                S
                      KCal/Mol        Cal/Mol-Kelvin    Cal/Mol-Kelvin
 Total                   15.759             13.049             69.640
 Electronic               0.000              0.000              2.183
 Translational            0.889              2.981             38.976
 Rotational               0.889              2.981             23.405
 Vibrational             13.981              7.087              5.076
 Vibration     1          0.628              1.870              2.357
 Vibration     2          0.699              1.655              1.363
 Vibration     3          0.906              1.139              0.544
 Vibration     4          0.976              0.997              0.422

 Optimization completed.
    -- Stationary point found.
 Normal termination of Gaussian 09 at Wed Aug  3 23:09:30 2016.
