 Gaussian 09, Revision E.01,
 Gaussian 09:  EM64L-G09RevE.01 30-Nov-2015

 ------------------------------
 #p b3lyp/6-311++G(3df,2p) freq
 ------------------------------

 ---------
 b3lyp opt
 ---------
 Symbolic Z-matrix:
 Charge =  1 Multiplicity = 2

                         Standard orientation:
 ---------------------------------------------------------------------
 Center     Atomic      Atomic             Coordinates (Angstroms)
 Number     Number       Type             X           Y           Z
 ---------------------------------------------------------------------
      1         16           0        0.000000   -1.549464   -0.135561
      2         16           0        0.000000    1.549464   -0.135561
      3          6           0       -0.000000   -0.000000    0.354870
      4          1           0       -0.000000   -2.108553    1.104372
      5          1           0        0.000000    2.108553    1.104372
 ---------------------------------------------------------------------

 SCF Done:  E(UB3LYP) =  -835.393468699     A.U. after   12 cycles

 The electronic state is 2-A1.
 Alpha  occ. eigenvalues --  -89.14161 -89.14161 -10.52409  -8.22573  -8.22573
 Alpha  occ. eigenvalues --   -6.18823  -6.18823  -6.18519  -6.18519  -6.18234
 Alpha  occ. eigenvalues --   -6.18234  -1.10778  -1.02703  -0.81935  -0.70754
 Alpha  occ. eigenvalues --   -0.69089  -0.63055  -0.61476  -0.51344  -0.49544
 Alpha virt. eigenvalues --   -0.32244  -0.22272  -0.20700  -0.20299  -0.13549
 Alpha virt. eigenvalues --   -0.12959  -0.10593  -0.09691  -0.07866  -0.07226
 Alpha virt. eigenvalues --   -0.06869  -0.06814  -0.06422  -0.04840  -0.04055

  Beta  occ. eigenvalues --  -89.14149 -89.14149 -10.51003  -8.22557  -8.22557
  Beta  occ. eigenvalues --   -6.18815  -6.18815  -6.18430  -6.18430  -6.18265
  Beta  occ. eigenvalues --   -6.18265  -1.09166  -1.02327  -0.79936  -0.69693
  Beta  occ. eigenvalues --   -0.65592  -0.61684  -0.60719  -0.51529
  Beta virt. eigenvalues --   -0.36633  -0.30820  -0.21604  -0.19641  -0.19640
  Beta virt. eigenvalues --   -0.13214  -0.12492  -0.10391  -0.09627  -0.07640
  Beta virt. eigenvalues --   -0.07023  -0.06804  -0.06614  -0.06246  -0.04018

 Mulliken charges and spin densities:
               1          2
     1  S    0.135239   0.028715
     2  S    0.135239   0.028715
     3  C    0.280834   0.802014
     4  H    0.224344   0.070278
     5  H    0.224344   0.070278
 Sum of Mulliken charges =   1.00000   1.00000

 Dipole moment (field-independent basis, Debye):
    X=              0.0000    Y=              0.0000    Z=              1.5382  Tot=              1.5382
 Quadrupole moment (field-independent basis, Debye-Ang):
   XX=            -30.3494   YY=            -10.9469   ZZ=            -25.9215
   XY=              0.0000   XZ=              0.0000   YZ=              0.0000

  Exact polarizability:  31.280  -0.000  79.958   0.000   0.000  36.087
 Approx polarizability:  49.051   0.000 155.957  -0.000   0.000  61.128

                      1                      2                      3
                     A2                     A1                     B1
 Frequencies --    110.1577               215.5533               420.9707
 Red. masses --      1.0647                 7.8633                 1.9809
 Frc consts  --      0.0076                 0.2153                 0.2068
 IR Inten    --      0.0000                 2.1330                34.1408

                      4                      5                      6
                     A1                     B2                     A1
 Frequencies --    616.6144               892.6339               948.5236
 Red. masses --      9.8530                 1.1465                 1.1413
 Frc consts  --      2.2072                 0.5382                 0.6050
 IR Inten    --      0.3948                58.4979                 5.2737

                      7                      8                      9
                     B2                     B2                     A1
 Frequencies --   1276.7239              2539.0847              2542.3778
 Red. masses --      7.4766                 1.0393                 1.0402
 Frc consts  --      7.1804                 3.9475                 3.9612
 IR Inten    --    189.0926                61.9397                49.6210

 - Thermochemistry -
 -------------------
 Temperature   298.150 Kelvin.  Pressure   1.00000 Atm.
 Atom     1 has atomic number 16 and mass  31.97207

 Molecular mass:    77.95979 amu.
 Principal axes and moments of inertia in atomic units:
                           1         2         3
     Eigenvalues --    18.15340 580.23095 598.38435
           X            0.00000  -0.00000   1.00000
           Y            1.00000   0.00000  -0.00000
           Z           -0.00000   1.00000   0.00000
 This molecule is an asymmetric top.
 Rotational symmetry number  2.
 Rotational temperatures (Kelvin)      4.77122     0.14927     0.14475
 Rotational constants (GHZ):          99.41614     3.11038     3.01602
 Zero-point vibrational energy      57197.3 (Joules/Mol)
                                   13.67048 (Kcal/Mol)
 Warning -- explicit consideration of   4 degrees of freedom as
           vibrations may cause significant error
 Vibrational temperatures:    158.49   310.13   605.68   887.17  1284.30
          (Kelvin)           1364.71  1836.92  3653.17  3657.91

 Zero-point correction=                           0.021785 (Hartree/Particle)
 Thermal correction to Energy=                    0.026423
 Thermal correction to Enthalpy=                  0.027368
 Thermal correction to Gibbs Free Energy=        -0.005510
 Sum of electronic and zero-point Energies=           -835.371683
 Sum of electronic and thermal Energies=              -835.367045
 Sum of electronic and thermal Enthalpies=            -835.366101
 Sum of electronic and thermal Free Energies=         -835.398979

                     E (Thermal)             CV                S
                      KCal/Mol        Cal/Mol-Kelvin    Cal/Mol-Kelvin
 Total                   16.581             13.251             69.197
 Electronic               0.000              0.000              1.377
 Translational            0.889              2.981             38.976
 Rotational               0.889              2.981             21.982
 Vibrational             14.803              7.290              6.862
 Vibration     1          0.606              1.941              3.266
 Vibration     2          0.645              1.817              1.996
 Vibration     3          0.783              1.425              0.889
 Vibration     4          0.976              0.997              0.422

 Optimization completed.
    -- Stationary point found.
 Normal termination of Gaussian 09 at Wed Aug  3 23:07:05 2016.
