 Gaussian 09, Revision E.01,
 Gaussian 09:  EM64L-G09RevE.01 30-Nov-2015

 ------------------------------
 #p b3lyp/6-311++G(3df,2p) freq
 ------------------------------

 ---------
 b3lyp opt
 ---------
 Symbolic Z-matrix:
 Charge =  0 Multiplicity = 1

                         Standard orientation:
 ---------------------------------------------------------------------
 Center     Atomic      Atomic             Coordinates (Angstroms)
 Number     Number       Type             X           Y           Z
 ---------------------------------------------------------------------
      1         16           0       -1.376462   -0.458107   -0.000000
      2         16           0        1.538426    0.098099    0.000000
      3          6           0        0.000000    0.601666    0.000000
      4          1           0       -2.329464    0.492745    0.000000
      5          1           0       -0.261960    1.657381    0.000000
 ---------------------------------------------------------------------

 SCF Done:  E(RB3LYP) =  -835.749682829     A.U. after   11 cycles

 The electronic state is 1-A'.
 Alpha  occ. eigenvalues --  -88.89480 -88.84069 -10.27305  -7.98087  -7.92742
 Alpha  occ. eigenvalues --   -5.94399  -5.94007  -5.93666  -5.88949  -5.88897
 Alpha  occ. eigenvalues --   -5.88186  -0.84949  -0.74683  -0.58588  -0.50136
 Alpha  occ. eigenvalues --   -0.40488  -0.38026  -0.36820  -0.27022  -0.24100
 Alpha virt. eigenvalues --   -0.09412  -0.03438  -0.00630   0.02237   0.02863
 Alpha virt. eigenvalues --    0.03760   0.04452   0.05992   0.07272   0.07420
 Alpha virt. eigenvalues --    0.09184   0.09886   0.09989   0.10283   0.11941

 Mulliken charges:
               1
     1  S   -0.130423
     2  S   -0.287833
     3  C    0.108801
     4  H    0.129499
     5  H    0.179955
 Sum of Mulliken charges =  -0.00000

 Dipole moment (field-independent basis, Debye):
    X=             -2.5621    Y=              1.2043    Z=              0.0000  Tot=              2.8310
 Quadrupole moment (field-independent basis, Debye-Ang):
   XX=            -31.0874   YY=            -32.1618   ZZ=            -33.9654
   XY=             -2.1701   XZ=             -0.0000   YZ=             -0.0000

  Exact polarizability:  88.305   3.757  48.046   0.000   0.000  39.533
 Approx polarizability: 167.099   2.419  77.093   0.000   0.000  62.934

                      1                      2                      3
                     A'                     A"                     A'
 Frequencies --    301.5437               386.2881               725.8780
 Red. masses --     12.2388                 1.1172                 4.0828
 Frc consts  --      0.6557                 0.0982                 1.2675
 IR Inten    --      0.0559                13.6066                28.0386

                      4                      5                      6
                     A"                     A'                     A'
 Frequencies --    819.0484               937.6999              1097.1083
 Red. masses --      1.4499                 1.5433                 2.2957
 Frc consts  --      0.5731                 0.7995                 1.6280
 IR Inten    --     28.1109                86.5710                96.1849

                      7                      8                      9
                     A'                     A'                     A'
 Frequencies --   1288.0956              2650.9698              3090.0270
 Red. masses --      1.3283                 1.0384                 1.0881
 Frc consts  --      1.2985                 4.2995                 6.1214
 IR Inten    --     84.1829                 0.8911                 8.1310

 - Thermochemistry -
 -------------------
 Temperature   298.150 Kelvin.  Pressure   1.00000 Atm.
 Atom     1 has atomic number 16 and mass  31.97207

 Molecular mass:    77.95979 amu.
 Principal axes and moments of inertia in atomic units:
                           1         2         3
     Eigenvalues --    36.18574 520.95790 557.14364
           X            0.98447  -0.17555   0.00000
           Y            0.17555   0.98447   0.00000
           Z            0.00000  -0.00000   1.00000
 This molecule is an asymmetric top.
 Rotational symmetry number  1.
 Rotational temperatures (Kelvin)      2.39359     0.16626     0.15546
 Rotational constants (GHZ):          49.87437     3.46427     3.23927
 Zero-point vibrational energy      67569.0 (Joules/Mol)
                                   16.14938 (Kcal/Mol)
 Warning -- explicit consideration of   2 degrees of freedom as
           vibrations may cause significant error
 Vibrational temperatures:    433.85   555.78  1044.38  1178.43  1349.14
          (Kelvin)           1578.49  1853.28  3814.15  4445.85

 Zero-point correction=                           0.025736 (Hartree/Particle)
 Thermal correction to Energy=                    0.029569
 Thermal correction to Enthalpy=                  0.030513
 Thermal correction to Gibbs Free Energy=        -0.000820
 Sum of electronic and zero-point Energies=           -835.723947
 Sum of electronic and thermal Energies=              -835.720114
 Sum of electronic and thermal Enthalpies=            -835.719170
 Sum of electronic and thermal Free Energies=         -835.750503

                     E (Thermal)             CV                S
                      KCal/Mol        Cal/Mol-Kelvin    Cal/Mol-Kelvin
 Total                   18.555             11.420             65.947
 Electronic               0.000              0.000              0.000
 Translational            0.889              2.981             38.976
 Rotational               0.889              2.981             23.867
 Vibrational             16.777              5.459              3.104
 Vibration     1          0.694              1.671              1.408
 Vibration     2          0.755              1.499              1.014

 Optimization completed.
    -- Stationary point found.
 Normal termination of Gaussian 09 at Wed Aug  3 23:04:59 2016.
