 Gaussian 09, Revision E.01,
 Gaussian 09:  EM64L-G09RevE.01 30-Nov-2015

 ------------------------------
 #p b3lyp/6-311++G(3df,2p) freq
 ------------------------------

 ---------
 b3lyp opt
 ---------
 Symbolic Z-matrix:
 Charge =  1 Multiplicity = 2

                         Standard orientation:
 ---------------------------------------------------------------------
 Center     Atomic      Atomic             Coordinates (Angstroms)
 Number     Number       Type             X           Y           Z
 ---------------------------------------------------------------------
      1         16           0        0.078155   -0.487366   -0.000000
      2          6           0        0.078155    1.083469   -0.000000
      3          1           0       -0.441280    2.035042    0.000000
      4          1           0       -1.278128   -0.738007    0.000000
 ---------------------------------------------------------------------

 SCF Done:  E(UB3LYP) =  -437.117582773     A.U. after   14 cycles

 The electronic state is 2-A'.
 Alpha  occ. eigenvalues --  -89.20292 -10.55731  -8.28622  -6.24796  -6.24486
 Alpha  occ. eigenvalues --   -6.24365  -1.13569  -0.90119  -0.78703  -0.68215
 Alpha  occ. eigenvalues --   -0.63016  -0.55064
 Alpha virt. eigenvalues --   -0.38196  -0.25236  -0.19981  -0.15526  -0.14099
 Alpha virt. eigenvalues --   -0.11289  -0.10945  -0.09344  -0.07093  -0.06583
 Alpha virt. eigenvalues --   -0.05329  -0.04630  -0.02698  -0.01035   0.00080

  Beta  occ. eigenvalues --  -89.20354 -10.54090  -8.28653  -6.24856  -6.24642
  Beta  occ. eigenvalues --   -6.24407  -1.12050  -0.87221  -0.77097  -0.66548
  Beta  occ. eigenvalues --   -0.62512
  Beta virt. eigenvalues --   -0.39092  -0.36474  -0.24181  -0.19146  -0.15260
  Beta virt. eigenvalues --   -0.13698  -0.11236  -0.10616  -0.08878  -0.07016
  Beta virt. eigenvalues --   -0.05620  -0.05118  -0.04147  -0.01917  -0.00782

 Mulliken charges and spin densities:
               1          2
     1  S    0.416198  -0.062826
     2  C    0.057439   0.936671
     3  H    0.305773  -0.002799
     4  H    0.220589   0.128954
 Sum of Mulliken charges =   1.00000   1.00000

 Dipole moment (field-independent basis, Debye):
    X=             -1.5271    Y=              1.0614    Z=              0.0000  Tot=              1.8597
 Quadrupole moment (field-independent basis, Debye-Ang):
   XX=            -14.7502   YY=             -8.8491   ZZ=            -16.9794
   XY=              0.0010   XZ=              0.0000   YZ=             -0.0000

  Exact polarizability:  22.536   1.663  34.054  -0.000   0.000  18.705
 Approx polarizability:  34.418   4.230  65.394  -0.000  -0.000  28.124

                      1                      2                      3
                     A'                     A"                     A'
 Frequencies --    485.2891               803.7359               942.1294
 Red. masses --      1.1451                 1.2214                 1.2081
 Frc consts  --      0.1589                 0.4649                 0.6318
 IR Inten    --     25.0518                17.4765                30.2625

                      4                      5                      6
                     A'                     A'                     A'
 Frequencies --   1111.4989              2385.1740              3213.6118
 Red. masses --      5.9616                 1.0395                 1.1037
 Frc consts  --      4.3394                 3.4844                 6.7156
 IR Inten    --     24.8473                40.8873               115.0027

 - Thermochemistry -
 -------------------
 Temperature   298.150 Kelvin.  Pressure   1.00000 Atm.
 Atom     1 has atomic number 16 and mass  31.97207

 Molecular mass:    45.98772 amu.
 Principal axes and moments of inertia in atomic units:
                           1         2         3
     Eigenvalues --     7.31220  94.16540 101.47760
           X           -0.00448   0.99999   0.00000
           Y            0.99999   0.00448   0.00000
           Z           -0.00000  -0.00000   1.00000
 This molecule is an asymmetric top.
 Rotational symmetry number  1.
 Rotational temperatures (Kelvin)     11.84511     0.91981     0.85353
 Rotational constants (GHZ):         246.81226    19.16565    17.78463
 Zero-point vibrational energy      53481.7 (Joules/Mol)
                                   12.78243 (Kcal/Mol)
 Warning -- explicit consideration of   1 degrees of freedom as
           vibrations may cause significant error
 Vibrational temperatures:    698.22  1156.40  1355.51  1599.20  3431.73
          (Kelvin)           4623.66

 Zero-point correction=                           0.020370 (Hartree/Particle)
 Thermal correction to Energy=                    0.023585
 Thermal correction to Enthalpy=                  0.024529
 Thermal correction to Gibbs Free Energy=        -0.003382
 Sum of electronic and zero-point Energies=           -437.097213
 Sum of electronic and thermal Energies=              -437.093998
 Sum of electronic and thermal Enthalpies=            -437.093053
 Sum of electronic and thermal Free Energies=         -437.120965

                     E (Thermal)             CV                S
                      KCal/Mol        Cal/Mol-Kelvin    Cal/Mol-Kelvin
 Total                   14.800              8.607             58.744
 Electronic               0.000              0.000              1.377
 Translational            0.889              2.981             37.403
 Rotational               0.889              2.981             18.886
 Vibrational             13.022              2.645              1.078
 Vibration     1          0.841              1.283              0.696

 Optimization completed.
    -- Stationary point found.
 Normal termination of Gaussian 09 at Wed Aug  3 22:47:45 2016.
