 Gaussian 09, Revision E.01,
 Gaussian 09:  EM64L-G09RevE.01 30-Nov-2015

 ------------------------------
 #p b3lyp/6-311++G(3df,2p) freq
 ------------------------------

 ---------
 b3lyp opt
 ---------
 Symbolic Z-matrix:
 Charge =  2 Multiplicity = 3

                         Standard orientation:
 ---------------------------------------------------------------------
 Center     Atomic      Atomic             Coordinates (Angstroms)
 Number     Number       Type             X           Y           Z
 ---------------------------------------------------------------------
      1         16           0        0.086038   -0.541714   -0.000000
      2          6           0        0.086038    1.217021    0.000000
      3          1           0       -0.588433    2.107962    0.000000
      4          1           0       -1.304407   -0.742664    0.000000
 ---------------------------------------------------------------------

 SCF Done:  E(UB3LYP) =  -436.393400411     A.U. after   13 cycles

 The electronic state is 3-A".
 Alpha  occ. eigenvalues --  -89.57369 -10.92201  -8.64759  -6.61737  -6.60740
 Alpha  occ. eigenvalues --   -6.60159  -1.43483  -1.21357  -1.06843  -0.97694
 Alpha  occ. eigenvalues --   -0.95274  -0.87105
 Alpha virt. eigenvalues --   -0.72097  -0.57054  -0.51113  -0.38860  -0.36111
 Alpha virt. eigenvalues --   -0.35492  -0.31484  -0.30004  -0.28935  -0.27173
 Alpha virt. eigenvalues --   -0.26824  -0.23710  -0.21672  -0.19877  -0.16735

  Beta  occ. eigenvalues --  -89.56824 -10.90156  -8.64232  -6.60412  -6.60023
  Beta  occ. eigenvalues --   -6.59864  -1.38722  -1.16787  -1.04678  -0.95593
  Beta virt. eigenvalues --   -0.81493  -0.68193  -0.65647  -0.55163  -0.47941
  Beta virt. eigenvalues --   -0.37220  -0.34984  -0.32863  -0.30284  -0.28365
  Beta virt. eigenvalues --   -0.27935  -0.26083  -0.24834  -0.22491  -0.21024

 Mulliken charges and spin densities:
               1          2
     1  S    0.847499   0.835993
     2  C    0.460972   1.106218
     3  H    0.365175   0.009298
     4  H    0.326355   0.048490
 Sum of Mulliken charges =   2.00000   2.00000

 Dipole moment (field-independent basis, Debye):
    X=             -1.9782    Y=              2.1719    Z=              0.0000  Tot=              2.9378
 Quadrupole moment (field-independent basis, Debye-Ang):
   XX=            -11.4678   YY=             -0.7881   ZZ=            -13.2072
   XY=             -0.3236   XZ=              0.0000   YZ=              0.0000

  Exact polarizability:  18.921   0.935  30.515   0.000  -0.000  15.336
 Approx polarizability:  28.215   2.451  50.969  -0.000   0.000  23.362

                      1                      2                      3
                     A"                     A'                     A'
 Frequencies --    428.8663               609.4665               738.6708
 Red. masses --      1.1856                 1.4198                 2.9485
 Frc consts  --      0.1285                 0.3107                 0.9479
 IR Inten    --      0.1705                12.7022                60.6627

                      4                      5                      6
                     A'                     A'                     A'
 Frequencies --    916.5562              2249.8556              2899.1253
 Red. masses --      1.1869                 1.0401                 1.0958
 Frc consts  --      0.5875                 3.1018                 5.4262
 IR Inten    --     30.9558               247.7670               334.9097

 - Thermochemistry -
 -------------------
 Temperature   298.150 Kelvin.  Pressure   1.00000 Atm.
 Atom     1 has atomic number 16 and mass  31.97207

 Molecular mass:    45.98772 amu.
 Principal axes and moments of inertia in atomic units:
                           1         2         3
     Eigenvalues --     8.23450 114.83830 123.07280
           X           -0.01517   0.99988   0.00000
           Y            0.99988   0.01517  -0.00000
           Z            0.00000  -0.00000   1.00000
 This molecule is an asymmetric top.
 Rotational symmetry number  1.
 Rotational temperatures (Kelvin)     10.51841     0.75422     0.70376
 Rotational constants (GHZ):         219.16834    15.71550    14.66401
 Zero-point vibrational energy      46908.8 (Joules/Mol)
                                   11.21147 (Kcal/Mol)
 Warning -- explicit consideration of   2 degrees of freedom as
           vibrations may cause significant error
 Vibrational temperatures:    617.04   876.89  1062.78  1318.72  3237.04
          (Kelvin)           4171.19

 Zero-point correction=                           0.017867 (Hartree/Particle)
 Thermal correction to Energy=                    0.021285
 Thermal correction to Enthalpy=                  0.022229
 Thermal correction to Gibbs Free Energy=        -0.006596
 Sum of electronic and zero-point Energies=           -436.375534
 Sum of electronic and thermal Energies=              -436.372115
 Sum of electronic and thermal Enthalpies=            -436.371171
 Sum of electronic and thermal Free Energies=         -436.399997

                     E (Thermal)             CV                S
                      KCal/Mol        Cal/Mol-Kelvin    Cal/Mol-Kelvin
 Total                   13.357              9.621             60.669
 Electronic               0.000              0.000              2.183
 Translational            0.889              2.981             37.403
 Rotational               0.889              2.981             19.393
 Vibrational             11.579              3.659              1.691
 Vibration     1          0.790              1.407              0.862
 Vibration     2          0.968              1.012              0.434

 Optimization completed.
    -- Stationary point found.
 Normal termination of Gaussian 09 at Wed Aug  3 22:48:16 2016.
