 Gaussian 09, Revision E.01,
 Gaussian 09:  EM64L-G09RevE.01 30-Nov-2015

 ------------------------------
 #p b3lyp/6-311++G(3df,2p) freq
 ------------------------------

 ---------
 b3lyp opt
 ---------
 Symbolic Z-matrix:
 Charge =  1 Multiplicity = 2

                         Standard orientation:
 ---------------------------------------------------------------------
 Center     Atomic      Atomic             Coordinates (Angstroms)
 Number     Number       Type             X           Y           Z
 ---------------------------------------------------------------------
      1         16           0        0.000000   -0.000000    0.104247
      2          1           0        0.000000    0.988081   -0.833972
      3          1           0       -0.000000   -0.988081   -0.833972
 ---------------------------------------------------------------------

 SCF Done:  E(UB3LYP) =  -399.045918582     A.U. after   11 cycles

 The electronic state is 2-B1.
 Alpha  occ. eigenvalues --  -89.25523  -8.33622  -6.30569  -6.29494  -6.29165
 Alpha  occ. eigenvalues --   -1.10898  -0.77470  -0.70656  -0.65335
 Alpha virt. eigenvalues --   -0.28630  -0.25925  -0.16224  -0.13002  -0.11995
 Alpha virt. eigenvalues --   -0.11624  -0.10327  -0.10164  -0.09346  -0.05304
 Alpha virt. eigenvalues --   -0.04237   0.06247   0.06845   0.09845   0.10015

  Beta  occ. eigenvalues --  -89.24851  -8.33001  -6.29090  -6.28792  -6.28485
  Beta  occ. eigenvalues --   -1.06841  -0.76644  -0.69143
  Beta virt. eigenvalues --   -0.49808  -0.28156  -0.24503  -0.14400  -0.12979
  Beta virt. eigenvalues --   -0.11903  -0.10636  -0.09562  -0.07201  -0.06441
  Beta virt. eigenvalues --   -0.05052  -0.04207   0.06974   0.08378   0.10254

 Mulliken charges and spin densities:
               1          2
     1  S    0.513388   1.038066
     2  H    0.243306  -0.019033
     3  H    0.243306  -0.019033
 Sum of Mulliken charges =   1.00000   1.00000

 Dipole moment (field-independent basis, Debye):
    X=             -0.0000    Y=             -0.0000    Z=             -1.3698  Tot=              1.3698
 Quadrupole moment (field-independent basis, Debye-Ang):
   XX=            -11.1351   YY=             -8.6597   ZZ=             -9.9859
   XY=              0.0000   XZ=              0.0000   YZ=              0.0000

  Exact polarizability:  13.051   0.000  17.285   0.000   0.000  16.237
 Approx polarizability:  18.560   0.000  26.214   0.000   0.000  23.821

                      1                      2                      3
                     A1                     A1                     B2
 Frequencies --   1186.6393              2570.0136              2571.8546
 Red. masses --      1.0392                 1.0361                 1.0402
 Frc consts  --      0.8621                 4.0320                 4.0536
 IR Inten    --      2.1181                58.6224                89.6128

 - Thermochemistry -
 -------------------
 Temperature   298.150 Kelvin.  Pressure   1.00000 Atm.
 Atom     1 has atomic number 16 and mass  31.97207

 Molecular mass:    33.98772 amu.
 Principal axes and moments of inertia in atomic units:
                           1         2         3
     Eigenvalues --     5.96032   7.02745  12.98777
           X            0.00000   0.00000   1.00000
           Y            1.00000  -0.00000  -0.00000
           Z            0.00000   1.00000  -0.00000
 This molecule is an asymmetric top.
 Rotational symmetry number  2.
 Rotational temperatures (Kelvin)     14.53174    12.32507     6.66887
 Rotational constants (GHZ):         302.79265   256.81309   138.95697
 Zero-point vibrational energy      37852.9 (Joules/Mol)
                                    9.04706 (Kcal/Mol)
 Vibrational temperatures:   1707.31  3697.67  3700.32
          (Kelvin)

 Zero-point correction=                           0.014417 (Hartree/Particle)
 Thermal correction to Energy=                    0.017268
 Thermal correction to Enthalpy=                  0.018212
 Thermal correction to Gibbs Free Energy=        -0.005833
 Sum of electronic and zero-point Energies=           -399.031501
 Sum of electronic and thermal Energies=              -399.028651
 Sum of electronic and thermal Enthalpies=            -399.027707
 Sum of electronic and thermal Free Energies=         -399.051752

                     E (Thermal)             CV                S
                      KCal/Mol        Cal/Mol-Kelvin    Cal/Mol-Kelvin
 Total                   10.836              6.178             50.607
 Electronic               0.000              0.000              1.377
 Translational            0.889              2.981             36.501
 Rotational               0.889              2.981             12.684
 Vibrational              9.058              0.216              0.044

 Optimization completed.
    -- Stationary point found.
 Normal termination of Gaussian 09 at Wed Aug  3 22:48:57 2016.
