 Gaussian 09, Revision E.01,
 Gaussian 09:  EM64L-G09RevE.01 30-Nov-2015

 ------------------------------
 #p b3lyp/6-311++G(3df,2p) freq
 ------------------------------

 ---------
 b3lyp opt
 ---------
 Symbolic Z-matrix:
 Charge =  0 Multiplicity = 1

                         Standard orientation:
 ---------------------------------------------------------------------
 Center     Atomic      Atomic             Coordinates (Angstroms)
 Number     Number       Type             X           Y           Z
 ---------------------------------------------------------------------
      1         16           0       -0.000000   -0.000000    0.103133
      2          1           0       -0.000000    0.968623   -0.825062
      3          1           0       -0.000000   -0.968623   -0.825062
 ---------------------------------------------------------------------

 SCF Done:  E(RB3LYP) =  -399.429019663     A.U. after    8 cycles

 The electronic state is 1-A1.
 Alpha  occ. eigenvalues --  -88.85656  -7.94377  -5.90702  -5.90405  -5.89822
 Alpha  occ. eigenvalues --   -0.74815  -0.45047  -0.37390  -0.26881
 Alpha virt. eigenvalues --   -0.01921   0.00179   0.03848   0.04949   0.05581
 Alpha virt. eigenvalues --    0.08657   0.10734   0.10982   0.18373   0.20674
 Alpha virt. eigenvalues --    0.21324   0.27807   0.30654   0.31171   0.32943

 Mulliken charges:
               1
     1  S   -0.261304
     2  H    0.130652
     3  H    0.130652
 Sum of Mulliken charges =  -0.00000

 Dipole moment (field-independent basis, Debye):
    X=             -0.0000    Y=             -0.0000    Z=             -0.9986  Tot=              0.9986
 Quadrupole moment (field-independent basis, Debye-Ang):
   XX=            -16.8601   YY=            -12.4116   ZZ=            -13.6614
   XY=              0.0000   XZ=              0.0000   YZ=             -0.0000

  Exact polarizability:  24.487  -0.000  22.998  -0.000   0.000  22.653
 Approx polarizability:  32.253   0.000  36.579   0.000   0.000  34.365

                      1                      2                      3
                     A1                     A1                     B2
 Frequencies --   1212.4949              2693.1427              2705.2956
 Red. masses --      1.0395                 1.0358                 1.0399
 Frc consts  --      0.9004                 4.4263                 4.4839
 IR Inten    --      0.6058                 0.0921                 0.0011

 - Thermochemistry -
 -------------------
 Temperature   298.150 Kelvin.  Pressure   1.00000 Atm.
 Atom     1 has atomic number 16 and mass  31.97207

 Molecular mass:    33.98772 amu.
 Principal axes and moments of inertia in atomic units:
                           1         2         3
     Eigenvalues --     5.83364   6.75339  12.58703
           X            0.00000   0.00000   1.00000
           Y            1.00000   0.00000   0.00000
           Z            0.00000   1.00000   0.00000
 This molecule is an asymmetric top.
 Rotational symmetry number  2.
 Rotational temperatures (Kelvin)     14.84731    12.82523     6.88120
 Rotational constants (GHZ):         309.36810   267.23473   143.38102
 Zero-point vibrational energy      39542.2 (Joules/Mol)
                                    9.45080 (Kcal/Mol)
 Vibrational temperatures:   1744.51  3874.83  3892.31
          (Kelvin)

 Zero-point correction=                           0.015061 (Hartree/Particle)
 Thermal correction to Energy=                    0.017909
 Thermal correction to Enthalpy=                  0.018854
 Thermal correction to Gibbs Free Energy=        -0.004491
 Sum of electronic and zero-point Energies=           -399.413959
 Sum of electronic and thermal Energies=              -399.411110
 Sum of electronic and thermal Enthalpies=            -399.410166
 Sum of electronic and thermal Free Energies=         -399.433511

                     E (Thermal)             CV                S
                      KCal/Mol        Cal/Mol-Kelvin    Cal/Mol-Kelvin
 Total                   11.238              6.160             49.133
 Electronic               0.000              0.000              0.000
 Translational            0.889              2.981             36.501
 Rotational               0.889              2.981             12.592
 Vibrational              9.461              0.198              0.039

 Optimization completed.
    -- Stationary point found.
 Normal termination of Gaussian 09 at Wed Aug  3 22:48:56 2016.
