 Gaussian 09, Revision E.01,
 Gaussian 09:  EM64L-G09RevE.01 30-Nov-2015

 ------------------------------
 #p b3lyp/6-311++G(3df,2p) freq
 ------------------------------

 ---------
 b3lyp opt
 ---------
 Symbolic Z-matrix:
 Charge =  2 Multiplicity = 3

                         Standard orientation:
 ---------------------------------------------------------------------
 Center     Atomic      Atomic             Coordinates (Angstroms)
 Number     Number       Type             X           Y           Z
 ---------------------------------------------------------------------
      1         16           0        0.000000    0.000000    0.068093
      2          1           0       -0.000000    1.333041   -0.544740
      3          1           0       -0.000000   -1.333041   -0.544740
 ---------------------------------------------------------------------

 SCF Done:  E(UB3LYP) =  -398.256248465     A.U. after   10 cycles

 The electronic state is 3-B1.
 Alpha  occ. eigenvalues --  -89.67692  -8.74909  -6.71713  -6.71687  -6.70404
 Alpha  occ. eigenvalues --   -1.46859  -1.14336  -1.04474  -1.00494
 Alpha virt. eigenvalues --   -0.68400  -0.57951  -0.42224  -0.41671  -0.39992
 Alpha virt. eigenvalues --   -0.39754  -0.36304  -0.31099  -0.30492  -0.21599
 Alpha virt. eigenvalues --   -0.20031  -0.18179  -0.16440  -0.09614  -0.09568

  Beta  occ. eigenvalues --  -89.66277  -8.73575  -6.69585  -6.69340  -6.68980
  Beta  occ. eigenvalues --   -1.38180  -1.11815
  Beta virt. eigenvalues --   -0.87443  -0.82367  -0.64694  -0.54131  -0.40001
  Beta virt. eigenvalues --   -0.38574  -0.35391  -0.33591  -0.33216  -0.29562
  Beta virt. eigenvalues --   -0.29111  -0.21297  -0.19893  -0.16584  -0.15327

 Mulliken charges and spin densities:
               1          2
     1  S    1.096370   1.912274
     2  H    0.451815   0.043863
     3  H    0.451815   0.043863
 Sum of Mulliken charges =   2.00000   2.00000

 Dipole moment (field-independent basis, Debye):
    X=             -0.0000    Y=              0.0000    Z=             -1.4099  Tot=              1.4099
 Quadrupole moment (field-independent basis, Debye-Ang):
   XX=             -9.2612   YY=             -1.0037   ZZ=             -7.4368
   XY=              0.0000   XZ=              0.0000   YZ=             -0.0000

  Exact polarizability:   9.634  -0.000  17.603   0.000  -0.000  10.729
 Approx polarizability:  13.370   0.000  26.360   0.000  -0.000  15.410

                      1                      2                      3
                     A1                     B2                     A1
 Frequencies --    811.2285              1742.4846              1841.1800
 Red. masses --      1.0554                 1.0585                 1.0204
 Frc consts  --      0.4092                 1.8936                 2.0381
 IR Inten    --     74.9774              1469.3558               216.4034

 - Thermochemistry -
 -------------------
 Temperature   298.150 Kelvin.  Pressure   1.00000 Atm.
 Atom     1 has atomic number 16 and mass  31.97207

 Molecular mass:    33.98772 amu.
 Principal axes and moments of inertia in atomic units:
                           1         2         3
     Eigenvalues --     2.54300  12.79087  15.33387
           X            0.00000   0.00000   1.00000
           Y            1.00000   0.00000  -0.00000
           Z           -0.00000   1.00000  -0.00000
 This molecule is an asymmetric top.
 Rotational symmetry number  2.
 Rotational temperatures (Kelvin)     34.05976     6.77153     5.64853
 Rotational constants (GHZ):         709.69114   141.09601   117.69640
 Zero-point vibrational energy      26287.3 (Joules/Mol)
                                    6.28282 (Kcal/Mol)
 Vibrational temperatures:   1167.18  2507.04  2649.04
          (Kelvin)

 Zero-point correction=                           0.010012 (Hartree/Particle)
 Thermal correction to Energy=                    0.012923
 Thermal correction to Enthalpy=                  0.013867
 Thermal correction to Gibbs Free Energy=        -0.010596
 Sum of electronic and zero-point Energies=           -398.246236
 Sum of electronic and thermal Energies=              -398.243325
 Sum of electronic and thermal Enthalpies=            -398.242381
 Sum of electronic and thermal Free Energies=         -398.266845

                     E (Thermal)             CV                S
                      KCal/Mol        Cal/Mol-Kelvin    Cal/Mol-Kelvin
 Total                    8.109              6.647             51.488
 Electronic               0.000              0.000              2.183
 Translational            0.889              2.981             36.501
 Rotational               0.889              2.981             12.598
 Vibrational              6.332              0.685              0.205

 Optimization completed.
    -- Stationary point found.
 Normal termination of Gaussian 09 at Wed Aug  3 22:48:58 2016.
