 Gaussian 09, Revision E.01,
 Gaussian 09:  EM64L-G09RevE.01 30-Nov-2015

 ------------------------------
 #p b3lyp/6-311++G(3df,2p) freq
 ------------------------------

 ---------
 b3lyp opt
 ---------
 Symbolic Z-matrix:
 Charge =  2 Multiplicity = 3

                         Standard orientation:
 ---------------------------------------------------------------------
 Center     Atomic      Atomic             Coordinates (Angstroms)
 Number     Number       Type             X           Y           Z
 ---------------------------------------------------------------------
      1         16           0        0.000000   -0.000000    0.179481
      2          1           0       -0.000000    0.486299   -1.435847
      3          1           0       -0.000000   -0.486299   -1.435847
 ---------------------------------------------------------------------

 SCF Done:  E(UB3LYP) =  -398.228177991     A.U. after   11 cycles

 The electronic state is 3-A2.
 Alpha  occ. eigenvalues --  -89.69753  -8.76348  -6.72897  -6.72849  -6.72460
 Alpha  occ. eigenvalues --   -1.46530  -1.14703  -1.01713  -1.00194
 Alpha virt. eigenvalues --   -0.75964  -0.59142  -0.42649  -0.41188  -0.38866
 Alpha virt. eigenvalues --   -0.38863  -0.32793  -0.31686  -0.30185  -0.24535
 Alpha virt. eigenvalues --   -0.22681  -0.19720  -0.19591  -0.09682  -0.08967

  Beta  occ. eigenvalues --  -89.68338  -8.75068  -6.71663  -6.70353  -6.70187
  Beta  occ. eigenvalues --   -1.37862  -1.11932
  Beta virt. eigenvalues --   -0.84758  -0.82291  -0.73280  -0.56653  -0.39785
  Beta virt. eigenvalues --   -0.39263  -0.32134  -0.32087  -0.31974  -0.29741
  Beta virt. eigenvalues --   -0.28709  -0.24082  -0.20303  -0.19446  -0.18536

 Mulliken charges and spin densities:
               1          2
     1  S    1.286878   1.986527
     2  H    0.356561   0.006736
     3  H    0.356561   0.006736
 Sum of Mulliken charges =   2.00000   2.00000

 Dipole moment (field-independent basis, Debye):
    X=             -0.0000    Y=              0.0000    Z=             -3.3885  Tot=              3.3885
 Quadrupole moment (field-independent basis, Debye-Ang):
   XX=             -9.4527   YY=             -7.9693   ZZ=             -0.4213
   XY=              0.0000   XZ=              0.0000   YZ=             -0.0000

  Exact polarizability:   9.995   0.000  11.521   0.000  -0.000  19.008
 Approx polarizability:  13.731   0.000  16.858   0.000   0.000  33.175

                      1                      2                      3
                     B2                     A1                     A1
 Frequencies --    825.6675              1106.8836              2176.7302
 Red. masses --      1.0129                 1.0676                 1.0093
 Frc consts  --      0.4069                 0.7707                 2.8175
 IR Inten    --    186.9190                29.7513               607.9264

 - Thermochemistry -
 -------------------
 Temperature   298.150 Kelvin.  Pressure   1.00000 Atm.
 Atom     1 has atomic number 16 and mass  31.97207

 Molecular mass:    33.98772 amu.
 Principal axes and moments of inertia in atomic units:
                           1         2         3
     Eigenvalues --     1.70223  17.66782  19.37006
           X            0.00000   0.00000   1.00000
           Y            0.00000   1.00000   0.00000
           Z            1.00000   0.00000   0.00000
 This molecule is an asymmetric top.
 Rotational symmetry number  2.
 Rotational temperatures (Kelvin)     50.88247     4.90235     4.47153
 Rotational constants (GHZ):        1060.21984   102.14847    93.17170
 Zero-point vibrational energy      24579.0 (Joules/Mol)
                                    5.87451 (Kcal/Mol)
 Vibrational temperatures:   1187.95  1592.56  3131.83
          (Kelvin)

 Zero-point correction=                           0.009362 (Hartree/Particle)
 Thermal correction to Energy=                    0.012290
 Thermal correction to Enthalpy=                  0.013234
 Thermal correction to Gibbs Free Energy=        -0.011323
 Sum of electronic and zero-point Energies=           -398.218816
 Sum of electronic and thermal Energies=              -398.215888
 Sum of electronic and thermal Enthalpies=            -398.214944
 Sum of electronic and thermal Free Energies=         -398.239501

                     E (Thermal)             CV                S
                      KCal/Mol        Cal/Mol-Kelvin    Cal/Mol-Kelvin
 Total                    7.712              6.851             51.685
 Electronic               0.000              0.000              2.183
 Translational            0.889              2.981             36.501
 Rotational               0.889              2.981             12.752
 Vibrational              5.935              0.890              0.249

 Optimization completed.
    -- Stationary point found.
 Normal termination of Gaussian 09 at Wed Aug  3 22:48:58 2016.
