 Gaussian 09, Revision E.01,
 Gaussian 09:  EM64L-G09RevE.01 30-Nov-2015

 ------------------------------
 #p b3lyp/6-311++G(3df,2p) freq
 ------------------------------

 ---------
 b3lyp opt
 ---------
 Symbolic Z-matrix:
 Charge =  2 Multiplicity = 1

                         Standard orientation:
 ---------------------------------------------------------------------
 Center     Atomic      Atomic             Coordinates (Angstroms)
 Number     Number       Type             X           Y           Z
 ---------------------------------------------------------------------
      1         16           0       -0.000000    0.000000    0.107922
      2          1           0       -0.000000    1.050474   -0.863378
      3          1           0       -0.000000   -1.050474   -0.863378
 ---------------------------------------------------------------------

 SCF Done:  E(RB3LYP) =  -398.258904421     A.U. after    8 cycles

 The electronic state is 1-A1.
 Alpha  occ. eigenvalues --  -89.71572  -8.78312  -6.75699  -6.73822  -6.73514
 Alpha  occ. eigenvalues --   -1.45586  -1.11213  -1.05109
 Alpha virt. eigenvalues --   -0.91500  -0.61782  -0.57509  -0.42279  -0.40970
 Alpha virt. eigenvalues --   -0.40262  -0.40190  -0.33864  -0.31145  -0.30734
 Alpha virt. eigenvalues --   -0.21965  -0.20040  -0.16575  -0.14150  -0.09904

 Mulliken charges:
               1
     1  S    1.237070
     2  H    0.381465
     3  H    0.381465
 Sum of Mulliken charges =   2.00000

 Dipole moment (field-independent basis, Debye):
    X=             -0.0000    Y=             -0.0000    Z=             -2.0089  Tot=              2.0089
 Quadrupole moment (field-independent basis, Debye-Ang):
   XX=             -7.3308   YY=             -5.1646   ZZ=             -6.9572
   XY=              0.0000   XZ=              0.0000   YZ=              0.0000

  Exact polarizability:   9.633  -0.000  14.395   0.000  -0.000  12.727
 Approx polarizability:  16.472   0.000  21.202   0.000   0.000  18.520

                      1                      2                      3
                     A1                     B2                     A1
 Frequencies --   1073.1418              2077.7922              2126.4661
 Red. masses --      1.0385                 1.0410                 1.0367
 Frc consts  --      0.7047                 2.6478                 2.7620
 IR Inten    --     20.4165               464.0057               283.0327

 - Thermochemistry -
 -------------------
 Temperature   298.150 Kelvin.  Pressure   1.00000 Atm.
 Atom     1 has atomic number 16 and mass  31.97207

 Molecular mass:    33.98772 amu.
 Principal axes and moments of inertia in atomic units:
                           1         2         3
     Eigenvalues --     6.38805   7.94298  14.33103
           X           -0.00000   0.00000   1.00000
           Y            1.00000  -0.00000   0.00000
           Z            0.00000   1.00000  -0.00000
 This molecule is an asymmetric top.
 Rotational symmetry number  2.
 Rotational temperatures (Kelvin)     13.55871    10.90445     6.04380
 Rotational constants (GHZ):         282.51811   227.21224   125.93241
 Zero-point vibrational energy      31565.9 (Joules/Mol)
                                    7.54442 (Kcal/Mol)
 Vibrational temperatures:   1544.01  2989.48  3059.51
          (Kelvin)

 Zero-point correction=                           0.012023 (Hartree/Particle)
 Thermal correction to Energy=                    0.014884
 Thermal correction to Enthalpy=                  0.015828
 Thermal correction to Gibbs Free Energy=        -0.007712
 Sum of electronic and zero-point Energies=           -398.246882
 Sum of electronic and thermal Energies=              -398.244021
 Sum of electronic and thermal Enthalpies=            -398.243076
 Sum of electronic and thermal Free Energies=         -398.266617

                     E (Thermal)             CV                S
                      KCal/Mol        Cal/Mol-Kelvin    Cal/Mol-Kelvin
 Total                    9.340              6.282             49.545
 Electronic               0.000              0.000              0.000
 Translational            0.889              2.981             36.501
 Rotational               0.889              2.981             12.972
 Vibrational              7.562              0.320              0.071

 Optimization completed.
    -- Stationary point found.
 Normal termination of Gaussian 09 at Wed Aug  3 22:48:56 2016.
