 Gaussian 09, Revision E.01,
 Gaussian 09:  EM64L-G09RevE.01 30-Nov-2015

 ------------------------------
 #p b3lyp/6-311++G(3df,2p) freq
 ------------------------------

 ---------
 b3lyp opt
 ---------
 Symbolic Z-matrix:
 Charge =  0 Multiplicity = 1

                         Standard orientation:
 ---------------------------------------------------------------------
 Center     Atomic      Atomic             Coordinates (Angstroms)
 Number     Number       Type             X           Y           Z
 ---------------------------------------------------------------------
      1         16           0        0.051169    1.076657    0.000000
      2         16           0        0.051169   -0.909124   -0.000000
      3          1           0       -0.818700   -1.340263    0.961063
      4          1           0       -0.818700   -1.340263   -0.961063
 ---------------------------------------------------------------------

 SCF Done:  E(RB3LYP) =  -797.610926385     A.U. after   11 cycles

 The electronic state is 1-A'.
 Alpha  occ. eigenvalues --  -88.95865 -88.82053  -8.03863  -7.90594  -6.00043
 Alpha  occ. eigenvalues --   -5.99991  -5.99522  -5.87265  -5.86232  -5.86088
 Alpha  occ. eigenvalues --   -0.85240  -0.65457  -0.50035  -0.44541  -0.37607
 Alpha  occ. eigenvalues --   -0.24573  -0.22778
 Alpha virt. eigenvalues --   -0.05166  -0.03652  -0.02995   0.03303   0.03584
 Alpha virt. eigenvalues --    0.04403   0.05372   0.07740   0.08147   0.08410
 Alpha virt. eigenvalues --    0.08882   0.11496   0.13261   0.14607   0.16973

 Mulliken charges:
               1
     1  S   -0.384351
     2  S    0.125172
     3  H    0.129589
     4  H    0.129589
 Sum of Mulliken charges =  -0.00000

 Dipole moment (field-independent basis, Debye):
    X=             -1.1491    Y=             -3.5451    Z=              0.0000  Tot=              3.7267
 Quadrupole moment (field-independent basis, Debye-Ang):
   XX=            -28.2851   YY=            -25.9259   ZZ=            -26.7282
   XY=              1.8983   XZ=             -0.0000   YZ=             -0.0000

  Exact polarizability:  37.967   4.265  61.558  -0.000  -0.000  38.078
 Approx polarizability:  58.399   8.573 112.513  -0.000   0.000  61.081

                      1                      2                      3
                     A'                     A"                     A'
 Frequencies --    545.5635               819.8759               857.1415
 Red. masses --     29.2788                 1.0520                 1.1023
 Frc consts  --      5.1345                 0.4167                 0.4771
 IR Inten    --     41.5851                 3.7313                17.1271

                      4                      5                      6
                     A'                     A"                     A'
 Frequencies --   1222.8588              2440.4002              2454.2972
 Red. masses --      1.0339                 1.0419                 1.0345
 Frc consts  --      0.9109                 3.6558                 3.6714
 IR Inten    --     35.9203                 6.5417                96.3910

 - Thermochemistry -
 -------------------
 Temperature   298.150 Kelvin.  Pressure   1.00000 Atm.
 Atom     1 has atomic number 16 and mass  31.97207

 Molecular mass:    65.95979 amu.
 Principal axes and moments of inertia in atomic units:
                           1         2         3
     Eigenvalues --    11.60960 244.54407 246.23125
           X            0.03687  -0.00000   0.99932
           Y            0.99932  -0.00000  -0.03687
           Z            0.00000   1.00000   0.00000
 This molecule is an asymmetric top.
 Rotational symmetry number  1.
 Rotational temperatures (Kelvin)      7.46053     0.35418     0.35176
 Rotational constants (GHZ):         155.45249     7.38002     7.32946
 Zero-point vibrational energy      49885.1 (Joules/Mol)
                                   11.92282 (Kcal/Mol)
 Warning -- explicit consideration of   1 degrees of freedom as
           vibrations may cause significant error
 Vibrational temperatures:    784.94  1179.62  1233.23  1759.42  3511.19
          (Kelvin)           3531.18

 Zero-point correction=                           0.019000 (Hartree/Particle)
 Thermal correction to Energy=                    0.022177
 Thermal correction to Enthalpy=                  0.023121
 Thermal correction to Gibbs Free Energy=        -0.005672
 Sum of electronic and zero-point Energies=           -797.591926
 Sum of electronic and thermal Energies=              -797.588749
 Sum of electronic and thermal Enthalpies=            -797.587805
 Sum of electronic and thermal Free Energies=         -797.616598

                     E (Thermal)             CV                S
                      KCal/Mol        Cal/Mol-Kelvin    Cal/Mol-Kelvin
 Total                   13.916              8.485             60.601
 Electronic               0.000              0.000              0.000
 Translational            0.889              2.981             38.478
 Rotational               0.889              2.981             21.174
 Vibrational             12.139              2.524              0.949
 Vibration     1          0.901              1.149              0.553

 Optimization completed.
    -- Stationary point found.
 Normal termination of Gaussian 09 at Wed Aug  3 22:48:11 2016.
