 Gaussian 09, Revision E.01,
 Gaussian 09:  EM64L-G09RevE.01 30-Nov-2015

 ------------------------------
 #p b3lyp/6-311++G(3df,2p) freq
 ------------------------------

 ---------
 b3lyp opt
 ---------
 Symbolic Z-matrix:
 Charge =  1 Multiplicity = 2

                         Standard orientation:
 ---------------------------------------------------------------------
 Center     Atomic      Atomic             Coordinates (Angstroms)
 Number     Number       Type             X           Y           Z
 ---------------------------------------------------------------------
      1         16           0       -0.000000    1.004817    0.000000
      2         16           0        0.000000   -1.004817    0.000000
      3          1           0       -1.351385   -1.098240   -0.000000
      4          1           0        1.351385    1.098240   -0.000000
 ---------------------------------------------------------------------

 SCF Done:  E(UB3LYP) =  -797.324506752     A.U. after   10 cycles

 The electronic state is 2-BG.
 Alpha  occ. eigenvalues --  -89.17979 -89.17979  -8.26187  -8.26182  -6.22394
 Alpha  occ. eigenvalues --   -6.22361  -6.22326  -6.22324  -6.21973  -6.21969
 Alpha  occ. eigenvalues --   -1.10894  -0.95503  -0.71183  -0.70364  -0.62780
 Alpha  occ. eigenvalues --   -0.61245  -0.51485
 Alpha virt. eigenvalues --   -0.29727  -0.24933  -0.21457  -0.15081  -0.11114
 Alpha virt. eigenvalues --   -0.11047  -0.10937  -0.10173  -0.09698  -0.07263
 Alpha virt. eigenvalues --   -0.07153  -0.06097  -0.06081  -0.04069  -0.01568

  Beta  occ. eigenvalues --  -89.17616 -89.17616  -8.25859  -8.25853  -6.22195
  Beta  occ. eigenvalues --   -6.22162  -6.21778  -6.21774  -6.21195  -6.21192
  Beta  occ. eigenvalues --   -1.09376  -0.93185  -0.70408  -0.69874  -0.60210
  Beta  occ. eigenvalues --   -0.58064
  Beta virt. eigenvalues --   -0.41078  -0.28912  -0.24528  -0.20919  -0.14570
  Beta virt. eigenvalues --   -0.10953  -0.10713  -0.10651  -0.09955  -0.08420
  Beta virt. eigenvalues --   -0.07177  -0.06695  -0.05614  -0.04024  -0.04006

 Mulliken charges and spin densities:
               1          2
     1  S    0.284822   0.507167
     2  S    0.284822   0.507167
     3  H    0.215178  -0.007167
     4  H    0.215178  -0.007167
 Sum of Mulliken charges =   1.00000   1.00000

 Dipole moment (field-independent basis, Debye):
    X=             -0.0000    Y=             -0.0000    Z=             -0.0000  Tot=              0.0000
 Quadrupole moment (field-independent basis, Debye-Ang):
   XX=            -18.9179   YY=            -15.9483   ZZ=            -24.6775
   XY=              3.5323   XZ=             -0.0000   YZ=              0.0000

  Exact polarizability:  31.113   4.030  51.513  -0.000  -0.000  25.578
 Approx polarizability:  52.338   5.579 102.981   0.000   0.000  39.516

                      1                      2                      3
                     AU                     AG                     BU
 Frequencies --    508.1146               583.6334               788.3381
 Red. masses --      1.0386                21.7515                 1.0386
 Frc consts  --      0.1580                 4.3654                 0.3803
 IR Inten    --     39.8582                 0.0000                22.4624

                      4                      5                      6
                     AG                     AG                     BU
 Frequencies --   1051.3082              2610.5386              2615.0764
 Red. masses --      1.0812                 1.0398                 1.0386
 Frc consts  --      0.7041                 4.1749                 4.1846
 IR Inten    --      0.0000                 0.0000               118.6847

 - Thermochemistry -
 -------------------
 Temperature   298.150 Kelvin.  Pressure   1.00000 Atm.
 Atom     1 has atomic number 16 and mass  31.97207

 Molecular mass:    65.95979 amu.
 Principal axes and moments of inertia in atomic units:
                           1         2         3
     Eigenvalues --    12.64167 239.73938 252.38105
           X            0.04709   0.99889   0.00000
           Y            0.99889  -0.04709   0.00000
           Z            0.00000   0.00000   1.00000
 This molecule is an asymmetric top.
 Rotational symmetry number  2.
 Rotational temperatures (Kelvin)      6.85145     0.36128     0.34319
 Rotational constants (GHZ):         142.76130     7.52793     7.15086
 Zero-point vibrational energy      48789.7 (Joules/Mol)
                                   11.66103 (Kcal/Mol)
 Warning -- explicit consideration of   2 degrees of freedom as
           vibrations may cause significant error
 Vibrational temperatures:    731.06   839.72  1134.24  1512.60  3755.98
          (Kelvin)           3762.51

 Zero-point correction=                           0.018583 (Hartree/Particle)
 Thermal correction to Energy=                    0.021915
 Thermal correction to Enthalpy=                  0.022859
 Thermal correction to Gibbs Free Energy=        -0.006196
 Sum of electronic and zero-point Energies=           -797.305924
 Sum of electronic and thermal Energies=              -797.302592
 Sum of electronic and thermal Enthalpies=            -797.301648
 Sum of electronic and thermal Free Energies=         -797.330703

                     E (Thermal)             CV                S
                      KCal/Mol        Cal/Mol-Kelvin    Cal/Mol-Kelvin
 Total                   13.752              9.257             61.151
 Electronic               0.000              0.000              1.377
 Translational            0.889              2.981             38.478
 Rotational               0.889              2.981             19.886
 Vibrational             11.974              3.295              1.410
 Vibration     1          0.863              1.232              0.638
 Vibration     2          0.941              1.067              0.479

 Optimization completed.
    -- Stationary point found.
 Normal termination of Gaussian 09 at Wed Aug  3 22:48:41 2016.
