 Gaussian 09, Revision E.01,
 Gaussian 09:  EM64L-G09RevE.01 30-Nov-2015

 ------------------------------
 #p b3lyp/6-311++G(3df,2p) freq
 ------------------------------

 ---------
 b3lyp opt
 ---------
 Symbolic Z-matrix:
 Charge =  0 Multiplicity = 3

                         Standard orientation:
 ---------------------------------------------------------------------
 Center     Atomic      Atomic             Coordinates (Angstroms)
 Number     Number       Type             X           Y           Z
 ---------------------------------------------------------------------
      1         16           0       -0.000000    1.294016   -0.078995
      2         16           0       -0.000000   -1.294016   -0.078995
      3          1           0       -0.000000    1.285408    1.263925
      4          1           0        0.000000   -1.285408    1.263925
 ---------------------------------------------------------------------

 SCF Done:  E(UB3LYP) =  -797.577521196     A.U. after   11 cycles

 The electronic state is 3-B1.
 Alpha  occ. eigenvalues --  -88.88422 -88.88421  -7.96780  -7.96777  -5.92987
 Alpha  occ. eigenvalues --   -5.92986  -5.92959  -5.92958  -5.92723  -5.92722
 Alpha  occ. eigenvalues --   -0.76940  -0.72290  -0.44036  -0.40180  -0.36111
 Alpha  occ. eigenvalues --   -0.32550  -0.28459  -0.21812
 Alpha virt. eigenvalues --   -0.03519   0.01148   0.03054   0.03871   0.04814
 Alpha virt. eigenvalues --    0.05987   0.06760   0.06984   0.07444   0.10161
 Alpha virt. eigenvalues --    0.12328   0.13232   0.14459   0.16395   0.17126

  Beta  occ. eigenvalues --  -88.87718 -88.87718  -7.96131  -7.96129  -5.92333
  Beta  occ. eigenvalues --   -5.92332  -5.91732  -5.91732  -5.91661  -5.91661
  Beta  occ. eigenvalues --   -0.73144  -0.68077  -0.42660  -0.38705  -0.31124
  Beta  occ. eigenvalues --   -0.26683
  Beta virt. eigenvalues --   -0.18317  -0.11608  -0.02984   0.01767   0.03551
  Beta virt. eigenvalues --    0.03964   0.05075   0.06390   0.07443   0.07474
  Beta virt. eigenvalues --    0.07824   0.10438   0.12781   0.13776   0.15564

 Mulliken charges and spin densities:
               1          2
     1  S   -0.122537   1.011367
     2  S   -0.122537   1.011367
     3  H    0.122537  -0.011367
     4  H    0.122537  -0.011367
 Sum of Mulliken charges =  -0.00000   2.00000

 Dipole moment (field-independent basis, Debye):
    X=              0.0000    Y=              0.0000    Z=              1.3557  Tot=              1.3557
 Quadrupole moment (field-independent basis, Debye-Ang):
   XX=            -29.0884   YY=            -29.8723   ZZ=            -24.2013
   XY=              0.0000   XZ=              0.0000   YZ=              0.0000

  Exact polarizability:  38.362  -0.000 112.617   0.000  -0.000  39.951
 Approx polarizability:  58.197   0.000 250.894   0.000  -0.000  68.019

                      1                      2                      3
                     A1                     A2                     B2
 Frequencies --    272.8442               349.8147               432.3814
 Red. masses --     16.5992                 1.0382                 1.0684
 Frc consts  --      0.7281                 0.0748                 0.1177
 IR Inten    --      0.0444                 0.0000                 9.3858

                      4                      5                      6
                     A1                     B2                     A1
 Frequencies --    464.8193              2686.8756              2695.9111
 Red. masses --      1.0381                 1.0393                 1.0386
 Frc consts  --      0.1322                 4.4207                 4.4472
 IR Inten    --      5.4061                 6.6164                 0.0521

 - Thermochemistry -
 -------------------
 Temperature   298.150 Kelvin.  Pressure   1.00000 Atm.
 Atom     1 has atomic number 16 and mass  31.97207

 Molecular mass:    65.95979 amu.
 Principal axes and moments of inertia in atomic units:
                           1         2         3
     Eigenvalues --    12.58447 394.25790 406.84238
           X            0.00000   0.00000   1.00000
           Y            1.00000   0.00000  -0.00000
           Z           -0.00000   1.00000  -0.00000
 This molecule is an asymmetric top.
 Rotational symmetry number  2.
 Rotational temperatures (Kelvin)      6.88259     0.21969     0.21289
 Rotational constants (GHZ):         143.41017     4.57757     4.43597
 Zero-point vibrational energy      41287.0 (Joules/Mol)
                                    9.86783 (Kcal/Mol)
 Warning -- explicit consideration of   4 degrees of freedom as
           vibrations may cause significant error
 Vibrational temperatures:    392.56   503.30   622.10   668.77  3865.81
          (Kelvin)           3878.81

 Zero-point correction=                           0.015725 (Hartree/Particle)
 Thermal correction to Energy=                    0.019905
 Thermal correction to Enthalpy=                  0.020850
 Thermal correction to Gibbs Free Energy=        -0.010443
 Sum of electronic and zero-point Energies=           -797.561796
 Sum of electronic and thermal Energies=              -797.557616
 Sum of electronic and thermal Enthalpies=            -797.556672
 Sum of electronic and thermal Free Energies=         -797.587964

                     E (Thermal)             CV                S
                      KCal/Mol        Cal/Mol-Kelvin    Cal/Mol-Kelvin
 Total                   12.491             11.990             65.860
 Electronic               0.000              0.000              2.183
 Translational            0.889              2.981             38.478
 Rotational               0.889              2.981             20.851
 Vibrational             10.713              6.028              4.348
 Vibration     1          0.676              1.723              1.578
 Vibration     2          0.727              1.576              1.167
 Vibration     3          0.793              1.400              0.851
 Vibration     4          0.822              1.328              0.752

 Optimization completed.
    -- Stationary point found.
 Normal termination of Gaussian 09 at Wed Aug  3 22:48:12 2016.
