 Gaussian 09, Revision E.01,
 Gaussian 09:  EM64L-G09RevE.01 30-Nov-2015

 ------------------------------
 #p b3lyp/6-311++G(3df,2p) freq
 ------------------------------

 ---------
 b3lyp opt
 ---------
 Symbolic Z-matrix:
 Charge =  2 Multiplicity = 1

                         Standard orientation:
 ---------------------------------------------------------------------
 Center     Atomic      Atomic             Coordinates (Angstroms)
 Number     Number       Type             X           Y           Z
 ---------------------------------------------------------------------
      1         16           0        0.000000    0.967214   -0.000000
      2         16           0       -0.000000   -0.967214    0.000000
      3          1           0       -1.380834   -1.095907   -0.000000
      4          1           0        1.380834    1.095907   -0.000000
 ---------------------------------------------------------------------

 SCF Done:  E(RB3LYP) =  -796.707076704     A.U. after    9 cycles

 The electronic state is 1-AG.
 Alpha  occ. eigenvalues --  -89.51295 -89.51295  -8.58978  -8.58967  -6.55244
 Alpha  occ. eigenvalues --   -6.55239  -6.55073  -6.55018  -6.54568  -6.54565
 Alpha  occ. eigenvalues --   -1.41707  -1.22722  -0.99378  -0.99227  -0.90448
 Alpha  occ. eigenvalues --   -0.88536
 Alpha virt. eigenvalues --   -0.72029  -0.55123  -0.50139  -0.47942  -0.37564
 Alpha virt. eigenvalues --   -0.35437  -0.33457  -0.33299  -0.29813  -0.28716
 Alpha virt. eigenvalues --   -0.26999  -0.26555  -0.23916  -0.22552  -0.21820

 Mulliken charges:
               1
     1  S    0.693257
     2  S    0.693257
     3  H    0.306743
     4  H    0.306743
 Sum of Mulliken charges =   2.00000

 Dipole moment (field-independent basis, Debye):
    X=              0.0000    Y=              0.0000    Z=             -0.0000  Tot=              0.0000
 Quadrupole moment (field-independent basis, Debye-Ang):
   XX=            -14.7759   YY=             -7.1066   ZZ=            -19.9915
   XY=              4.7435   XZ=             -0.0000   YZ=              0.0000

  Exact polarizability:  26.631   4.363  41.939   0.000   0.000  19.753
 Approx polarizability:  44.086   7.028 110.405  -0.000  -0.000  33.043

                      1                      2                      3
                     AG                     AU                     BU
 Frequencies --    650.1793               802.0767               807.0848
 Red. masses --     21.6511                 1.0386                 1.0386
 Frc consts  --      5.3926                 0.3937                 0.3986
 IR Inten    --      0.0000                56.5716                55.9394

                      4                      5                      6
                     AG                     BU                     AG
 Frequencies --   1057.8761              2384.9876              2393.5302
 Red. masses --      1.0884                 1.0386                 1.0420
 Frc consts  --      0.7176                 3.4806                 3.5172
 IR Inten    --      0.0000               463.8206                 0.0000

 - Thermochemistry -
 -------------------
 Temperature   298.150 Kelvin.  Pressure   1.00000 Atm.
 Atom     1 has atomic number 16 and mass  31.97207

 Molecular mass:    65.95979 amu.
 Principal axes and moments of inertia in atomic units:
                           1         2         3
     Eigenvalues --    13.15708 222.83304 235.99012
           X            0.05202   0.99865   0.00000
           Y            0.99865  -0.05202   0.00000
           Z            0.00000   0.00000   1.00000
 This molecule is an asymmetric top.
 Rotational symmetry number  2.
 Rotational temperatures (Kelvin)      6.58306     0.38869     0.36702
 Rotational constants (GHZ):         137.16882     8.09907     7.64753
 Zero-point vibrational energy      48423.2 (Joules/Mol)
                                   11.57343 (Kcal/Mol)
 Vibrational temperatures:    935.46  1154.01  1161.21  1522.05  3431.46
          (Kelvin)           3443.75

 Zero-point correction=                           0.018443 (Hartree/Particle)
 Thermal correction to Energy=                    0.021594
 Thermal correction to Enthalpy=                  0.022538
 Thermal correction to Gibbs Free Energy=        -0.005550
 Sum of electronic and zero-point Energies=           -796.688633
 Sum of electronic and thermal Energies=              -796.685483
 Sum of electronic and thermal Enthalpies=            -796.684538
 Sum of electronic and thermal Free Energies=         -796.712627

                     E (Thermal)             CV                S
                      KCal/Mol        Cal/Mol-Kelvin    Cal/Mol-Kelvin
 Total                   13.551              8.499             59.117
 Electronic               0.000              0.000              0.000
 Translational            0.889              2.981             38.478
 Rotational               0.889              2.981             19.787
 Vibrational             11.773              2.537              0.853

 Optimization completed.
    -- Stationary point found.
 Normal termination of Gaussian 09 at Wed Aug  3 22:48:36 2016.
