 Gaussian 09, Revision E.01,
 Gaussian 09:  EM64L-G09RevE.01 30-Nov-2015

 ------------------------------
 #p b3lyp/6-311++G(3df,2p) freq
 ------------------------------

 ---------
 b3lyp opt
 ---------
 Symbolic Z-matrix:
 Charge =  2 Multiplicity = 3

                         Standard orientation:
 ---------------------------------------------------------------------
 Center     Atomic      Atomic             Coordinates (Angstroms)
 Number     Number       Type             X           Y           Z
 ---------------------------------------------------------------------
      1         16           0        0.000000    1.072624   -0.056044
      2         16           0       -0.000000   -1.072624   -0.056044
      3          1           0        1.004860   -1.194514    0.896704
      4          1           0       -1.004860    1.194514    0.896704
 ---------------------------------------------------------------------

 SCF Done:  E(UB3LYP) =  -796.672087819     A.U. after   12 cycles

 The electronic state is 3-B.
 Alpha  occ. eigenvalues --  -89.50145 -89.50145  -8.57759  -8.57758  -6.54546
 Alpha  occ. eigenvalues --   -6.54546  -6.53816  -6.53801  -6.53354  -6.53353
 Alpha  occ. eigenvalues --   -1.38040  -1.25216  -0.99344  -0.96299  -0.91766
 Alpha  occ. eigenvalues --   -0.85654  -0.85403
 Alpha virt. eigenvalues --   -0.60869  -0.48839  -0.48488  -0.36103  -0.34657
 Alpha virt. eigenvalues --   -0.34518  -0.31585  -0.30486  -0.29788  -0.27351
 Alpha virt. eigenvalues --   -0.27061  -0.24896  -0.23156  -0.22757  -0.19972

  Beta  occ. eigenvalues --  -89.49467 -89.49467  -8.57133  -8.57132  -6.53456
  Beta  occ. eigenvalues --   -6.53441  -6.52914  -6.52914  -6.52473  -6.52473
  Beta  occ. eigenvalues --   -1.34070  -1.20580  -0.97498  -0.93491  -0.89155
  Beta virt. eigenvalues --   -0.71365  -0.70978  -0.58857  -0.47375  -0.46523
  Beta virt. eigenvalues --   -0.34048  -0.32536  -0.31838  -0.29972  -0.29197
  Beta virt. eigenvalues --   -0.28549  -0.26736  -0.26059  -0.22439  -0.22189

 Mulliken charges and spin densities:
               1          2
     1  S    0.700368   0.975883
     2  S    0.700368   0.975883
     3  H    0.299632   0.024117
     4  H    0.299632   0.024117
 Sum of Mulliken charges =   2.00000   2.00000

 Dipole moment (field-independent basis, Debye):
    X=              0.0000    Y=              0.0000    Z=              1.7348  Tot=              1.7348
 Quadrupole moment (field-independent basis, Debye-Ang):
   XX=            -17.3559   YY=             -5.2244   ZZ=            -17.9523
   XY=             -3.5086   XZ=             -0.0000   YZ=              0.0000

  Exact polarizability:  24.247  -3.160  43.648  -0.000   0.000  23.485
 Approx polarizability:  38.801  -4.130  84.525   0.000  -0.000  37.768

                      1                      2                      3
                      A                      A                      B
 Frequencies --    391.5107               464.2646               755.2028
 Red. masses --     22.6287                 1.0430                 1.0649
 Frc consts  --      2.0436                 0.1325                 0.3578
 IR Inten    --      1.2478                35.9852                48.4657

                      4                      5                      6
                      A                      B                      A
 Frequencies --    771.3920              2352.8739              2369.6220
 Red. masses --      1.0492                 1.0391                 1.0390
 Frc consts  --      0.3678                 3.3894                 3.4375
 IR Inten    --      8.2417               318.1129               155.1640

 - Thermochemistry -
 -------------------
 Temperature   298.150 Kelvin.  Pressure   1.00000 Atm.
 Atom     1 has atomic number 16 and mass  31.97207

 Molecular mass:    65.95979 amu.
 Principal axes and moments of inertia in atomic units:
                           1         2         3
     Eigenvalues --    13.32170 279.60578 280.25913
           X           -0.03246   0.99947   0.00000
           Y            0.99947   0.03246   0.00000
           Z           -0.00000  -0.00000   1.00000
 This molecule is an asymmetric top.
 Rotational symmetry number  2.
 Rotational temperatures (Kelvin)      6.50171     0.30977     0.30905
 Rotational constants (GHZ):         135.47376     6.45459     6.43954
 Zero-point vibrational energy      42496.5 (Joules/Mol)
                                   10.15692 (Kcal/Mol)
 Warning -- explicit consideration of   2 degrees of freedom as
           vibrations may cause significant error
 Vibrational temperatures:    563.30   667.97  1086.57  1109.86  3385.26
          (Kelvin)           3409.35

 Zero-point correction=                           0.016186 (Hartree/Particle)
 Thermal correction to Energy=                    0.019768
 Thermal correction to Enthalpy=                  0.020712
 Thermal correction to Gibbs Free Energy=        -0.009261
 Sum of electronic and zero-point Energies=           -796.655902
 Sum of electronic and thermal Energies=              -796.652320
 Sum of electronic and thermal Enthalpies=            -796.651376
 Sum of electronic and thermal Free Energies=         -796.681349

                     E (Thermal)             CV                S
                      KCal/Mol        Cal/Mol-Kelvin    Cal/Mol-Kelvin
 Total                   12.405             10.212             63.084
 Electronic               0.000              0.000              2.183
 Translational            0.889              2.981             38.478
 Rotational               0.889              2.981             20.195
 Vibrational             10.627              4.250              2.228
 Vibration     1          0.759              1.488              0.994
 Vibration     2          0.822              1.329              0.754

 Optimization completed.
    -- Stationary point found.
 Normal termination of Gaussian 09 at Wed Aug  3 22:48:45 2016.
