 Gaussian 09, Revision E.01,
 Gaussian 09:  EM64L-G09RevE.01 30-Nov-2015

 ------------------------------
 #p b3lyp/6-311++G(3df,2p) freq
 ------------------------------

 ---------
 b3lyp opt
 ---------
 Symbolic Z-matrix:
 Charge =  1 Multiplicity = 2

                         Standard orientation:
 ---------------------------------------------------------------------
 Center     Atomic      Atomic             Coordinates (Angstroms)
 Number     Number       Type             X           Y           Z
 ---------------------------------------------------------------------
      1         16           0        0.000000    1.009359   -0.078740
      2         16           0       -0.000000   -1.009359   -0.078740
      3          1           0        0.000000   -1.206426    1.259841
      4          1           0        0.000000    1.206426    1.259841
 ---------------------------------------------------------------------

 SCF Done:  E(UB3LYP) =  -797.319783622     A.U. after   11 cycles

 The electronic state is 2-A2.
 Alpha  occ. eigenvalues --  -89.18005 -89.18005  -8.26211  -8.26207  -6.22443
 Alpha  occ. eigenvalues --   -6.22411  -6.22347  -6.22345  -6.21974  -6.21968
 Alpha  occ. eigenvalues --   -1.10658  -0.95540  -0.75083  -0.64471  -0.63318
 Alpha  occ. eigenvalues --   -0.62661  -0.51591
 Alpha virt. eigenvalues --   -0.29857  -0.27342  -0.17471  -0.16080  -0.12529
 Alpha virt. eigenvalues --   -0.11303  -0.10152  -0.09339  -0.09220  -0.09029
 Alpha virt. eigenvalues --   -0.07027  -0.06173  -0.06101  -0.03984  -0.01481

  Beta  occ. eigenvalues --  -89.17643 -89.17643  -8.25883  -8.25878  -6.22243
  Beta  occ. eigenvalues --   -6.22210  -6.21781  -6.21775  -6.21217  -6.21214
  Beta  occ. eigenvalues --   -1.09123  -0.93167  -0.74708  -0.63461  -0.62476
  Beta  occ. eigenvalues --   -0.57926
  Beta virt. eigenvalues --   -0.41199  -0.28954  -0.26940  -0.16885  -0.15668
  Beta virt. eigenvalues --   -0.12510  -0.10847  -0.09890  -0.09090  -0.08486
  Beta virt. eigenvalues --   -0.08060  -0.06949  -0.05673  -0.04039  -0.03911

 Mulliken charges and spin densities:
               1          2
     1  S    0.286777   0.507474
     2  S    0.286777   0.507474
     3  H    0.213223  -0.007474
     4  H    0.213223  -0.007474
 Sum of Mulliken charges =   1.00000   1.00000

 Dipole moment (field-independent basis, Debye):
    X=              0.0000    Y=              0.0000    Z=              1.9636  Tot=              1.9636
 Quadrupole moment (field-independent basis, Debye-Ang):
   XX=            -24.6881   YY=            -15.3958   ZZ=            -19.5034
   XY=              0.0000   XZ=             -0.0000   YZ=              0.0000

  Exact polarizability:  25.778   0.000  52.310   0.000   0.000  30.431
 Approx polarizability:  40.024   0.000 103.191   0.000  -0.000  51.541

                      1                      2                      3
                     A2                     A1                     A1
 Frequencies --    385.9836               573.1104               842.7279
 Red. masses --      1.0517                30.2203                 1.0095
 Frc consts  --      0.0923                 5.8482                 0.4224
 IR Inten    --      0.0000                 0.8725                10.7265

                      4                      5                      6
                     B2                     B2                     A1
 Frequencies --    936.9207              2614.8730              2635.8588
 Red. masses --      1.1006                 1.0400                 1.0388
 Frc consts  --      0.5692                 4.1898                 4.2522
 IR Inten    --      3.9312                34.0090                69.1039

 - Thermochemistry -
 -------------------
 Temperature   298.150 Kelvin.  Pressure   1.00000 Atm.
 Atom     1 has atomic number 16 and mass  31.97207

 Molecular mass:    65.95979 amu.
 Principal axes and moments of inertia in atomic units:
                           1         2         3
     Eigenvalues --    12.50327 243.11935 255.62262
           X            0.00000   0.00000   1.00000
           Y            1.00000   0.00000  -0.00000
           Z           -0.00000   1.00000  -0.00000
 This molecule is an asymmetric top.
 Rotational symmetry number  2.
 Rotational temperatures (Kelvin)      6.92729     0.35626     0.33883
 Rotational constants (GHZ):         144.34154     7.42327     7.06018
 Zero-point vibrational energy      47787.7 (Joules/Mol)
                                   11.42153 (Kcal/Mol)
 Warning -- explicit consideration of   2 degrees of freedom as
           vibrations may cause significant error
 Vibrational temperatures:    555.34   824.58  1212.50  1348.02  3762.21
          (Kelvin)           3792.41

 Zero-point correction=                           0.018201 (Hartree/Particle)
 Thermal correction to Energy=                    0.021646
 Thermal correction to Enthalpy=                  0.022591
 Thermal correction to Gibbs Free Energy=        -0.006662
 Sum of electronic and zero-point Energies=           -797.301582
 Sum of electronic and thermal Energies=              -797.298137
 Sum of electronic and thermal Enthalpies=            -797.297193
 Sum of electronic and thermal Free Energies=         -797.326445

                     E (Thermal)             CV                S
                      KCal/Mol        Cal/Mol-Kelvin    Cal/Mol-Kelvin
 Total                   13.583              9.588             61.567
 Electronic               0.000              0.000              1.377
 Translational            0.889              2.981             38.478
 Rotational               0.889              2.981             19.902
 Vibrational             11.806              3.626              1.810
 Vibration     1          0.755              1.500              1.016
 Vibration     2          0.929              1.089              0.498

 Optimization completed.
    -- Stationary point found.
 Normal termination of Gaussian 09 at Wed Aug  3 22:48:42 2016.
