 Gaussian 09, Revision E.01,
 Gaussian 09:  EM64L-G09RevE.01 30-Nov-2015

 ------------------------------
 #p b3lyp/6-311++G(3df,2p) freq
 ------------------------------

 ---------
 b3lyp opt
 ---------
 Symbolic Z-matrix:
 Charge =  0 Multiplicity = 3

                         Standard orientation:
 ---------------------------------------------------------------------
 Center     Atomic      Atomic             Coordinates (Angstroms)
 Number     Number       Type             X           Y           Z
 ---------------------------------------------------------------------
      1         16           0        0.000000    1.283456   -0.000000
      2         16           0       -0.000000   -1.283456   -0.000000
      3          1           0       -1.339531   -1.195941    0.000000
      4          1           0        1.339531    1.195941   -0.000000
 ---------------------------------------------------------------------

 SCF Done:  E(UB3LYP) =  -797.579341364     A.U. after   11 cycles

 The electronic state is 3-AU.
 Alpha  occ. eigenvalues --  -88.88386 -88.88385  -7.96745  -7.96741  -5.92959
 Alpha  occ. eigenvalues --   -5.92958  -5.92916  -5.92916  -5.92692  -5.92691
 Alpha  occ. eigenvalues --   -0.77005  -0.72163  -0.43317  -0.40940  -0.36139
 Alpha  occ. eigenvalues --   -0.32624  -0.28358  -0.21586
 Alpha virt. eigenvalues --   -0.03118   0.00700   0.03221   0.03761   0.04787
 Alpha virt. eigenvalues --    0.06436   0.06505   0.07042   0.07455   0.10304
 Alpha virt. eigenvalues --    0.11917   0.12802   0.14801   0.16278   0.17107

  Beta  occ. eigenvalues --  -88.87684 -88.87683  -7.96098  -7.96097  -5.92296
  Beta  occ. eigenvalues --   -5.92296  -5.91705  -5.91705  -5.91630  -5.91629
  Beta  occ. eigenvalues --   -0.73225  -0.68003  -0.41802  -0.39487  -0.31186
  Beta  occ. eigenvalues --   -0.26793
  Beta virt. eigenvalues --   -0.18204  -0.11401  -0.02586   0.01198   0.03694
  Beta virt. eigenvalues --    0.04020   0.05051   0.06617   0.07401   0.07477
  Beta virt. eigenvalues --    0.07843   0.10653   0.12247   0.13334   0.15939

 Mulliken charges and spin densities:
               1          2
     1  S   -0.128559   1.011041
     2  S   -0.128559   1.011041
     3  H    0.128559  -0.011041
     4  H    0.128559  -0.011041
 Sum of Mulliken charges =  -0.00000   2.00000

 Dipole moment (field-independent basis, Debye):
    X=              0.0000    Y=              0.0000    Z=              0.0000  Tot=              0.0000
 Quadrupole moment (field-independent basis, Debye-Ang):
   XX=            -23.9017   YY=            -30.1020   ZZ=            -29.0764
   XY=              1.9066   XZ=             -0.0000   YZ=              0.0000

  Exact polarizability:  40.576   6.360 110.046  -0.000  -0.000  38.206
 Approx polarizability:  68.028   5.599 243.584  -0.000  -0.000  57.903

                      1                      2                      3
                     AG                     AU                     BU
 Frequencies --    273.1979               397.2018               448.4319
 Red. masses --     17.6650                 1.0386                 1.0386
 Frc consts  --      0.7768                 0.0965                 0.1230
 IR Inten    --      0.0000                15.3601                17.1799

                      4                      5                      6
                     AG                     AG                     BU
 Frequencies --    599.0851              2691.0757              2691.8753
 Red. masses --      1.0626                 1.0393                 1.0386
 Frc consts  --      0.2247                 4.4345                 4.4340
 IR Inten    --      0.0000                 0.0000                 8.1216

 - Thermochemistry -
 -------------------
 Temperature   298.150 Kelvin.  Pressure   1.00000 Atm.
 Atom     1 has atomic number 16 and mass  31.97207

 Molecular mass:    65.95979 amu.
 Principal axes and moments of inertia in atomic units:
                           1         2         3
     Eigenvalues --    12.56006 386.80025 399.36032
           X            0.03083   0.99952   0.00000
           Y            0.99952  -0.03083   0.00000
           Z           -0.00000  -0.00000   1.00000
 This molecule is an asymmetric top.
 Rotational symmetry number  2.
 Rotational temperatures (Kelvin)      6.89597     0.22392     0.21688
 Rotational constants (GHZ):         143.68886     4.66582     4.51908
 Zero-point vibrational energy      42472.6 (Joules/Mol)
                                   10.15120 (Kcal/Mol)
 Warning -- explicit consideration of   4 degrees of freedom as
           vibrations may cause significant error
 Vibrational temperatures:    393.07   571.48   645.19   861.95  3871.85
          (Kelvin)           3873.00

 Zero-point correction=                           0.016177 (Hartree/Particle)
 Thermal correction to Energy=                    0.020202
 Thermal correction to Enthalpy=                  0.021146
 Thermal correction to Gibbs Free Energy=        -0.009867
 Sum of electronic and zero-point Energies=           -797.563164
 Sum of electronic and thermal Energies=              -797.559139
 Sum of electronic and thermal Enthalpies=            -797.558195
 Sum of electronic and thermal Free Energies=         -797.589208

                     E (Thermal)             CV                S
                      KCal/Mol        Cal/Mol-Kelvin    Cal/Mol-Kelvin
 Total                   12.677             11.560             65.273
 Electronic               0.000              0.000              2.183
 Translational            0.889              2.981             38.478
 Rotational               0.889              2.981             20.811
 Vibrational             10.900              5.599              3.801
 Vibration     1          0.676              1.723              1.576
 Vibration     2          0.764              1.476              0.973
 Vibration     3          0.807              1.364              0.801
 Vibration     4          0.957              1.034              0.451

 Optimization completed.
    -- Stationary point found.
 Normal termination of Gaussian 09 at Wed Aug  3 22:48:12 2016.
