 Gaussian 09, Revision E.01,
 Gaussian 09:  EM64L-G09RevE.01 30-Nov-2015

 ------------------------------
 #p b3lyp/6-311++G(3df,2p) freq
 ------------------------------

 ---------
 b3lyp opt
 ---------
 Symbolic Z-matrix:
 Charge =  0 Multiplicity = 1

                         Standard orientation:
 ---------------------------------------------------------------------
 Center     Atomic      Atomic             Coordinates (Angstroms)
 Number     Number       Type             X           Y           Z
 ---------------------------------------------------------------------
      1         16           0        0.000000    1.037000   -0.054984
      2         16           0       -0.000000   -1.037000   -0.054984
      3          1           0        0.948675    1.237875    0.879745
      4          1           0       -0.948675   -1.237875    0.879745
 ---------------------------------------------------------------------

 SCF Done:  E(RB3LYP) =  -797.652546980     A.U. after    9 cycles

 The electronic state is 1-A.
 Alpha  occ. eigenvalues --  -88.88043 -88.88043  -7.96490  -7.96487  -5.92916
 Alpha  occ. eigenvalues --   -5.92894  -5.92509  -5.92505  -5.91889  -5.91889
 Alpha  occ. eigenvalues --   -0.80940  -0.67703  -0.45976  -0.41331  -0.36306
 Alpha  occ. eigenvalues --   -0.27132  -0.27086
 Alpha virt. eigenvalues --   -0.05652  -0.02361  -0.00173   0.04207   0.04501
 Alpha virt. eigenvalues --    0.04663   0.05507   0.07454   0.07476   0.08938
 Alpha virt. eigenvalues --    0.10209   0.12302   0.12936   0.15632   0.17462

 Mulliken charges:
               1
     1  S   -0.130293
     2  S   -0.130293
     3  H    0.130293
     4  H    0.130293
 Sum of Mulliken charges =  -0.00000

 Dipole moment (field-independent basis, Debye):
    X=             -0.0000    Y=              0.0000    Z=              1.1158  Tot=              1.1158
 Quadrupole moment (field-independent basis, Debye-Ang):
   XX=            -27.1254   YY=            -26.2206   ZZ=            -27.3440
   XY=              2.0210   XZ=             -0.0000   YZ=             -0.0000

  Exact polarizability:  37.587   2.453  55.803  -0.000   0.000  37.346
 Approx polarizability:  59.620   4.571  92.802  -0.000  -0.000  59.197

                      1                      2                      3
                      A                      A                      A
 Frequencies --    437.7040               499.1123               891.0903
 Red. masses --      1.0546                25.8976                 1.0354
 Frc consts  --      0.1190                 3.8011                 0.4844
 IR Inten    --     12.1518                 0.0089                 0.0599

                      4                      5                      6
                      B                      A                      B
 Frequencies --    891.6722              2624.8513              2626.8515
 Red. masses --      1.0682                 1.0395                 1.0394
 Frc consts  --      0.5004                 4.2196                 4.2259
 IR Inten    --      7.2617                 0.5756                 3.1095

 - Thermochemistry -
 -------------------
 Temperature   298.150 Kelvin.  Pressure   1.00000 Atm.
 Atom     1 has atomic number 16 and mass  31.97207

 Molecular mass:    65.95979 amu.
 Principal axes and moments of inertia in atomic units:
                           1         2         3
     Eigenvalues --    12.28961 262.97109 263.06698
           X            0.03374   0.99943   0.00000
           Y            0.99943  -0.03374   0.00000
           Z           -0.00000  -0.00000   1.00000
 This molecule is an asymmetric top.
 Rotational symmetry number  2.
 Rotational temperatures (Kelvin)      7.04773     0.32937     0.32925
 Rotational constants (GHZ):         146.85103     6.86289     6.86039
 Zero-point vibrational energy      47678.9 (Joules/Mol)
                                   11.39552 (Kcal/Mol)
 Warning -- explicit consideration of   2 degrees of freedom as
           vibrations may cause significant error
 Vibrational temperatures:    629.76   718.11  1282.08  1282.92  3776.57
          (Kelvin)           3779.45

 Zero-point correction=                           0.018160 (Hartree/Particle)
 Thermal correction to Energy=                    0.021603
 Thermal correction to Enthalpy=                  0.022548
 Thermal correction to Gibbs Free Energy=        -0.006080
 Sum of electronic and zero-point Energies=           -797.634387
 Sum of electronic and thermal Energies=              -797.630944
 Sum of electronic and thermal Enthalpies=            -797.629999
 Sum of electronic and thermal Free Energies=         -797.658627

                     E (Thermal)             CV                S
                      KCal/Mol        Cal/Mol-Kelvin    Cal/Mol-Kelvin
 Total                   13.556              9.627             60.252
 Electronic               0.000              0.000              0.000
 Translational            0.889              2.981             38.478
 Rotational               0.889              2.981             19.991
 Vibrational             11.779              3.666              1.783
 Vibration     1          0.798              1.388              0.834
 Vibration     2          0.855              1.252              0.660

 Optimization completed.
    -- Stationary point found.
 Normal termination of Gaussian 09 at Wed Aug  3 22:48:08 2016.
