 Gaussian 09, Revision E.01,
 Gaussian 09:  EM64L-G09RevE.01 30-Nov-2015

 ------------------------------
 #p b3lyp/6-311++G(3df,2p) freq
 ------------------------------

 ---------
 b3lyp opt
 ---------
 Symbolic Z-matrix:
 Charge =  1 Multiplicity = 2

                         Standard orientation:
 ---------------------------------------------------------------------
 Center     Atomic      Atomic             Coordinates (Angstroms)
 Number     Number       Type             X           Y           Z
 ---------------------------------------------------------------------
      1         16           0        0.048954   -0.929024   -0.000000
      2         16           0        0.048954    1.089466    0.000000
      3          1           0       -0.783264   -1.283537    1.013900
      4          1           0       -0.783264   -1.283537   -1.013900
 ---------------------------------------------------------------------

 SCF Done:  E(UB3LYP) =  -797.290858031     A.U. after   13 cycles

 The electronic state is 2-A'.
 Alpha  occ. eigenvalues --  -89.21077 -89.14996  -8.29241  -8.23105  -6.25368
 Alpha  occ. eigenvalues --   -6.25311  -6.24986  -6.19958  -6.19417  -6.18229
 Alpha  occ. eigenvalues --   -1.11316  -0.94300  -0.75359  -0.70517  -0.64143
 Alpha  occ. eigenvalues --   -0.54300  -0.52318
 Alpha virt. eigenvalues --   -0.29886  -0.25539  -0.23933  -0.13857  -0.12554
 Alpha virt. eigenvalues --   -0.12128  -0.11585  -0.09698  -0.08671  -0.08564
 Alpha virt. eigenvalues --   -0.06396  -0.06252  -0.04274  -0.03291  -0.01808

  Beta  occ. eigenvalues --  -89.21038 -89.14406  -8.29198  -8.22566  -6.25364
  Beta  occ. eigenvalues --   -6.25294  -6.24853  -6.19095  -6.18100  -6.17896
  Beta  occ. eigenvalues --   -1.10443  -0.91184  -0.75129  -0.69113  -0.62376
  Beta  occ. eigenvalues --   -0.51108
  Beta virt. eigenvalues --   -0.41345  -0.28888  -0.25216  -0.23644  -0.13236
  Beta virt. eigenvalues --   -0.12453  -0.12079  -0.11136  -0.09400  -0.08355
  Beta virt. eigenvalues --   -0.07493  -0.06352  -0.05700  -0.03972  -0.03065

 Mulliken charges and spin densities:
               1          2
     1  S    0.301465   0.035513
     2  S    0.256379   0.923559
     3  H    0.221078   0.020464
     4  H    0.221078   0.020464
 Sum of Mulliken charges =   1.00000   1.00000

 Dipole moment (field-independent basis, Debye):
    X=             -1.3531    Y=             -2.3495    Z=             -0.0000  Tot=              2.7113
 Quadrupole moment (field-independent basis, Debye-Ang):
   XX=            -22.0128   YY=            -15.0296   ZZ=            -22.1720
   XY=              2.3636   XZ=              0.0000   YZ=              0.0000

  Exact polarizability:  26.869   2.755  48.014  -0.000   0.000  29.782
 Approx polarizability:  43.107   3.986  86.681   0.000   0.000  46.691

                      1                      2                      3
                     A'                     A'                     A"
 Frequencies --    460.6012               739.9190               786.0174
 Red. masses --     12.5756                 1.1453                 1.0522
 Frc consts  --      1.5719                 0.3694                 0.3830
 IR Inten    --      0.4530                 7.4237                 0.0010

                      4                      5                      6
                     A'                     A'                     A"
 Frequencies --   1206.4540              2550.6700              2563.7924
 Red. masses --      1.0388                 1.0334                 1.0441
 Frc consts  --      0.8908                 3.9614                 4.0434
 IR Inten    --     16.0390                48.2966                62.3348

 - Thermochemistry -
 -------------------
 Temperature   298.150 Kelvin.  Pressure   1.00000 Atm.
 Atom     1 has atomic number 16 and mass  31.97207

 Molecular mass:    65.95979 amu.
 Principal axes and moments of inertia in atomic units:
                           1         2         3
     Eigenvalues --    11.97216 250.40147 253.22834
           X            0.03284   0.00000   0.99946
           Y            0.99946  -0.00000  -0.03284
           Z            0.00000   1.00000  -0.00000
 This molecule is an asymmetric top.
 Rotational symmetry number  1.
 Rotational temperatures (Kelvin)      7.23460     0.34590     0.34204
 Rotational constants (GHZ):         150.74480     7.20739     7.12693
 Zero-point vibrational energy      49689.6 (Joules/Mol)
                                   11.87610 (Kcal/Mol)
 Warning -- explicit consideration of   1 degrees of freedom as
           vibrations may cause significant error
 Vibrational temperatures:    662.70  1064.58  1130.90  1735.82  3669.84
          (Kelvin)           3688.72

 Zero-point correction=                           0.018926 (Hartree/Particle)
 Thermal correction to Energy=                    0.022210
 Thermal correction to Enthalpy=                  0.023154
 Thermal correction to Gibbs Free Energy=        -0.006493
 Sum of electronic and zero-point Energies=           -797.271932
 Sum of electronic and thermal Energies=              -797.268648
 Sum of electronic and thermal Enthalpies=            -797.267704
 Sum of electronic and thermal Free Energies=         -797.297351

                     E (Thermal)             CV                S
                      KCal/Mol        Cal/Mol-Kelvin    Cal/Mol-Kelvin
 Total                   13.937              8.931             62.397
 Electronic               0.000              0.000              1.377
 Translational            0.889              2.981             38.478
 Rotational               0.889              2.981             21.256
 Vibrational             12.159              2.970              1.286
 Vibration     1          0.818              1.337              0.764

 Optimization completed.
    -- Stationary point found.
 Normal termination of Gaussian 09 at Wed Aug  3 22:48:47 2016.
