 Gaussian 09, Revision E.01,
 Gaussian 09:  EM64L-G09RevE.01 30-Nov-2015

 ------------------------------
 #p b3lyp/6-311++G(3df,2p) freq
 ------------------------------

 ---------
 b3lyp opt
 ---------
 Symbolic Z-matrix:
 Charge =  2 Multiplicity = 1

                         Standard orientation:
 ---------------------------------------------------------------------
 Center     Atomic      Atomic             Coordinates (Angstroms)
 Number     Number       Type             X           Y           Z
 ---------------------------------------------------------------------
      1         16           0       -0.000000    0.970844   -0.079998
      2         16           0        0.000000   -0.970844   -0.079998
      3          1           0        0.000000    1.231377    1.279965
      4          1           0       -0.000000   -1.231377    1.279965
 ---------------------------------------------------------------------

 SCF Done:  E(RB3LYP) =  -796.701302364     A.U. after    9 cycles

 The electronic state is 1-A1.
 Alpha  occ. eigenvalues --  -89.51307 -89.51307  -8.58984  -8.58973  -6.55245
 Alpha  occ. eigenvalues --   -6.55240  -6.55108  -6.55053  -6.54550  -6.54541
 Alpha  occ. eigenvalues --   -1.41386  -1.22796  -1.03882  -0.93165  -0.90269
 Alpha  occ. eigenvalues --   -0.90109
 Alpha virt. eigenvalues --   -0.72126  -0.55132  -0.53667  -0.42314  -0.39178
 Alpha virt. eigenvalues --   -0.35612  -0.34925  -0.32865  -0.30948  -0.27392
 Alpha virt. eigenvalues --   -0.27192  -0.26813  -0.23353  -0.22922  -0.21368

 Mulliken charges:
               1
     1  S    0.696929
     2  S    0.696929
     3  H    0.303071
     4  H    0.303071
 Sum of Mulliken charges =   2.00000

 Dipole moment (field-independent basis, Debye):
    X=             -0.0000    Y=             -0.0000    Z=              2.5562  Tot=              2.5562
 Quadrupole moment (field-independent basis, Debye-Ang):
   XX=            -19.9956   YY=             -6.1444   ZZ=            -15.6336
   XY=              0.0000   XZ=             -0.0000   YZ=             -0.0000

  Exact polarizability:  20.069  -0.000  42.916  -0.000   0.000  25.697
 Approx polarizability:  34.203  -0.000 112.167  -0.000  -0.000  42.828

                      1                      2                      3
                     A1                     A2                     A1
 Frequencies --    637.1051               743.6299               849.3189
 Red. masses --     31.1674                 1.0572                 1.0085
 Frc consts  --      7.4537                 0.3445                 0.4286
 IR Inten    --      1.4428                 0.0000                16.3284

                      4                      5                      6
                     B2                     B2                     A1
 Frequencies --    941.7954              2387.2421              2421.0911
 Red. masses --      1.1097                 1.0419                 1.0387
 Frc consts  --      0.5799                 3.4983                 3.5872
 IR Inten    --     25.8000               125.3326               280.6983

 - Thermochemistry -
 -------------------
 Temperature   298.150 Kelvin.  Pressure   1.00000 Atm.
 Atom     1 has atomic number 16 and mass  31.97207

 Molecular mass:    65.95979 amu.
 Principal axes and moments of inertia in atomic units:
                           1         2         3
     Eigenvalues --    12.90590 226.14179 239.04769
           X           -0.00000  -0.00000   1.00000
           Y            1.00000   0.00000   0.00000
           Z           -0.00000   1.00000   0.00000
 This molecule is an asymmetric top.
 Rotational symmetry number  2.
 Rotational temperatures (Kelvin)      6.71118     0.38301     0.36233
 Rotational constants (GHZ):         139.83843     7.98057     7.54971
 Zero-point vibrational energy      47732.1 (Joules/Mol)
                                   11.40824 (Kcal/Mol)
 Vibrational temperatures:    916.65  1069.92  1221.98  1355.03  3434.70
          (Kelvin)           3483.41

 Zero-point correction=                           0.018180 (Hartree/Particle)
 Thermal correction to Energy=                    0.021361
 Thermal correction to Enthalpy=                  0.022305
 Thermal correction to Gibbs Free Energy=        -0.005827
 Sum of electronic and zero-point Energies=           -796.683122
 Sum of electronic and thermal Energies=              -796.679941
 Sum of electronic and thermal Enthalpies=            -796.678997
 Sum of electronic and thermal Free Energies=         -796.707130

                     E (Thermal)             CV                S
                      KCal/Mol        Cal/Mol-Kelvin    Cal/Mol-Kelvin
 Total                   13.404              8.687             59.210
 Electronic               0.000              0.000              0.000
 Translational            0.889              2.981             38.478
 Rotational               0.889              2.981             19.795
 Vibrational             11.627              2.726              0.938

 Optimization completed.
    -- Stationary point found.
 Normal termination of Gaussian 09 at Wed Aug  3 22:48:36 2016.
