 Gaussian 09, Revision E.01,
 Gaussian 09:  EM64L-G09RevE.01 30-Nov-2015

 ------------------------------
 #p b3lyp/6-311++G(3df,2p) freq
 ------------------------------

 ---------
 b3lyp opt
 ---------
 Symbolic Z-matrix:
 Charge =  2 Multiplicity = 3

                         Standard orientation:
 ---------------------------------------------------------------------
 Center     Atomic      Atomic             Coordinates (Angstroms)
 Number     Number       Type             X           Y           Z
 ---------------------------------------------------------------------
      1         16           0       -0.053626   -1.005308    0.000000
      2         16           0       -0.053626    1.149530   -0.000000
      3          1           0        0.858017   -1.153780    1.029183
      4          1           0        0.858017   -1.153780   -1.029183
 ---------------------------------------------------------------------

 SCF Done:  E(UB3LYP) =  -796.681200966     A.U. after   14 cycles

 The electronic state is 3-A".
 Alpha  occ. eigenvalues --  -89.52560 -89.47597  -8.59821  -8.55580  -6.56443
 Alpha  occ. eigenvalues --   -6.56349  -6.55666  -6.51837  -6.51537  -6.51275
 Alpha  occ. eigenvalues --   -1.37729  -1.24978  -0.99734  -0.96470  -0.91241
 Alpha  occ. eigenvalues --   -0.87099  -0.84630
 Alpha virt. eigenvalues --   -0.61031  -0.49724  -0.46645  -0.35150  -0.34840
 Alpha virt. eigenvalues --   -0.34736  -0.31017  -0.29264  -0.29105  -0.27990
 Alpha virt. eigenvalues --   -0.26895  -0.25002  -0.23454  -0.22725  -0.20595

  Beta  occ. eigenvalues --  -89.51220 -89.47581  -8.58611  -8.55558  -6.54881
  Beta  occ. eigenvalues --   -6.53972  -6.53924  -6.51918  -6.51521  -6.51150
  Beta  occ. eigenvalues --   -1.35007  -1.18502  -0.98675  -0.94385  -0.88514
  Beta virt. eigenvalues --   -0.70805  -0.70083  -0.59060  -0.48902  -0.46192
  Beta virt. eigenvalues --   -0.33594  -0.33320  -0.32785  -0.29820  -0.28620
  Beta virt. eigenvalues --   -0.28210  -0.26366  -0.22988  -0.22213  -0.21959

 Mulliken charges and spin densities:
               1          2
     1  S    0.509640  -0.005617
     2  S    0.892124   1.929046
     3  H    0.299118   0.038285
     4  H    0.299118   0.038285
 Sum of Mulliken charges =   2.00000   2.00000

 Dipole moment (field-independent basis, Debye):
    X=              1.5791    Y=             -0.6268    Z=             -0.0000  Tot=              1.6990
 Quadrupole moment (field-independent basis, Debye-Ang):
   XX=            -18.5719   YY=             -5.1155   ZZ=            -16.8030
   XY=             -2.9660   XZ=             -0.0000   YZ=              0.0000

  Exact polarizability:  23.088  -2.383  43.507   0.000  -0.000  24.276
 Approx polarizability:  36.741  -2.802  83.493  -0.000   0.000  39.546

                      1                      2                      3
                     A'                     A'                     A"
 Frequencies --    393.0701               730.6843               757.2013
 Red. masses --     25.2576                 1.0791                 1.0390
 Frc consts  --      2.2992                 0.3394                 0.3510
 IR Inten    --      9.1402                38.6298                 8.7646

                      4                      5                      6
                     A'                     A'                     A"
 Frequencies --   1104.7596              2394.6469              2400.8274
 Red. masses --      1.0394                 1.0342                 1.0430
 Frc consts  --      0.7474                 3.4940                 3.5419
 IR Inten    --     14.6228               244.7164               224.8084

 - Thermochemistry -
 -------------------
 Temperature   298.150 Kelvin.  Pressure   1.00000 Atm.
 Atom     1 has atomic number 16 and mass  31.97207

 Molecular mass:    65.95979 amu.
 Principal axes and moments of inertia in atomic units:
                           1         2         3
     Eigenvalues --    13.19842 281.36042 283.41052
           X           -0.02887   0.00000   0.99958
           Y            0.99958   0.00000   0.02887
           Z           -0.00000   1.00000  -0.00000
 This molecule is an asymmetric top.
 Rotational symmetry number  1.
 Rotational temperatures (Kelvin)      6.56244     0.30784     0.30561
 Rotational constants (GHZ):         136.73916     6.41434     6.36794
 Zero-point vibrational energy      46541.8 (Joules/Mol)
                                   11.12377 (Kcal/Mol)
 Warning -- explicit consideration of   1 degrees of freedom as
           vibrations may cause significant error
 Vibrational temperatures:    565.54  1051.29  1089.44  1589.50  3445.36
          (Kelvin)           3454.25

 Zero-point correction=                           0.017727 (Hartree/Particle)
 Thermal correction to Energy=                    0.021093
 Thermal correction to Enthalpy=                  0.022037
 Thermal correction to Gibbs Free Energy=        -0.008280
 Sum of electronic and zero-point Energies=           -796.663474
 Sum of electronic and thermal Energies=              -796.660108
 Sum of electronic and thermal Enthalpies=            -796.659164
 Sum of electronic and thermal Free Energies=         -796.689481

                     E (Thermal)             CV                S
                      KCal/Mol        Cal/Mol-Kelvin    Cal/Mol-Kelvin
 Total                   13.236              9.223             63.809
 Electronic               0.000              0.000              2.183
 Translational            0.889              2.981             38.478
 Rotational               0.889              2.981             21.581
 Vibrational             11.459              3.261              1.567
 Vibration     1          0.760              1.485              0.988

 Optimization completed.
    -- Stationary point found.
 Normal termination of Gaussian 09 at Wed Aug  3 22:48:47 2016.
