 Gaussian 09, Revision E.01,
 Gaussian 09:  EM64L-G09RevE.01 30-Nov-2015

 ------------------------------
 #p b3lyp/6-311++G(3df,2p) freq
 ------------------------------

 ---------
 b3lyp opt
 ---------
 Symbolic Z-matrix:
 Charge =  2 Multiplicity = 1

                         Standard orientation:
 ---------------------------------------------------------------------
 Center     Atomic      Atomic             Coordinates (Angstroms)
 Number     Number       Type             X           Y           Z
 ---------------------------------------------------------------------
      1         16           0       -0.000000    0.000000    1.026741
      2         16           0        0.000000   -0.000000   -0.826893
      3          1           0        0.000000    1.159734   -1.598785
      4          1           0       -0.000000   -1.159734   -1.598785
 ---------------------------------------------------------------------

 SCF Done:  E(RB3LYP) =  -796.661596233     A.U. after   11 cycles

 The electronic state is 1-A1.
 Alpha  occ. eigenvalues --  -89.52908 -89.48799  -8.60775  -8.56366  -6.56910
 Alpha  occ. eigenvalues --   -6.56817  -6.56694  -6.52984  -6.52618  -6.51428
 Alpha  occ. eigenvalues --   -1.42620  -1.22342  -1.04234  -0.98708  -0.91368
 Alpha  occ. eigenvalues --   -0.81632
 Alpha virt. eigenvalues --   -0.70776  -0.57275  -0.48828  -0.48744  -0.38852
 Alpha virt. eigenvalues --   -0.35357  -0.34595  -0.33359  -0.29552  -0.26752
 Alpha virt. eigenvalues --   -0.26640  -0.24552  -0.23870  -0.21670  -0.20286

 Mulliken charges:
               1
     1  S    0.779870
     2  S    0.547421
     3  H    0.336355
     4  H    0.336355
 Sum of Mulliken charges =   2.00000

 Dipole moment (field-independent basis, Debye):
    X=             -0.0000    Y=             -0.0000    Z=             -3.2242  Tot=              3.2242
 Quadrupole moment (field-independent basis, Debye-Ang):
   XX=            -19.7221   YY=            -16.8533   ZZ=             -2.6451
   XY=              0.0000   XZ=              0.0000   YZ=              0.0000

  Exact polarizability:  19.821   0.000  24.948   0.000   0.000  44.159
 Approx polarizability:  33.923   0.000  38.682   0.000   0.000 105.494

                      1                      2                      3
                     B1                     B2                     A1
 Frequencies --    409.9592               689.6435               708.0748
 Red. masses --      1.1414                 1.1302                18.5924
 Frc consts  --      0.1130                 0.3167                 5.4922
 IR Inten    --    122.7427                 3.3765                 0.0174

                      4                      5                      6
                     A1                     A1                     B2
 Frequencies --   1129.9026              2279.4841              2334.8640
 Red. masses --      1.0428                 1.0271                 1.0569
 Frc consts  --      0.7844                 3.1444                 3.3949
 IR Inten    --      0.4549               340.2455               418.8826

 - Thermochemistry -
 -------------------
 Temperature   298.150 Kelvin.  Pressure   1.00000 Atm.
 Atom     1 has atomic number 16 and mass  31.97207

 Molecular mass:    65.95979 amu.
 Principal axes and moments of inertia in atomic units:
                           1         2         3
     Eigenvalues --     9.68120 216.28520 225.96641
           X            0.00000   0.00000   1.00000
           Y            0.00000   1.00000  -0.00000
           Z            1.00000   0.00000   0.00000
 This molecule is an asymmetric top.
 Rotational symmetry number  2.
 Rotational temperatures (Kelvin)      8.94660     0.40046     0.38330
 Rotational constants (GHZ):         186.41702     8.34427     7.98677
 Zero-point vibrational energy      45170.6 (Joules/Mol)
                                   10.79602 (Kcal/Mol)
 Warning -- explicit consideration of   1 degrees of freedom as
           vibrations may cause significant error
 Vibrational temperatures:    589.84   992.24  1018.76  1625.68  3279.67
          (Kelvin)           3359.34

 Zero-point correction=                           0.017205 (Hartree/Particle)
 Thermal correction to Energy=                    0.020586
 Thermal correction to Enthalpy=                  0.021530
 Thermal correction to Gibbs Free Energy=        -0.006733
 Sum of electronic and zero-point Energies=           -796.644392
 Sum of electronic and thermal Energies=              -796.641011
 Sum of electronic and thermal Enthalpies=            -796.640066
 Sum of electronic and thermal Free Energies=         -796.668329

                     E (Thermal)             CV                S
                      KCal/Mol        Cal/Mol-Kelvin    Cal/Mol-Kelvin
 Total                   12.918              9.336             59.485
 Electronic               0.000              0.000              0.000
 Translational            0.889              2.981             38.478
 Rotational               0.889              2.981             19.409
 Vibrational             11.140              3.374              1.598
 Vibration     1          0.774              1.449              0.927

 Optimization completed.
    -- Stationary point found.
 Normal termination of Gaussian 09 at Wed Aug  3 22:48:38 2016.
