 Gaussian 09, Revision E.01,
 Gaussian 09:  EM64L-G09RevE.01 30-Nov-2015

 ------------------------------
 #p b3lyp/6-311++G(3df,2p) freq
 ------------------------------

 ---------
 b3lyp opt
 ---------
 Symbolic Z-matrix:
 Charge =  1 Multiplicity = 3

                         Standard orientation:
 ---------------------------------------------------------------------
 Center     Atomic      Atomic             Coordinates (Angstroms)
 Number     Number       Type             X           Y           Z
 ---------------------------------------------------------------------
      1         16           0        0.318358   -0.449061   -0.000013
      2          6           0       -1.378584    0.279472    0.000011
      3          6           0        1.367146    0.729567    0.000016
      4          1           0       -1.504093    0.860421    0.909847
      5          1           0       -1.499876    0.872930   -0.902238
      6          1           0       -2.021125   -0.602606   -0.007556
 ---------------------------------------------------------------------

 SCF Done:  E(UB3LYP) =  -475.754911112     A.U. after   14 cycles

 The electronic state is 3-A.
 Alpha  occ. eigenvalues --  -89.19677 -10.57147 -10.44071  -8.27747  -6.24134
 Alpha  occ. eigenvalues --   -6.23537  -6.23507  -1.13040  -0.96671  -0.81159
 Alpha  occ. eigenvalues --   -0.68443  -0.68182  -0.67055  -0.62359  -0.59693
 Alpha  occ. eigenvalues --   -0.51484
 Alpha virt. eigenvalues --   -0.36972  -0.20670  -0.16997  -0.16602  -0.11694
 Alpha virt. eigenvalues --   -0.11679  -0.10852  -0.09379  -0.08511  -0.07946
 Alpha virt. eigenvalues --   -0.06658  -0.05461  -0.04622  -0.04301  -0.02495

  Beta  occ. eigenvalues --  -89.19648 -10.53809 -10.43767  -8.27704  -6.23810
  Beta  occ. eigenvalues --   -6.23777  -6.23415  -1.10496  -0.94414  -0.76730
  Beta  occ. eigenvalues --   -0.68130  -0.66317  -0.62328  -0.58551
  Beta virt. eigenvalues --   -0.45428  -0.35461  -0.33166  -0.18735  -0.16420
  Beta virt. eigenvalues --   -0.15317  -0.11600  -0.11324  -0.10528  -0.08470
  Beta virt. eigenvalues --   -0.08317  -0.07172  -0.06454  -0.04495  -0.04421

 Mulliken charges and spin densities:
               1          2
     1  S    0.315524   0.075424
     2  C   -0.327597   0.141794
     3  C    0.341776   1.776813
     4  H    0.227543  -0.005995
     5  H    0.227597  -0.005743
     6  H    0.215158   0.017707
 Sum of Mulliken charges =   1.00000   2.00000

 Dipole moment (field-independent basis, Debye):
    X=             -0.4873    Y=              0.6458    Z=             -0.0001  Tot=              0.8090
 Quadrupole moment (field-independent basis, Debye-Ang):
   XX=            -13.8482   YY=            -19.9091   ZZ=            -21.6921
   XY=              1.3172   XZ=              0.0002   YZ=              0.0000

  Exact polarizability:  49.404   4.375  35.113   0.002   0.001  28.258
 Approx polarizability:  84.372  19.602  65.303   0.004   0.006  42.284

                      1                      2                      3
                      A                      A                      A
 Frequencies --      9.0269               330.0733               550.6459
 Red. masses --      1.1966                 5.0314                 7.5486
 Frc consts  --      0.0001                 0.3230                 1.3485
 IR Inten    --      0.2798                 1.5475                 0.3215

                      4                      5                      6
                      A                      A                      A
 Frequencies --    905.6457               962.5672              1048.1484
 Red. masses --      1.1528                 1.2440                11.3794
 Frc consts  --      0.5571                 0.6791                 7.3657
 IR Inten    --      0.9901                 1.0772                 1.9358

                      7                      8                      9
                      A                      A                      A
 Frequencies --   1325.2178              1419.1019              1433.6744
 Red. masses --      1.1380                 1.0560                 1.0519
 Frc consts  --      1.1775                 1.2530                 1.2738
 IR Inten    --      1.5968                13.8968                17.5770

                     10                     11                     12
                      A                      A                      A
 Frequencies --   3035.4698              3141.5322              3174.2630
 Red. masses --      1.0271                 1.1041                 1.1101
 Frc consts  --      5.5757                 6.4199                 6.5903
 IR Inten    --     38.4500                16.0832                14.0308

 - Thermochemistry -
 -------------------
 Temperature   298.150 Kelvin.  Pressure   1.00000 Atm.
 Atom     1 has atomic number 16 and mass  31.97207

 Molecular mass:    58.99555 amu.
 Principal axes and moments of inertia in atomic units:
                           1         2         3
     Eigenvalues --    61.54051 208.64709 258.36908
           X            0.99936  -0.03576   0.00000
           Y            0.03576   0.99936  -0.00001
           Z           -0.00000   0.00001   1.00000
 This molecule is an asymmetric top.
 Rotational symmetry number  1.
 Rotational temperatures (Kelvin)      1.40743     0.41512     0.33523
 Rotational constants (GHZ):          29.32607     8.64973     6.98513
 Zero-point vibrational energy     103688.5 (Joules/Mol)
                                   24.78215 (Kcal/Mol)
 Warning -- explicit consideration of   3 degrees of freedom as
           vibrations may cause significant error
 Vibrational temperatures:     12.99   474.90   792.26  1303.02  1384.92
          (Kelvin)           1508.05  1906.69  2041.77  2062.74  4367.36
                             4519.96  4567.05

 Zero-point correction=                           0.039493 (Hartree/Particle)
 Thermal correction to Energy=                    0.043972
 Thermal correction to Enthalpy=                  0.044916
 Thermal correction to Gibbs Free Energy=         0.010019
 Sum of electronic and zero-point Energies=           -475.715418
 Sum of electronic and thermal Energies=              -475.710939
 Sum of electronic and thermal Enthalpies=            -475.709995
 Sum of electronic and thermal Free Energies=         -475.744892

                     E (Thermal)             CV                S
                      KCal/Mol        Cal/Mol-Kelvin    Cal/Mol-Kelvin
 Total                   27.593             12.272             73.446
 Electronic               0.000              0.000              2.183
 Translational            0.889              2.981             38.145
 Rotational               0.889              2.981             22.722
 Vibrational             25.815              6.310             10.396
 Vibration     1          0.593              1.987              8.214
 Vibration     2          0.713              1.615              1.260
 Vibration     3          0.906              1.138              0.543

 Normal termination of Gaussian 09 at Wed Aug  3 21:10:51 2016.
