 Gaussian 09, Revision E.01,
 Gaussian 09:  EM64L-G09RevE.01 30-Nov-2015

 ------------------------------
 #p b3lyp/6-311++G(3df,2p) freq
 ------------------------------

 ---------
 b3lyp opt
 ---------
 Symbolic Z-matrix:
 Charge =  1 Multiplicity = 3

                         Standard orientation:
 ---------------------------------------------------------------------
 Center     Atomic      Atomic             Coordinates (Angstroms)
 Number     Number       Type             X           Y           Z
 ---------------------------------------------------------------------
      1         16           0       -1.181030   -1.382966   -0.000000
      2         16           0        1.601065    0.564786    0.000000
      3          6           0       -1.107904    0.280539   -0.000000
      4          6           0        0.000000    1.115892    0.000000
      5          1           0       -2.090880    0.754633   -0.000000
      6          1           0       -0.175381    2.183387   -0.000000
      7          1           0        2.193111    1.774271    0.000000
 ---------------------------------------------------------------------

 SCF Done:  E(UB3LYP) =  -874.135315923     A.U. after   14 cycles

 The electronic state is 3-A".
 Alpha  occ. eigenvalues --  -89.13460 -89.10635 -10.45725 -10.45474  -8.21649
 Alpha  occ. eigenvalues --   -8.19128  -6.18507  -6.17473  -6.17453  -6.15329
 Alpha  occ. eigenvalues --   -6.15091  -6.14947  -1.08718  -1.01936  -0.92165
 Alpha  occ. eigenvalues --   -0.77770  -0.73384  -0.66582  -0.63114  -0.60561
 Alpha  occ. eigenvalues --   -0.57213  -0.53501  -0.53055  -0.44691
 Alpha virt. eigenvalues --   -0.24873  -0.20536  -0.16413  -0.15218  -0.13468
 Alpha virt. eigenvalues --   -0.12467  -0.11274  -0.09497  -0.07295  -0.06637
 Alpha virt. eigenvalues --   -0.06315  -0.06132  -0.05799  -0.05208  -0.04223

  Beta  occ. eigenvalues --  -89.12616 -89.10424 -10.45325 -10.45235  -8.20881
  Beta  occ. eigenvalues --   -8.18936  -6.17002  -6.16467  -6.16385  -6.15207
  Beta  occ. eigenvalues --   -6.14830  -6.14444  -1.06957  -0.99779  -0.89244
  Beta  occ. eigenvalues --   -0.75784  -0.72480  -0.65362  -0.61703  -0.57417
  Beta  occ. eigenvalues --   -0.56396  -0.49865
  Beta virt. eigenvalues --   -0.38961  -0.36334  -0.22017  -0.20027  -0.15558
  Beta virt. eigenvalues --   -0.14407  -0.12785  -0.12145  -0.11033  -0.09346
  Beta virt. eigenvalues --   -0.06985  -0.06464  -0.05737  -0.05478  -0.05447

 Mulliken charges and spin densities:
               1          2
     1  S    0.195887   1.322728
     2  S   -0.030246   0.340777
     3  C    0.014740   0.126675
     4  C    0.162855   0.196390
     5  H    0.226138   0.028639
     6  H    0.224369  -0.009904
     7  H    0.206257  -0.005306
 Sum of Mulliken charges =   1.00000   2.00000

 Dipole moment (field-independent basis, Debye):
    X=             -0.4430    Y=              1.8520    Z=             -0.0000  Tot=              1.9043
 Quadrupole moment (field-independent basis, Debye-Ang):
   XX=            -20.6813   YY=            -23.3724   ZZ=            -37.0306
   XY=              5.9752   XZ=             -0.0000   YZ=              0.0000

  Exact polarizability:  83.948  21.776  71.389  -0.000  -0.000  37.870
 Approx polarizability: 138.347  31.935 122.783   0.000   0.000  59.531

                      1                      2                      3
                     A'                     A"                     A"
 Frequencies --    149.3210               232.9228               450.2074
 Red. masses --     16.1901                 1.6676                 1.4222
 Frc consts  --      0.2127                 0.0533                 0.1698
 IR Inten    --      0.1256                 9.5284                19.8669

                      4                      5                      6
                     A'                     A"                     A'
 Frequencies --    500.0741               714.2528               752.6001
 Red. masses --      5.8621                 1.2753                 5.9158
 Frc consts  --      0.8637                 0.3833                 1.9742
 IR Inten    --     14.4261                43.5392                 0.3484

                      7                      8                      9
                     A'                     A"                     A'
 Frequencies --    881.9145               893.5514              1000.8015
 Red. masses --      3.0154                 1.3923                 1.2352
 Frc consts  --      1.3818                 0.6550                 0.7289
 IR Inten    --     31.1534                 0.9021                14.1131

                     10                     11                     12
                     A'                     A'                     A'
 Frequencies --   1193.9402              1352.8977              1430.4209
 Red. masses --      1.1001                 1.4090                 5.4237
 Frc consts  --      0.9240                 1.5195                 6.5384
 IR Inten    --      0.8385                 2.4473                 0.5175

                     13                     14                     15
                     A'                     A'                     A'
 Frequencies --   2664.2890              3079.1049              3190.7017
 Red. masses --      1.0390                 1.0827                 1.0911
 Frc consts  --      4.3456                 6.0477                 6.5448
 IR Inten    --     60.5866                36.4320                23.3070

 - Thermochemistry -
 -------------------
 Temperature   298.150 Kelvin.  Pressure   1.00000 Atm.
 Atom     1 has atomic number 16 and mass  31.97207

 Molecular mass:    90.96762 amu.
 Principal axes and moments of inertia in atomic units:
                           1         2         3
     Eigenvalues --   139.53471 739.35870 878.89342
           X            0.81473  -0.57985   0.00000
           Y            0.57985   0.81473   0.00000
           Z           -0.00000   0.00000   1.00000
 This molecule is an asymmetric top.
 Rotational symmetry number  1.
 Rotational temperatures (Kelvin)      0.62073     0.11715     0.09855
 Rotational constants (GHZ):          12.93399     2.44095     2.05342
 Zero-point vibrational energy     110576.8 (Joules/Mol)
                                   26.42849 (Kcal/Mol)
 Warning -- explicit consideration of   4 degrees of freedom as
           vibrations may cause significant error
 Vibrational temperatures:    214.84   335.12   647.75   719.49  1027.65
          (Kelvin)           1082.82  1268.88  1285.62  1439.93  1717.81
                             1946.52  2058.05  3833.31  4430.14  4590.70

 Zero-point correction=                           0.042116 (Hartree/Particle)
 Thermal correction to Energy=                    0.046975
 Thermal correction to Enthalpy=                  0.047919
 Thermal correction to Gibbs Free Energy=         0.012463
 Sum of electronic and zero-point Energies=           -874.093199
 Sum of electronic and thermal Energies=              -874.088341
 Sum of electronic and thermal Enthalpies=            -874.087397
 Sum of electronic and thermal Free Energies=         -874.122853

                     E (Thermal)             CV                S
                      KCal/Mol        Cal/Mol-Kelvin    Cal/Mol-Kelvin
 Total                   29.477             15.640             74.624
 Electronic               0.000              0.000              2.183
 Translational            0.889              2.981             39.436
 Rotational               0.889              2.981             26.008
 Vibrational             27.700              9.678              6.996
 Vibration     1          0.618              1.903              2.681
 Vibration     2          0.654              1.791              1.856
 Vibration     3          0.809              1.360              0.795
 Vibration     4          0.855              1.250              0.658

 Optimization completed.
    -- Stationary point found.
 Normal termination of Gaussian 09 at Wed Aug  3 22:58:06 2016.
