 Gaussian 09, Revision E.01,
 Gaussian 09:  EM64L-G09RevE.01 30-Nov-2015

 ------------------------------
 #p b3lyp/6-311++G(3df,2p) freq
 ------------------------------

 ---------
 b3lyp opt
 ---------
 Symbolic Z-matrix:
 Charge =  1 Multiplicity = 1

                         Standard orientation:
 ---------------------------------------------------------------------
 Center     Atomic      Atomic             Coordinates (Angstroms)
 Number     Number       Type             X           Y           Z
 ---------------------------------------------------------------------
      1         16           0       -1.645197   -0.183567   -0.007435
      2         16           0        1.509326   -0.413916   -0.033786
      3          6           0        0.033329    0.355729    0.562909
      4          6           0        0.886991    1.112827   -0.417813
      5          1           0       -1.300227   -0.840271   -1.138327
      6          1           0       -0.060122    0.640865    1.605306
      7          1           0       -1.987639    0.947794   -0.678016
 ---------------------------------------------------------------------

 SCF Done:  E(RB3LYP) =  -874.048420700     A.U. after   13 cycles

 The electronic state is 1-A.
 Alpha  occ. eigenvalues --  -89.17668 -89.11007 -10.47566 -10.44615  -8.26060
 Alpha  occ. eigenvalues --   -8.19409  -6.22190  -6.22147  -6.21697  -6.15601
 Alpha  occ. eigenvalues --   -6.15267  -6.15177  -1.13507  -1.05105  -0.85295
 Alpha  occ. eigenvalues --   -0.77851  -0.72994  -0.68807  -0.64869  -0.61658
 Alpha  occ. eigenvalues --   -0.54628  -0.51451  -0.45780
 Alpha virt. eigenvalues --   -0.30523  -0.26589  -0.24049  -0.20655  -0.19190
 Alpha virt. eigenvalues --   -0.14597  -0.13725  -0.11941  -0.10817  -0.10083
 Alpha virt. eigenvalues --   -0.08802  -0.07792  -0.06566  -0.05808  -0.05460

 Mulliken charges:
               1
     1  S    0.031423
     2  S    0.121218
     3  C    0.435347
     4  C   -0.296222
     5  H    0.226861
     6  H    0.245475
     7  H    0.235897
 Sum of Mulliken charges =   1.00000

 Dipole moment (field-independent basis, Debye):
    X=             -3.6777    Y=             -1.3545    Z=              0.1624  Tot=              3.9225
 Quadrupole moment (field-independent basis, Debye-Ang):
   XX=            -21.5080   YY=            -35.1540   ZZ=            -32.0384
   XY=             -2.9956   XZ=              3.3408   YZ=              3.1062

  Exact polarizability:  72.527  -3.583  51.606   0.405  -1.185  44.523
 Approx polarizability: 124.560 -19.173 104.708  -0.499  -2.888  76.778

                      1                      2                      3
                      A                      A                      A
 Frequencies --     53.3424               236.4267               310.4927
 Red. masses --      1.1431                 7.6131                 5.6714
 Frc consts  --      0.0019                 0.2507                 0.3221
 IR Inten    --     28.7097                 1.1193                20.3027

                      4                      5                      6
                      A                      A                      A
 Frequencies --    520.7717               668.3293               765.2462
 Red. masses --      6.3647                 4.4956                 4.1926
 Frc consts  --      1.0170                 1.1831                 1.4465
 IR Inten    --     13.4429                35.9152                 4.2373

                      7                      8                      9
                      A                      A                      A
 Frequencies --    828.7746               881.4953               938.8150
 Red. masses --      1.2265                 1.3937                 1.3675
 Frc consts  --      0.4964                 0.6380                 0.7102
 IR Inten    --      2.6109                11.9228                14.5975

                     10                     11                     12
                      A                      A                      A
 Frequencies --   1076.8443              1190.1981              1272.5599
 Red. masses --      5.2627                 1.0413                 1.0881
 Frc consts  --      3.5955                 0.8691                 1.0382
 IR Inten    --     35.0483                10.8424                15.8287

                     13                     14                     15
                      A                      A                      A
 Frequencies --   2563.3425              2617.1240              3140.8491
 Red. masses --      1.0376                 1.0385                 1.0880
 Frc consts  --      4.0170                 4.1908                 6.3236
 IR Inten    --     44.5611                38.1381                20.5905

 - Thermochemistry -
 -------------------
 Temperature   298.150 Kelvin.  Pressure   1.00000 Atm.
 Atom     1 has atomic number 16 and mass  31.97207

 Molecular mass:    90.96762 amu.
 Principal axes and moments of inertia in atomic units:
                           1         2         3
     Eigenvalues --   125.73873 659.16127 712.48284
           X            0.99984  -0.00734   0.01601
           Y            0.00589   0.99606   0.08851
           Z           -0.01659  -0.08841   0.99595
 This molecule is an asymmetric top.
 Rotational symmetry number  1.
 Rotational temperatures (Kelvin)      0.68884     0.13140     0.12157
 Rotational constants (GHZ):          14.35311     2.73794     2.53303
 Zero-point vibrational energy     102069.0 (Joules/Mol)
                                   24.39509 (Kcal/Mol)
 Warning -- explicit consideration of   4 degrees of freedom as
           vibrations may cause significant error
 Vibrational temperatures:     76.75   340.16   446.73   749.27   961.58
          (Kelvin)           1101.02  1192.42  1268.27  1350.74  1549.34
                             1712.43  1830.93  3688.07  3765.45  4518.98

 Zero-point correction=                           0.038876 (Hartree/Particle)
 Thermal correction to Energy=                    0.044106
 Thermal correction to Enthalpy=                  0.045050
 Thermal correction to Gibbs Free Energy=         0.009565
 Sum of electronic and zero-point Energies=           -874.009545
 Sum of electronic and thermal Energies=              -874.004315
 Sum of electronic and thermal Enthalpies=            -874.003370
 Sum of electronic and thermal Free Energies=         -874.038856

                     E (Thermal)             CV                S
                      KCal/Mol        Cal/Mol-Kelvin    Cal/Mol-Kelvin
 Total                   27.677             16.437             74.686
 Electronic               0.000              0.000              0.000
 Translational            0.889              2.981             39.436
 Rotational               0.889              2.981             25.582
 Vibrational             25.900             10.475              9.668
 Vibration     1          0.596              1.976              4.689
 Vibration     2          0.655              1.785              1.830
 Vibration     3          0.699              1.654              1.360
 Vibration     4          0.876              1.204              0.608

 Normal termination of Gaussian 09 at Wed Aug  3 20:32:31 2016.
