 Gaussian 09, Revision E.01,
 Gaussian 09:  EM64L-G09RevE.01 30-Nov-2015

 ------------------------------
 #p b3lyp/6-311++G(3df,2p) freq
 ------------------------------

 ---------
 b3lyp opt
 ---------
 Symbolic Z-matrix:
 Charge =  1 Multiplicity = 1

                         Standard orientation:
 ---------------------------------------------------------------------
 Center     Atomic      Atomic             Coordinates (Angstroms)
 Number     Number       Type             X           Y           Z
 ---------------------------------------------------------------------
      1         16           0        1.645441   -0.477795    0.000050
      2         16           0       -1.759919   -0.033855   -0.000032
      3          6           0       -0.086065    0.216311   -0.000315
      4          6           0        0.844496    1.110512   -0.000057
      5          1           0       -1.918894   -0.965022   -0.985383
      6          1           0        1.118740    2.154014    0.000503
      7          1           0       -1.918787   -0.963540    0.986825
 ---------------------------------------------------------------------

 SCF Done:  E(RB3LYP) =  -874.070718846     A.U. after   13 cycles

 The electronic state is 1-A.
 Alpha  occ. eigenvalues --  -89.18682 -89.06202 -10.45578 -10.45010  -8.26803
 Alpha  occ. eigenvalues --   -8.14434  -6.22976  -6.22878  -6.22486  -6.10883
 Alpha  occ. eigenvalues --   -6.10567  -6.09696  -1.11710  -1.05721  -0.83995
 Alpha  occ. eigenvalues --   -0.79443  -0.72667  -0.72534  -0.64051  -0.57778
 Alpha  occ. eigenvalues --   -0.56748  -0.52346  -0.40147
 Alpha virt. eigenvalues --   -0.27370  -0.25713  -0.21348  -0.20505  -0.18168
 Alpha virt. eigenvalues --   -0.16022  -0.11263  -0.11222  -0.10769  -0.10343
 Alpha virt. eigenvalues --   -0.09939  -0.07175  -0.06297  -0.05410  -0.05005

 Mulliken charges:
               1
     1  S    0.005236
     2  S   -0.106760
     3  C   -0.110327
     4  C    0.402713
     5  H    0.235187
     6  H    0.338806
     7  H    0.235145
 Sum of Mulliken charges =   1.00000

 Dipole moment (field-independent basis, Debye):
    X=             -4.1715    Y=              0.2989    Z=              0.0016  Tot=              4.1822
 Quadrupole moment (field-independent basis, Debye-Ang):
   XX=            -19.2132   YY=            -27.6781   ZZ=            -34.5979
   XY=              6.3483   XZ=             -0.0016   YZ=              0.0020

  Exact polarizability:  91.355   2.171  51.567  -0.004  -0.001  41.520
 Approx polarizability: 177.626   1.680  92.008  -0.006  -0.002  66.268

                      1                      2                      3
                      A                      A                      A
 Frequencies --    123.8344               216.2942               246.7630
 Red. masses --      3.2429                 5.5280                 1.2665
 Frc consts  --      0.0293                 0.1524                 0.0454
 IR Inten    --     22.3894                 1.7636                11.6246

                      4                      5                      6
                      A                      A                      A
 Frequencies --    421.3439               582.9038               815.8665
 Red. masses --      6.8340                 7.8726                 3.7851
 Frc consts  --      0.7148                 1.5760                 1.4845
 IR Inten    --      8.0296               116.6114                 0.7729

                      7                      8                      9
                      A                      A                      A
 Frequencies --    859.3624               893.4896               895.2820
 Red. masses --      1.3087                 1.1339                 1.4322
 Frc consts  --      0.5694                 0.5333                 0.6764
 IR Inten    --     25.0636                 1.8694                 0.4471

                     10                     11                     12
                      A                      A                      A
 Frequencies --   1008.0621              1224.7607              1747.0564
 Red. masses --      1.2789                 1.0429                 6.7848
 Frc consts  --      0.7657                 0.9217                12.2011
 IR Inten    --     17.8089                60.7035               140.3840

                     13                     14                     15
                      A                      A                      A
 Frequencies --   2470.9429              2501.2210              3252.1096
 Red. masses --      1.0418                 1.0347                 1.1183
 Frc consts  --      3.7478                 3.8140                 6.9688
 IR Inten    --     16.6311                34.4077                44.4425

 - Thermochemistry -
 -------------------
 Temperature   298.150 Kelvin.  Pressure   1.00000 Atm.
 Atom     1 has atomic number 16 and mass  31.97207

 Molecular mass:    90.96762 amu.
 Principal axes and moments of inertia in atomic units:
                           1         2         3
     Eigenvalues --   110.68883 732.10601 828.79611
           X            0.99940   0.03471  -0.00001
           Y           -0.03471   0.99940   0.00004
           Z            0.00001  -0.00004   1.00000
 This molecule is an asymmetric top.
 Rotational symmetry number  1.
 Rotational temperatures (Kelvin)      0.78250     0.11831     0.10451
 Rotational constants (GHZ):          16.30464     2.46514     2.17755
 Zero-point vibrational energy     103233.5 (Joules/Mol)
                                   24.67340 (Kcal/Mol)
 Warning -- explicit consideration of   5 degrees of freedom as
           vibrations may cause significant error
 Vibrational temperatures:    178.17   311.20   355.04   606.22   838.67
          (Kelvin)           1173.85  1236.43  1285.53  1288.11  1450.37
                             1762.16  2513.62  3555.13  3598.69  4679.05

 Zero-point correction=                           0.039320 (Hartree/Particle)
 Thermal correction to Energy=                    0.044627
 Thermal correction to Enthalpy=                  0.045572
 Thermal correction to Gibbs Free Energy=         0.010377
 Sum of electronic and zero-point Energies=           -874.031399
 Sum of electronic and thermal Energies=              -874.026091
 Sum of electronic and thermal Enthalpies=            -874.025147
 Sum of electronic and thermal Free Energies=         -874.060342

                     E (Thermal)             CV                S
                      KCal/Mol        Cal/Mol-Kelvin    Cal/Mol-Kelvin
 Total                   28.004             16.758             74.073
 Electronic               0.000              0.000              0.000
 Translational            0.889              2.981             39.436
 Rotational               0.889              2.981             25.710
 Vibrational             26.227             10.796              8.927
 Vibration     1          0.610              1.929              3.040
 Vibration     2          0.645              1.816              1.990
 Vibration     3          0.661              1.768              1.754
 Vibration     4          0.784              1.424              0.887
 Vibration     5          0.940              1.068              0.480

 Normal termination of Gaussian 09 at Wed Aug  3 20:39:37 2016.
