 Gaussian 09, Revision E.01,
 Gaussian 09:  EM64L-G09RevE.01 30-Nov-2015

 ------------------------------
 #p b3lyp/6-311++G(3df,2p) freq
 ------------------------------

 ---------
 b3lyp opt
 ---------
 Symbolic Z-matrix:
 Charge =  0 Multiplicity = 4

                         Standard orientation:
 ---------------------------------------------------------------------
 Center     Atomic      Atomic             Coordinates (Angstroms)
 Number     Number       Type             X           Y           Z
 ---------------------------------------------------------------------
      1         16           0       -1.134829   -0.438425   -0.306939
      2         16           0        1.862272    0.185410   -0.062915
      3          6           0        0.358995   -0.323091    0.609327
      4          6           0       -2.191072    0.711599    0.313590
      5          1           0        0.406073   -0.732268    1.607980
      6          1           0       -2.431057    1.709738   -0.039644
      7          1           0        1.378366    0.739716   -1.188176
 ---------------------------------------------------------------------

 SCF Done:  E(UB3LYP) =  -874.303822869     A.U. after   14 cycles

 The electronic state is 4-A.
 Alpha  occ. eigenvalues --  -88.89072 -88.88780 -10.23737 -10.22496  -7.97360
 Alpha  occ. eigenvalues --   -7.97312  -5.93643  -5.93597  -5.93348  -5.93237
 Alpha  occ. eigenvalues --   -5.93088  -5.93048  -0.85683  -0.79199  -0.66943
 Alpha  occ. eigenvalues --   -0.59007  -0.48465  -0.45268  -0.41715  -0.38130
 Alpha  occ. eigenvalues --   -0.35647  -0.32593  -0.24712  -0.22364  -0.20253
 Alpha virt. eigenvalues --   -0.02503  -0.00548   0.00735   0.00939   0.02669
 Alpha virt. eigenvalues --    0.04625   0.04898   0.05498   0.06975   0.07286
 Alpha virt. eigenvalues --    0.07670   0.08099   0.09668   0.09811   0.10595

  Beta  occ. eigenvalues --  -88.88913 -88.88632 -10.22349 -10.19896  -7.97188
  Beta  occ. eigenvalues --   -7.97173  -5.93546  -5.93512  -5.93180  -5.93141
  Beta  occ. eigenvalues --   -5.92654  -5.92596  -0.83337  -0.77216  -0.62802
  Beta  occ. eigenvalues --   -0.55594  -0.46455  -0.44238  -0.39086  -0.36194
  Beta  occ. eigenvalues --   -0.31224  -0.28732
  Beta virt. eigenvalues --   -0.10475  -0.09039  -0.08358  -0.01604   0.00200
  Beta virt. eigenvalues --    0.01165   0.01374   0.03023   0.05147   0.05236
  Beta virt. eigenvalues --    0.06101   0.07234   0.07818   0.08619   0.08756

 Mulliken charges and spin densities:
               1          2
     1  S   -0.069264   0.304985
     2  S   -0.234648   0.254865
     3  C    0.096661   0.782855
     4  C   -0.266224   1.637328
     5  H    0.173126  -0.017988
     6  H    0.173879   0.028949
     7  H    0.126470   0.009006
 Sum of Mulliken charges =  -0.00000   3.00000

 Dipole moment (field-independent basis, Debye):
    X=              0.8693    Y=              0.6869    Z=             -0.4435  Tot=              1.1935
 Quadrupole moment (field-independent basis, Debye-Ang):
   XX=            -41.9810   YY=            -38.6824   ZZ=            -37.6700
   XY=             -1.2267   XZ=              0.6137   YZ=             -2.5564

  Exact polarizability: 100.234  -4.473  58.641  -5.374   0.552  56.458
 Approx polarizability: 143.624  -7.345  92.635  -9.094   0.613  92.482

                      1                      2                      3
                      A                      A                      A
 Frequencies --     62.3494               167.0827               260.2331
 Red. masses --      5.6620                 1.1980                 5.0741
 Frc consts  --      0.0130                 0.0197                 0.2025
 IR Inten    --      0.8904                 1.9662                 1.9080

                      4                      5                      6
                      A                      A                      A
 Frequencies --    286.2223               415.0498               450.9329
 Red. masses --      3.1064                 1.2360                 1.4398
 Frc consts  --      0.1499                 0.1254                 0.1725
 IR Inten    --      0.7157                28.9665                39.1560

                      7                      8                      9
                      A                      A                      A
 Frequencies --    638.2144               834.5678               843.8742
 Red. masses --      4.4841                 5.4073                 1.3135
 Frc consts  --      1.0761                 2.2190                 0.5511
 IR Inten    --     14.2287                 8.1730                14.3015

                     10                     11                     12
                      A                      A                      A
 Frequencies --    886.4739               956.6179              1229.1288
 Red. masses --      4.3520                 1.2497                 1.1714
 Frc consts  --      2.0150                 0.6738                 1.0426
 IR Inten    --     11.8184                10.0861                21.0603

                     13                     14                     15
                      A                      A                      A
 Frequencies --   2658.6896              3134.3036              3188.9180
 Red. masses --      1.0381                 1.0893                 1.0866
 Frc consts  --      4.3236                 6.3049                 6.5106
 IR Inten    --      0.1630                 9.8736                 0.8327

 - Thermochemistry -
 -------------------
 Temperature   298.150 Kelvin.  Pressure   1.00000 Atm.
 Atom     1 has atomic number 16 and mass  31.97207

 Molecular mass:    90.96762 amu.
 Principal axes and moments of inertia in atomic units:
                           1         2         3
     Eigenvalues --   111.85098 826.44387 851.72110
           X            0.99985  -0.01749   0.00104
           Y            0.01696   0.95080  -0.30935
           Z            0.00442   0.30932   0.95095
 This molecule is an asymmetric top.
 Rotational symmetry number  1.
 Rotational temperatures (Kelvin)      0.77437     0.10480     0.10169
 Rotational constants (GHZ):          16.13523     2.18374     2.11893
 Zero-point vibrational energy      95777.0 (Joules/Mol)
                                   22.89124 (Kcal/Mol)
 Warning -- explicit consideration of   6 degrees of freedom as
           vibrations may cause significant error
 Vibrational temperatures:     89.71   240.39   374.42   411.81   597.16
          (Kelvin)            648.79   918.25  1200.76  1214.15  1275.44
                             1376.36  1768.44  3825.26  4509.56  4588.14

 Zero-point correction=                           0.036480 (Hartree/Particle)
 Thermal correction to Energy=                    0.042595
 Thermal correction to Enthalpy=                  0.043539
 Thermal correction to Gibbs Free Energy=         0.005145
 Sum of electronic and zero-point Energies=           -874.267343
 Sum of electronic and thermal Energies=              -874.261228
 Sum of electronic and thermal Enthalpies=            -874.260284
 Sum of electronic and thermal Free Energies=         -874.298678

                     E (Thermal)             CV                S
                      KCal/Mol        Cal/Mol-Kelvin    Cal/Mol-Kelvin
 Total                   26.728             19.320             80.806
 Electronic               0.000              0.000              2.755
 Translational            0.889              2.981             39.436
 Rotational               0.889              2.981             25.868
 Vibrational             24.951             13.359             12.747
 Vibration     1          0.597              1.972              4.381
 Vibration     2          0.624              1.883              2.468
 Vibration     3          0.668              1.745              1.660
 Vibration     4          0.684              1.699              1.496
 Vibration     5          0.778              1.438              0.909
 Vibration     6          0.810              1.359              0.793

 Normal termination of Gaussian 09 at Wed Aug  3 20:33:53 2016.
