 Gaussian 09, Revision E.01,
 Gaussian 09:  EM64L-G09RevE.01 30-Nov-2015

 ------------------------------
 #p b3lyp/6-311++G(3df,2p) freq
 ------------------------------

 ---------
 b3lyp opt
 ---------
 Symbolic Z-matrix:
 Charge =  0 Multiplicity = 4

                         Standard orientation:
 ---------------------------------------------------------------------
 Center     Atomic      Atomic             Coordinates (Angstroms)
 Number     Number       Type             X           Y           Z
 ---------------------------------------------------------------------
      1         16           0       -1.246007   -0.464851   -0.230828
      2         16           0        1.763941    0.221557   -0.065775
      3          6           0        0.372930   -0.676727    0.415945
      4          6           0       -1.668791    1.120154    0.139616
      5          1           0        0.558924   -1.582751    0.973474
      6          1           0       -2.182791    1.528454    1.004684
      7          1           0        1.112092    1.286446   -0.565869
 ---------------------------------------------------------------------

 SCF Done:  E(UB3LYP) =  -874.305189475     A.U. after   14 cycles

 The electronic state is 4-A.
 Alpha  occ. eigenvalues --  -88.89256 -88.88342 -10.23700 -10.22785  -7.97547
 Alpha  occ. eigenvalues --   -7.96882  -5.93830  -5.93525  -5.93299  -5.93171
 Alpha  occ. eigenvalues --   -5.92819  -5.92594  -0.85813  -0.78844  -0.67377
 Alpha  occ. eigenvalues --   -0.58740  -0.47861  -0.45253  -0.42475  -0.37865
 Alpha  occ. eigenvalues --   -0.36056  -0.32004  -0.25020  -0.22979  -0.19747
 Alpha virt. eigenvalues --   -0.01693  -0.00514   0.00536   0.01075   0.03078
 Alpha virt. eigenvalues --    0.04231   0.05136   0.05570   0.06169   0.06705
 Alpha virt. eigenvalues --    0.07377   0.09128   0.09631   0.10257   0.10711

  Beta  occ. eigenvalues --  -88.89081 -88.88206 -10.22319 -10.20218  -7.97363
  Beta  occ. eigenvalues --   -7.96756  -5.93710  -5.93359  -5.93073  -5.92815
  Beta  occ. eigenvalues --   -5.92745  -5.92187  -0.83431  -0.76946  -0.63254
  Beta  occ. eigenvalues --   -0.55236  -0.46109  -0.43755  -0.40288  -0.35281
  Beta  occ. eigenvalues --   -0.32258  -0.28096
  Beta virt. eigenvalues --   -0.10526  -0.09492  -0.08287  -0.00756   0.00265
  Beta virt. eigenvalues --    0.00982   0.01582   0.03419   0.05038   0.05477
  Beta virt. eigenvalues --    0.05760   0.06663   0.07526   0.07922   0.09852

 Mulliken charges and spin densities:
               1          2
     1  S   -0.080265   0.342505
     2  S   -0.266398   0.240114
     3  C    0.097773   0.774013
     4  C   -0.262019   1.625282
     5  H    0.184642  -0.017290
     6  H    0.175618   0.031423
     7  H    0.150648   0.003954
 Sum of Mulliken charges =  -0.00000   3.00000

 Dipole moment (field-independent basis, Debye):
    X=              0.2419    Y=             -0.0799    Z=              0.6974  Tot=              0.7424
 Quadrupole moment (field-independent basis, Debye-Ang):
   XX=            -40.0210   YY=            -37.1440   ZZ=            -40.0026
   XY=             -0.3694   XZ=             -1.6472   YZ=             -0.9457

  Exact polarizability:  89.086  -3.555  68.185  -1.639  -0.241  53.012
 Approx polarizability: 129.248  -4.916 116.284  -1.056  -2.663  82.190

                      1                      2                      3
                      A                      A                      A
 Frequencies --     99.2939               199.8951               245.9307
 Red. masses --      3.2838                 1.2776                 9.1455
 Frc consts  --      0.0191                 0.0301                 0.3259
 IR Inten    --      1.4520                 0.8177                 3.8033

                      4                      5                      6
                      A                      A                      A
 Frequencies --    340.0806               397.2647               481.4162
 Red. masses --      2.4854                 1.1077                 1.6739
 Frc consts  --      0.1694                 0.1030                 0.2286
 IR Inten    --      4.0263                34.5406                25.3442

                      7                      8                      9
                      A                      A                      A
 Frequencies --    622.4227               834.6513               846.8643
 Red. masses --      5.1321                 5.8030                 1.2734
 Frc consts  --      1.1714                 2.3818                 0.5381
 IR Inten    --      3.6762                 7.9609                31.6180

                     10                     11                     12
                      A                      A                      A
 Frequencies --    877.8771               964.8942              1230.8911
 Red. masses --      3.8325                 1.2857                 1.1851
 Frc consts  --      1.7402                 0.7053                 1.0579
 IR Inten    --      5.6674                 8.5213                13.3442

                     13                     14                     15
                      A                      A                      A
 Frequencies --   2658.2087              3131.1411              3196.1570
 Red. masses --      1.0382                 1.0892                 1.0869
 Frc consts  --      4.3222                 6.2915                 6.5415
 IR Inten    --      1.1013                 7.9406                 0.1759

 - Thermochemistry -
 -------------------
 Temperature   298.150 Kelvin.  Pressure   1.00000 Atm.
 Atom     1 has atomic number 16 and mass  31.97207

 Molecular mass:    90.96762 amu.
 Principal axes and moments of inertia in atomic units:
                           1         2         3
     Eigenvalues --   149.66420 703.58987 807.67088
           X            0.99977  -0.01805  -0.01194
           Y            0.01777   0.99958  -0.02307
           Z            0.01235   0.02285   0.99966
 This molecule is an asymmetric top.
 Rotational symmetry number  1.
 Rotational temperatures (Kelvin)      0.57872     0.12310     0.10724
 Rotational constants (GHZ):          12.05860     2.56505     2.23450
 Zero-point vibrational energy      96460.8 (Joules/Mol)
                                   23.05469 (Kcal/Mol)
 Warning -- explicit consideration of   6 degrees of freedom as
           vibrations may cause significant error
 Vibrational temperatures:    142.86   287.60   353.84   489.30   571.57
          (Kelvin)            692.65   895.53  1200.88  1218.45  1263.07
                             1388.27  1770.98  3824.56  4505.01  4598.55

 Zero-point correction=                           0.036740 (Hartree/Particle)
 Thermal correction to Energy=                    0.042683
 Thermal correction to Enthalpy=                  0.043627
 Thermal correction to Gibbs Free Energy=         0.005877
 Sum of electronic and zero-point Energies=           -874.268449
 Sum of electronic and thermal Energies=              -874.262507
 Sum of electronic and thermal Enthalpies=            -874.261562
 Sum of electronic and thermal Free Energies=         -874.299312

                     E (Thermal)             CV                S
                      KCal/Mol        Cal/Mol-Kelvin    Cal/Mol-Kelvin
 Total                   26.784             19.175             79.451
 Electronic               0.000              0.000              2.755
 Translational            0.889              2.981             39.436
 Rotational               0.889              2.981             25.945
 Vibrational             25.006             13.213             11.315
 Vibration     1          0.604              1.950              3.468
 Vibration     2          0.638              1.840              2.134
 Vibration     3          0.660              1.770              1.760
 Vibration     4          0.720              1.595              1.212
 Vibration     5          0.764              1.476              0.973
 Vibration     6          0.838              1.291              0.706

 Normal termination of Gaussian 09 at Wed Aug  3 20:33:33 2016.
