 Gaussian 09, Revision E.01,
 Gaussian 09:  EM64L-G09RevE.01 30-Nov-2015

 ------------------------------
 #p b3lyp/6-311++G(3df,2p) freq
 ------------------------------

 ---------
 b3lyp opt
 ---------
 Symbolic Z-matrix:
 Charge =  1 Multiplicity = 1

                         Standard orientation:
 ---------------------------------------------------------------------
 Center     Atomic      Atomic             Coordinates (Angstroms)
 Number     Number       Type             X           Y           Z
 ---------------------------------------------------------------------
      1         16           0       -2.148699   -0.078588   -0.001221
      2         16           0        2.089313   -0.035586   -0.000995
      3          6           0        0.481327   -0.418302    0.002245
      4          6           0       -0.627710    0.491533    0.002964
      5          1           0        0.269415   -1.484306    0.004035
      6          1           0       -0.410946    1.558310    0.002282
      7          1           0        1.970000    1.313392   -0.002113
 ---------------------------------------------------------------------

 SCF Done:  E(RB3LYP) =  -874.144957870     A.U. after   12 cycles

 The electronic state is 1-A.
 Alpha  occ. eigenvalues --  -89.14598 -89.07524 -10.49690 -10.45616  -8.23050
 Alpha  occ. eigenvalues --   -8.15930  -6.19238  -6.18910  -6.18827  -6.12483
 Alpha  occ. eigenvalues --   -6.11993  -6.11141  -1.09791  -1.01859  -0.88865
 Alpha  occ. eigenvalues --   -0.81256  -0.71508  -0.67124  -0.62256  -0.60475
 Alpha  occ. eigenvalues --   -0.58920  -0.52371  -0.44621
 Alpha virt. eigenvalues --   -0.37474  -0.25167  -0.22004  -0.16748  -0.15511
 Alpha virt. eigenvalues --   -0.13555  -0.11753  -0.10161  -0.10060  -0.08219
 Alpha virt. eigenvalues --   -0.07590  -0.07031  -0.05636  -0.05373  -0.04843

 Mulliken charges:
               1
     1  S    0.003182
     2  S    0.083510
     3  C    0.150569
     4  C    0.082557
     5  H    0.253362
     6  H    0.226384
     7  H    0.200436
 Sum of Mulliken charges =   1.00000

 Dipole moment (field-independent basis, Debye):
    X=              3.0283    Y=              0.7196    Z=              0.0020  Tot=              3.1127
 Quadrupole moment (field-independent basis, Debye-Ang):
   XX=            -19.1422   YY=            -30.4335   ZZ=            -35.0169
   XY=              2.4445   XZ=             -0.0071   YZ=             -0.0044

  Exact polarizability: 113.031   4.474  48.411   0.006   0.006  37.295
 Approx polarizability: 244.740  17.399  79.521   0.053   0.011  61.847

                      1                      2                      3
                      A                      A                      A
 Frequencies --     78.0634               245.9608               371.0594
 Red. masses --      5.1482                 4.9508                10.1159
 Frc consts  --      0.0185                 0.1765                 0.8206
 IR Inten    --      1.3278                 4.7450                 1.8677

                      4                      5                      6
                      A                      A                      A
 Frequencies --    550.8015               858.7511               898.1848
 Red. masses --      1.2362                 2.0961                 1.4780
 Frc consts  --      0.2210                 0.9108                 0.7025
 IR Inten    --      4.0481                38.7606                22.2576

                      7                      8                      9
                      A                      A                      A
 Frequencies --    983.6605              1035.6250              1064.2179
 Red. masses --      1.2278                 1.8170                 3.7795
 Frc consts  --      0.6999                 1.1482                 2.5220
 IR Inten    --     22.9029                26.1010                 0.9075

                     10                     11                     12
                      A                      A                      A
 Frequencies --   1176.5466              1300.3246              1405.1431
 Red. masses --      2.5206                 1.3028                 1.5709
 Frc consts  --      2.0557                 1.2979                 1.8275
 IR Inten    --     89.2713                31.8938                53.3556

                     13                     14                     15
                      A                      A                      A
 Frequencies --   2610.3916              3105.5221              3155.2274
 Red. masses --      1.0388                 1.0896                 1.0901
 Frc consts  --      4.1706                 6.1912                 6.3940
 IR Inten    --     21.6198                 4.6498                25.4702

 - Thermochemistry -
 -------------------
 Temperature   298.150 Kelvin.  Pressure   1.00000 Atm.
 Atom     1 has atomic number 16 and mass  31.97207

 Molecular mass:    90.96762 amu.
 Principal axes and moments of inertia in atomic units:
                           1         2         3
     Eigenvalues --    41.474921067.080881108.55389
           X            0.99999   0.00545  -0.00002
           Y           -0.00545   0.99999  -0.00044
           Z            0.00001   0.00044   1.00000
 This molecule is an asymmetric top.
 Rotational symmetry number  1.
 Rotational temperatures (Kelvin)      2.08834     0.08117     0.07813
 Rotational constants (GHZ):          43.51403     1.69129     1.62801
 Zero-point vibrational energy     112685.1 (Joules/Mol)
                                   26.93239 (Kcal/Mol)
 Warning -- explicit consideration of   4 degrees of freedom as
           vibrations may cause significant error
 Vibrational temperatures:    112.32   353.88   533.87   792.48  1235.55
          (Kelvin)           1292.29  1415.27  1490.03  1531.17  1692.79
                             1870.87  2021.68  3755.77  4468.15  4539.66

 Zero-point correction=                           0.042919 (Hartree/Particle)
 Thermal correction to Energy=                    0.047804
 Thermal correction to Enthalpy=                  0.048748
 Thermal correction to Gibbs Free Energy=         0.014159
 Sum of electronic and zero-point Energies=           -874.102038
 Sum of electronic and thermal Energies=              -874.097154
 Sum of electronic and thermal Enthalpies=            -874.096210
 Sum of electronic and thermal Free Energies=         -874.130799

                     E (Thermal)             CV                S
                      KCal/Mol        Cal/Mol-Kelvin    Cal/Mol-Kelvin
 Total                   29.997             14.947             72.799
 Electronic               0.000              0.000              0.000
 Translational            0.889              2.981             39.436
 Rotational               0.889              2.981             25.398
 Vibrational             28.220              8.985              7.965
 Vibration     1          0.599              1.964              3.939
 Vibration     2          0.660              1.769              1.759
 Vibration     3          0.743              1.532              1.075
 Vibration     4          0.906              1.138              0.543

 Normal termination of Gaussian 09 at Wed Aug  3 20:31:20 2016.
