 Gaussian 09, Revision E.01,
 Gaussian 09:  EM64L-G09RevE.01 30-Nov-2015

 ------------------------------
 #p b3lyp/6-311++G(3df,2p) freq
 ------------------------------

 ---------
 b3lyp opt
 ---------
 Symbolic Z-matrix:
 Charge =  0 Multiplicity = 2

                         Standard orientation:
 ---------------------------------------------------------------------
 Center     Atomic      Atomic             Coordinates (Angstroms)
 Number     Number       Type             X           Y           Z
 ---------------------------------------------------------------------
      1         16           0       -1.163637   -1.315694   -0.000000
      2         16           0        1.587434    0.458137    0.000000
      3          6           0       -0.000000    1.132903   -0.000000
      4          6           0       -1.142164    0.360807   -0.000000
      5          1           0       -0.072868    2.212618   -0.000000
      6          1           0       -2.082414    0.905489   -0.000000
      7          1           0        2.227519    1.640547    0.000000
 ---------------------------------------------------------------------

 SCF Done:  E(UB3LYP) =  -874.445943600     A.U. after   15 cycles

 The electronic state is 2-A".
 Alpha  occ. eigenvalues --  -88.89444 -88.83791 -10.24423 -10.22325  -7.97976
 Alpha  occ. eigenvalues --   -7.92331  -5.94251  -5.93889  -5.93686  -5.88926
 Alpha  occ. eigenvalues --   -5.88455  -5.87697  -0.85968  -0.77677  -0.68794
 Alpha  occ. eigenvalues --   -0.55502  -0.52117  -0.43880  -0.40181  -0.38577
 Alpha  occ. eigenvalues --   -0.36078  -0.30509  -0.23763  -0.23003
 Alpha virt. eigenvalues --   -0.03397  -0.03165  -0.00190   0.00745   0.02820
 Alpha virt. eigenvalues --    0.03472   0.04412   0.04539   0.06323   0.07005
 Alpha virt. eigenvalues --    0.08420   0.08458   0.08749   0.09246   0.09815

  Beta  occ. eigenvalues --  -88.89349 -88.83445 -10.23847 -10.22434  -7.97889
  Beta  occ. eigenvalues --   -7.92016  -5.94204  -5.93848  -5.93372  -5.88262
  Beta  occ. eigenvalues --   -5.87846  -5.87503  -0.85096  -0.77060  -0.67105
  Beta  occ. eigenvalues --   -0.54770  -0.51751  -0.43612  -0.39635  -0.36106
  Beta  occ. eigenvalues --   -0.35600  -0.27991  -0.23016
  Beta virt. eigenvalues --   -0.14533  -0.03076  -0.01268   0.00012   0.00805
  Beta virt. eigenvalues --    0.02883   0.03573   0.04528   0.04760   0.06370
  Beta virt. eigenvalues --    0.07183   0.08551   0.08848   0.08925   0.09272

 Mulliken charges and spin densities:
               1          2
     1  S   -0.338543   0.599587
     2  S   -0.210741   0.169675
     3  C    0.115065   0.381881
     4  C   -0.057904  -0.126595
     5  H    0.164257  -0.017474
     6  H    0.182884  -0.005344
     7  H    0.144982  -0.001729
 Sum of Mulliken charges =  -0.00000   1.00000

 Dipole moment (field-independent basis, Debye):
    X=              1.3511    Y=              3.4026    Z=              0.0000  Tot=              3.6610
 Quadrupole moment (field-independent basis, Debye-Ang):
   XX=            -37.2204   YY=            -35.9399   ZZ=            -40.6252
   XY=             -0.1717   XZ=             -0.0000   YZ=             -0.0000

  Exact polarizability:  93.611  20.501  81.882   0.000  -0.000  46.547
 Approx polarizability: 148.975  31.991 141.863   0.000   0.000  73.997

                      1                      2                      3
                     A'                     A"                     A"
 Frequencies --    163.0372               289.5351               420.0814
 Red. masses --     17.9099                 1.6045                 1.5244
 Frc consts  --      0.2805                 0.0792                 0.1585
 IR Inten    --      2.5078                 8.0747                 8.6562

                      4                      5                      6
                     A'                     A"                     A'
 Frequencies --    545.2822               683.9249               750.5491
 Red. masses --      6.4749                 1.2357                 5.5816
 Frc consts  --      1.1343                 0.3405                 1.8525
 IR Inten    --     11.9402                38.3191                18.0608

                      7                      8                      9
                     A'                     A"                     A'
 Frequencies --    893.6996               907.5182              1005.1587
 Red. masses --      3.2701                 1.3855                 1.2490
 Frc consts  --      1.5388                 0.6723                 0.7435
 IR Inten    --      8.8909                 1.3676                29.0619

                     10                     11                     12
                     A'                     A'                     A'
 Frequencies --   1183.1140              1351.4732              1409.9333
 Red. masses --      1.2061                 1.3658                 3.4939
 Frc consts  --      0.9947                 1.4698                 4.0922
 IR Inten    --      5.3170                 1.0105                43.6382

                     13                     14                     15
                     A'                     A'                     A'
 Frequencies --   2664.6548              3106.5372              3173.1249
 Red. masses --      1.0380                 1.0860                 1.0907
 Frc consts  --      4.3426                 6.1747                 6.4704
 IR Inten    --      0.9622                13.2957                 3.1902

 - Thermochemistry -
 -------------------
 Temperature   298.150 Kelvin.  Pressure   1.00000 Atm.
 Atom     1 has atomic number 16 and mass  31.97207

 Molecular mass:    90.96762 amu.
 Principal axes and moments of inertia in atomic units:
                           1         2         3
     Eigenvalues --   152.18805 691.08460 843.27265
           X            0.83919  -0.54384   0.00000
           Y            0.54384   0.83919   0.00000
           Z           -0.00000   0.00000   1.00000
 This molecule is an asymmetric top.
 Rotational symmetry number  1.
 Rotational temperatures (Kelvin)      0.56912     0.12533     0.10271
 Rotational constants (GHZ):          11.85863     2.61146     2.14016
 Zero-point vibrational energy     110939.4 (Joules/Mol)
                                   26.51516 (Kcal/Mol)
 Warning -- explicit consideration of   4 degrees of freedom as
           vibrations may cause significant error
 Vibrational temperatures:    234.57   416.58   604.40   784.54   984.01
          (Kelvin)           1079.87  1285.83  1305.71  1446.20  1702.24
                             1944.47  2028.58  3833.84  4469.61  4565.41

 Zero-point correction=                           0.042255 (Hartree/Particle)
 Thermal correction to Energy=                    0.047016
 Thermal correction to Enthalpy=                  0.047960
 Thermal correction to Gibbs Free Energy=         0.013148
 Sum of electronic and zero-point Energies=           -874.403689
 Sum of electronic and thermal Energies=              -874.398928
 Sum of electronic and thermal Enthalpies=            -874.397984
 Sum of electronic and thermal Free Energies=         -874.432795

                     E (Thermal)             CV                S
                      KCal/Mol        Cal/Mol-Kelvin    Cal/Mol-Kelvin
 Total                   29.503             15.530             73.268
 Electronic               0.000              0.000              1.377
 Translational            0.889              2.981             39.436
 Rotational               0.889              2.981             25.987
 Vibrational             27.725              9.568              6.468
 Vibration     1          0.623              1.888              2.514
 Vibration     2          0.686              1.693              1.477
 Vibration     3          0.783              1.427              0.892
 Vibration     4          0.900              1.150              0.554

 Optimization completed.
    -- Stationary point found.
 Normal termination of Gaussian 09 at Wed Aug  3 22:52:40 2016.
