 Gaussian 09, Revision E.01,
 Gaussian 09:  EM64L-G09RevE.01 30-Nov-2015

 ------------------------------
 #p b3lyp/6-311++G(3df,2p) freq
 ------------------------------

 ---------
 b3lyp opt
 ---------
 Symbolic Z-matrix:
 Charge =  0 Multiplicity = 2

                         Standard orientation:
 ---------------------------------------------------------------------
 Center     Atomic      Atomic             Coordinates (Angstroms)
 Number     Number       Type             X           Y           Z
 ---------------------------------------------------------------------
      1         16           0        0.339882   -0.692593   -0.232173
      2         16           0       -1.584161    0.259946   -0.003658
      3          6           0        1.508790    0.742092   -0.308845
      4          6           0        1.546905    0.046211    0.966621
      5          1           0        0.983313    1.694523   -0.409897
      6          1           0        2.295404    0.597737   -1.049957
      7          1           0       -1.704422   -0.099725    1.286499
 ---------------------------------------------------------------------

 SCF Done:  E(UB3LYP) =  -874.325780479     A.U. after   19 cycles

 The electronic state is 2-A.
 Alpha  occ. eigenvalues --  -88.93232 -88.88726 -10.23380 -10.21411  -8.01295
 Alpha  occ. eigenvalues --   -7.97227  -5.97640  -5.97234  -5.96884  -5.93706
 Alpha  occ. eigenvalues --   -5.93268  -5.92615  -0.90080  -0.77187  -0.65456
 Alpha  occ. eigenvalues --   -0.58368  -0.49680  -0.43661  -0.42154  -0.37317
 Alpha  occ. eigenvalues --   -0.35050  -0.28470  -0.26126  -0.21700
 Alpha virt. eigenvalues --   -0.07755  -0.03252  -0.02354   0.00052   0.00611
 Alpha virt. eigenvalues --    0.02100   0.03458   0.04464   0.05257   0.06260
 Alpha virt. eigenvalues --    0.07244   0.07760   0.08725   0.09179   0.10339

  Beta  occ. eigenvalues --  -88.93233 -88.88604 -10.23470 -10.20336  -8.01280
  Beta  occ. eigenvalues --   -7.97114  -5.97627  -5.97249  -5.96888  -5.93401
  Beta  occ. eigenvalues --   -5.93131  -5.92541  -0.89087  -0.76391  -0.65057
  Beta  occ. eigenvalues --   -0.56640  -0.48441  -0.43259  -0.41535  -0.36465
  Beta  occ. eigenvalues --   -0.34389  -0.28132  -0.24846
  Beta virt. eigenvalues --   -0.11477  -0.04708  -0.03021  -0.02079   0.00244
  Beta virt. eigenvalues --    0.01061   0.02230   0.03573   0.04601   0.05353
  Beta virt. eigenvalues --    0.06338   0.07333   0.08021   0.08826   0.09294

 Mulliken charges and spin densities:
               1          2
     1  S    0.132511   0.035633
     2  S   -0.164020   0.166471
     3  C    0.100754  -0.072830
     4  C   -0.494798   0.766437
     5  H    0.127694   0.060905
     6  H    0.151436   0.048495
     7  H    0.146423  -0.005110
 Sum of Mulliken charges =  -0.00000   1.00000

 Dipole moment (field-independent basis, Debye):
    X=             -0.7845    Y=              0.6753    Z=             -1.8540  Tot=              2.1234
 Quadrupole moment (field-independent basis, Debye-Ang):
   XX=            -39.6932   YY=            -38.5373   ZZ=            -41.4768
   XY=              1.6393   XZ=             -7.2112   YZ=             -0.7318

  Exact polarizability:  99.682   0.811  58.583   4.562   0.433  59.663
 Approx polarizability: 179.768   4.820 102.690  17.993   4.388 103.284

                      1                      2                      3
                      A                      A                      A
 Frequencies --    121.0824               200.9903               239.6084
 Red. masses --      2.3138                 4.3846                 1.5232
 Frc consts  --      0.0200                 0.1044                 0.0515
 IR Inten    --      3.2703                 7.8256                12.7291

                      4                      5                      6
                      A                      A                      A
 Frequencies --    313.8759               494.2728               550.2299
 Red. masses --     14.5307                13.1865                 7.3422
 Frc consts  --      0.8434                 1.8981                 1.3097
 IR Inten    --     50.3921                 2.4989                10.7324

                      7                      8                      9
                      A                      A                      A
 Frequencies --    816.4024               841.5042               886.5979
 Red. masses --      1.0765                 1.0776                 1.2725
 Frc consts  --      0.4227                 0.4496                 0.5893
 IR Inten    --      0.7429                 8.1074                 0.5351

                     10                     11                     12
                      A                      A                      A
 Frequencies --   1021.2472              1124.6146              1436.8424
 Red. masses --      1.5569                 2.8761                 1.1134
 Frc consts  --      0.9567                 2.1432                 1.3543
 IR Inten    --     14.4618                 7.5072                 4.1258

                     13                     14                     15
                      A                      A                      A
 Frequencies --   2664.4794              3010.8224              3079.0306
 Red. masses --      1.0390                 1.0498                 1.1116
 Frc consts  --      4.3461                 5.6070                 6.2088
 IR Inten    --      1.9204                 6.0162                 4.9417

 - Thermochemistry -
 -------------------
 Temperature   298.150 Kelvin.  Pressure   1.00000 Atm.
 Atom     1 has atomic number 16 and mass  31.97207

 Molecular mass:    90.96762 amu.
 Principal axes and moments of inertia in atomic units:
                           1         2         3
     Eigenvalues --   157.49994 592.90594 631.74550
           X            0.99897   0.02008  -0.04058
           Y           -0.02576   0.98914  -0.14469
           Z            0.03724   0.14559   0.98864
 This molecule is an asymmetric top.
 Rotational symmetry number  1.
 Rotational temperatures (Kelvin)      0.54993     0.14608     0.13710
 Rotational constants (GHZ):          11.45868     3.04389     2.85675
 Zero-point vibrational energy     100495.9 (Joules/Mol)
                                   24.01909 (Kcal/Mol)
 Warning -- explicit consideration of   6 degrees of freedom as
           vibrations may cause significant error
 Vibrational temperatures:    174.21   289.18   344.74   451.60   711.15
          (Kelvin)            791.66  1174.62  1210.74  1275.62  1469.35
                             1618.07  2067.29  3833.59  4331.90  4430.03

 Zero-point correction=                           0.038277 (Hartree/Particle)
 Thermal correction to Energy=                    0.043947
 Thermal correction to Enthalpy=                  0.044891
 Thermal correction to Gibbs Free Energy=         0.008476
 Sum of electronic and zero-point Energies=           -874.287504
 Sum of electronic and thermal Energies=              -874.281834
 Sum of electronic and thermal Enthalpies=            -874.280890
 Sum of electronic and thermal Free Energies=         -874.317304

                     E (Thermal)             CV                S
                      KCal/Mol        Cal/Mol-Kelvin    Cal/Mol-Kelvin
 Total                   27.577             17.997             76.641
 Electronic               0.000              0.000              1.377
 Translational            0.889              2.981             39.436
 Rotational               0.889              2.981             25.581
 Vibrational             25.800             12.035             10.246
 Vibration     1          0.609              1.932              3.083
 Vibration     2          0.638              1.838              2.124
 Vibration     3          0.657              1.780              1.806
 Vibration     4          0.702              1.647              1.342
 Vibration     5          0.850              1.263              0.673
 Vibration     6          0.906              1.139              0.544

 Normal termination of Gaussian 09 at Wed Aug  3 20:25:26 2016.
