 Gaussian 09, Revision E.01,
 Gaussian 09:  EM64L-G09RevE.01 30-Nov-2015

 ------------------------------
 #p b3lyp/6-311++G(3df,2p) freq
 ------------------------------

 ---------
 b3lyp opt
 ---------
 Symbolic Z-matrix:
 Charge =  2 Multiplicity = 2

                         Standard orientation:
 ---------------------------------------------------------------------
 Center     Atomic      Atomic             Coordinates (Angstroms)
 Number     Number       Type             X           Y           Z
 ---------------------------------------------------------------------
      1         16           0        2.114445   -0.163624   -0.097054
      2         16           0       -2.097448   -0.209805   -0.003765
      3          6           0       -0.654475    0.707807    0.003793
      4          6           0        0.600547    0.268077    0.054836
      5          1           0       -1.557948   -1.460028    0.038690
      6          1           0       -0.805550    1.795062   -0.025412
      7          1           0        2.415121   -0.215482    1.248046
 ---------------------------------------------------------------------

 SCF Done:  E(UB3LYP) =  -873.605370997     A.U. after   17 cycles

 The electronic state is 2-A.
 Alpha  occ. eigenvalues --  -89.37310 -89.37167 -10.73472 -10.68948  -8.45458
 Alpha  occ. eigenvalues --   -8.45168  -6.41650  -6.41643  -6.41327  -6.41270
 Alpha  occ. eigenvalues --   -6.41265  -6.40803  -1.32198  -1.27108  -1.16634
 Alpha  occ. eigenvalues --   -1.00253  -0.94893  -0.89566  -0.86928  -0.81547
 Alpha  occ. eigenvalues --   -0.80076  -0.77599  -0.71443
 Alpha virt. eigenvalues --   -0.54624  -0.48662  -0.41039  -0.38930  -0.35694
 Alpha virt. eigenvalues --   -0.34300  -0.30357  -0.27185  -0.26607  -0.25636
 Alpha virt. eigenvalues --   -0.24316  -0.23075  -0.21847  -0.21294  -0.20111

  Beta  occ. eigenvalues --  -89.37328 -89.36708 -10.72736 -10.69146  -8.45467
  Beta  occ. eigenvalues --   -8.44747  -6.41676  -6.41395  -6.41235  -6.40995
  Beta  occ. eigenvalues --   -6.40550  -6.40236  -1.31155  -1.26237  -1.14898
  Beta  occ. eigenvalues --   -0.99592  -0.94293  -0.89183  -0.85222  -0.80558
  Beta  occ. eigenvalues --   -0.77432  -0.77040
  Beta virt. eigenvalues --   -0.61281  -0.53861  -0.46703  -0.40631  -0.38328
  Beta virt. eigenvalues --   -0.34780  -0.33536  -0.30161  -0.26639  -0.26486
  Beta virt. eigenvalues --   -0.25053  -0.24049  -0.22857  -0.21457  -0.20932

 Mulliken charges and spin densities:
               1          2
     1  S    0.185325  -0.015565
     2  S    0.400078   0.678751
     3  C    0.166742  -0.149713
     4  C    0.443060   0.444764
     5  H    0.242398  -0.015245
     6  H    0.277164  -0.000570
     7  H    0.285234   0.057577
 Sum of Mulliken charges =   2.00000   1.00000

 Dipole moment (field-independent basis, Debye):
    X=              0.8314    Y=             -0.4393    Z=              1.1231  Tot=              1.4648
 Quadrupole moment (field-independent basis, Debye-Ang):
   XX=              6.9637   YY=            -24.6334   ZZ=            -30.1048
   XY=              0.4237   XZ=              3.1256   YZ=             -0.4609

  Exact polarizability: 102.540  -0.094  41.816   2.665  -0.297  34.694
 Approx polarizability: 188.689  -4.991  71.837   3.427  -0.346  56.251

                      1                      2                      3
                      A                      A                      A
 Frequencies --    155.3562               234.4114               419.5162
 Red. masses --      7.7824                 2.3410                 1.3846
 Frc consts  --      0.1107                 0.0758                 0.1436
 IR Inten    --      0.4577                 4.5204                16.4720

                      4                      5                      6
                      A                      A                      A
 Frequencies --    440.7158               472.8787               700.5882
 Red. masses --      1.7267                 4.1170                 4.7293
 Frc consts  --      0.1976                 0.5424                 1.3676
 IR Inten    --     17.8768                19.2013                 9.8554

                      7                      8                      9
                      A                      A                      A
 Frequencies --    872.4923               881.5448               918.3348
 Red. masses --      1.2097                 4.6099                 1.1941
 Frc consts  --      0.5426                 2.1107                 0.5933
 IR Inten    --     39.5498                19.1087                15.7696

                     10                     11                     12
                      A                      A                      A
 Frequencies --    981.0057              1258.4926              1614.4129
 Red. masses --      1.2101                 1.2329                 9.9053
 Frc consts  --      0.6861                 1.1505                15.2107
 IR Inten    --     17.0004                 2.2535               243.9325

                     13                     14                     15
                      A                      A                      A
 Frequencies --   2416.2597              2563.5966              3030.1782
 Red. masses --      1.0407                 1.0398                 1.0861
 Frc consts  --      3.5800                 4.0262                 5.8758
 IR Inten    --    205.7966                62.1982               178.5399

 - Thermochemistry -
 -------------------
 Temperature   298.150 Kelvin.  Pressure   1.00000 Atm.
 Atom     1 has atomic number 16 and mass  31.97207

 Molecular mass:    90.96762 amu.
 Principal axes and moments of inertia in atomic units:
                           1         2         3
     Eigenvalues --    58.720951085.342251130.82586
           X            0.99995   0.00136   0.00978
           Y           -0.00109   0.99959  -0.02852
           Z           -0.00982   0.02851   0.99955
 This molecule is an asymmetric top.
 Rotational symmetry number  1.
 Rotational temperatures (Kelvin)      1.47501     0.07980     0.07659
 Rotational constants (GHZ):          30.73419     1.66283     1.59595
 Zero-point vibrational energy     101442.0 (Joules/Mol)
                                   24.24523 (Kcal/Mol)
 Warning -- explicit consideration of   5 degrees of freedom as
           vibrations may cause significant error
 Vibrational temperatures:    223.52   337.27   603.59   634.09   680.37
          (Kelvin)           1007.99  1255.32  1268.34  1321.28  1411.45
                             1810.69  2322.78  3476.45  3688.44  4359.75

 Zero-point correction=                           0.038637 (Hartree/Particle)
 Thermal correction to Energy=                    0.043757
 Thermal correction to Enthalpy=                  0.044701
 Thermal correction to Gibbs Free Energy=         0.009364
 Sum of electronic and zero-point Energies=           -873.566734
 Sum of electronic and thermal Energies=              -873.561614
 Sum of electronic and thermal Enthalpies=            -873.560670
 Sum of electronic and thermal Free Energies=         -873.596007

                     E (Thermal)             CV                S
                      KCal/Mol        Cal/Mol-Kelvin    Cal/Mol-Kelvin
 Total                   27.458             16.756             74.374
 Electronic               0.000              0.000              1.377
 Translational            0.889              2.981             39.436
 Rotational               0.889              2.981             25.780
 Vibrational             25.680             10.794              7.780
 Vibration     1          0.620              1.897              2.606
 Vibration     2          0.654              1.788              1.845
 Vibration     3          0.782              1.428              0.894
 Vibration     4          0.801              1.381              0.824
 Vibration     5          0.830              1.310              0.730

 Optimization completed.
    -- Stationary point found.
 Normal termination of Gaussian 09 at Wed Aug  3 20:58:38 2016.
