 Gaussian 09, Revision E.01,
 Gaussian 09:  EM64L-G09RevE.01 30-Nov-2015

 ------------------------------
 #p b3lyp/6-311++G(3df,2p) freq
 ------------------------------

 ---------
 b3lyp opt
 ---------
 Symbolic Z-matrix:
 Charge =  1 Multiplicity = 1

                         Standard orientation:
 ---------------------------------------------------------------------
 Center     Atomic      Atomic             Coordinates (Angstroms)
 Number     Number       Type             X           Y           Z
 ---------------------------------------------------------------------
      1         16           0        1.555020    0.370363   -0.000000
      2         16           0       -1.378698   -0.173701    0.000000
      3          6           0       -0.000000    0.909077    0.000000
      4          6           0       -0.565633   -1.625464   -0.000000
      5          1           0       -0.218129    1.973473    0.000000
      6          1           0       -1.307366   -2.433790    0.000000
      7          1           0        2.098127    1.612056   -0.000000
 ---------------------------------------------------------------------

 SCF Done:  E(RB3LYP) =  -874.064229364     A.U. after   14 cycles

 The electronic state is 1-A'.
 Alpha  occ. eigenvalues --  -89.14342 -89.12436 -10.50863 -10.42995  -8.22696
 Alpha  occ. eigenvalues --   -8.20744  -6.18881  -6.18562  -6.18484  -6.16984
 Alpha  occ. eigenvalues --   -6.16616  -6.16491  -1.10409  -1.02429  -0.88663
 Alpha  occ. eigenvalues --   -0.77569  -0.73878  -0.64174  -0.60852  -0.60738
 Alpha  occ. eigenvalues --   -0.59477  -0.52545  -0.44568
 Alpha virt. eigenvalues --   -0.35793  -0.27368  -0.21443  -0.20063  -0.15268
 Alpha virt. eigenvalues --   -0.13703  -0.13519  -0.11454  -0.10295  -0.10096
 Alpha virt. eigenvalues --   -0.07208  -0.06932  -0.06821  -0.05964  -0.05531

 Mulliken charges:
               1
     1  S    0.149124
     2  S    0.036146
     3  C    0.299472
     4  C   -0.202885
     5  H    0.234769
     6  H    0.252561
     7  H    0.230813
 Sum of Mulliken charges =   1.00000

 Dipole moment (field-independent basis, Debye):
    X=              0.6695    Y=              2.5216    Z=             -0.0000  Tot=              2.6090
 Quadrupole moment (field-independent basis, Debye-Ang):
   XX=            -22.8076   YY=            -25.3265   ZZ=            -35.4865
   XY=              7.7017   XZ=             -0.0000   YZ=              0.0000

  Exact polarizability:  76.207  11.160  67.122  -0.000  -0.000  36.912
 Approx polarizability: 144.061   9.883 122.342  -0.000   0.000  62.601

                      1                      2                      3
                     A"                     A'                     A'
 Frequencies --    163.2539               210.9763               449.0733
 Red. masses --      3.9177                 6.1033                 8.2532
 Frc consts  --      0.0615                 0.1601                 0.9806
 IR Inten    --      0.4798                 8.1660                15.8546

                      4                      5                      6
                     A"                     A'                     A"
 Frequencies --    563.4901               621.0580               652.2664
 Red. masses --      1.1910                 4.8500                 1.0882
 Frc consts  --      0.2228                 1.1022                 0.2728
 IR Inten    --     43.8702                57.8473                29.5181

                      7                      8                      9
                     A'                     A"                     A'
 Frequencies --    826.9603               950.8520               990.3428
 Red. masses --      6.2628                 1.2860                 1.6452
 Frc consts  --      2.5234                 0.6851                 0.9507
 IR Inten    --      7.4235                 3.8022                62.1193

                     10                     11                     12
                     A'                     A'                     A'
 Frequencies --   1013.2208              1034.1670              1287.0156
 Red. masses --      1.8649                 1.1782                 1.4627
 Frc consts  --      1.1280                 0.7424                 1.4275
 IR Inten    --     61.7518                 2.4077                16.7412

                     13                     14                     15
                     A'                     A'                     A'
 Frequencies --   2600.7599              3071.9116              3156.6277
 Red. masses --      1.0381                 1.0854                 1.0910
 Frc consts  --      4.1372                 6.0345                 6.4050
 IR Inten    --     22.1047                 6.6130                23.1490

 - Thermochemistry -
 -------------------
 Temperature   298.150 Kelvin.  Pressure   1.00000 Atm.
 Atom     1 has atomic number 16 and mass  31.97207

 Molecular mass:    90.96762 amu.
 Principal axes and moments of inertia in atomic units:
                           1         2         3
     Eigenvalues --   149.44566 591.90381 741.34946
           X            0.92616  -0.37714   0.00000
           Y            0.37714   0.92616   0.00000
           Z           -0.00000   0.00000   1.00000
 This molecule is an asymmetric top.
 Rotational symmetry number  1.
 Rotational temperatures (Kelvin)      0.57957     0.14633     0.11683
 Rotational constants (GHZ):          12.07624     3.04904     2.43440
 Zero-point vibrational energy     105223.4 (Joules/Mol)
                                   25.14899 (Kcal/Mol)
 Warning -- explicit consideration of   4 degrees of freedom as
           vibrations may cause significant error
 Vibrational temperatures:    234.89   303.55   646.12   810.74   893.56
          (Kelvin)            938.46  1189.81  1368.06  1424.88  1457.80
                             1487.93  1851.73  3741.91  4419.79  4541.68

 Zero-point correction=                           0.040077 (Hartree/Particle)
 Thermal correction to Energy=                    0.045035
 Thermal correction to Enthalpy=                  0.045979
 Thermal correction to Gibbs Free Energy=         0.011597
 Sum of electronic and zero-point Energies=           -874.024152
 Sum of electronic and thermal Energies=              -874.019194
 Sum of electronic and thermal Enthalpies=            -874.018250
 Sum of electronic and thermal Free Energies=         -874.052633

                     E (Thermal)             CV                S
                      KCal/Mol        Cal/Mol-Kelvin    Cal/Mol-Kelvin
 Total                   28.260             16.347             72.364
 Electronic               0.000              0.000              0.000
 Translational            0.889              2.981             39.436
 Rotational               0.889              2.981             25.687
 Vibrational             26.483             10.385              7.242
 Vibration     1          0.623              1.888              2.512
 Vibration     2          0.643              1.824              2.035
 Vibration     3          0.808              1.363              0.799
 Vibration     4          0.919              1.110              0.517

 Optimization completed.
    -- Stationary point found.
 Normal termination of Gaussian 09 at Wed Aug  3 22:56:52 2016.
