 Gaussian 09, Revision E.01,
 Gaussian 09:  EM64L-G09RevE.01 30-Nov-2015

 ------------------------------
 #p b3lyp/6-311++G(3df,2p) freq
 ------------------------------

 ---------
 b3lyp opt
 ---------
 Symbolic Z-matrix:
 Charge =  1 Multiplicity = 1

                         Standard orientation:
 ---------------------------------------------------------------------
 Center     Atomic      Atomic             Coordinates (Angstroms)
 Number     Number       Type             X           Y           Z
 ---------------------------------------------------------------------
      1         16           0       -0.284214    0.704405   -0.007618
      2         16           0        1.526446   -0.358515    0.002193
      3          6           0       -1.528974   -0.410137   -0.638572
      4          6           0       -1.531172   -0.394540    0.647538
      5          1           0       -1.872467   -0.766655   -1.596939
      6          1           0       -1.876060   -0.730333    1.612847
      7          1           0        2.233688    0.790811    0.017093
 ---------------------------------------------------------------------

 SCF Done:  E(RB3LYP) =  -874.123027291     A.U. after   12 cycles

 The electronic state is 1-A.
 Alpha  occ. eigenvalues --  -89.17480 -89.08088 -10.47010 -10.46894  -8.25263
 Alpha  occ. eigenvalues --   -8.16589  -6.21552  -6.21126  -6.21052  -6.13011
 Alpha  occ. eigenvalues --   -6.12585  -6.11974  -1.16276  -0.98586  -0.86023
 Alpha  occ. eigenvalues --   -0.82324  -0.74964  -0.67084  -0.63637  -0.60121
 Alpha  occ. eigenvalues --   -0.58412  -0.51590  -0.46868
 Alpha virt. eigenvalues --   -0.26193  -0.25662  -0.24564  -0.20848  -0.17599
 Alpha virt. eigenvalues --   -0.13026  -0.12350  -0.11905  -0.10373  -0.08687
 Alpha virt. eigenvalues --   -0.07966  -0.07248  -0.06566  -0.05357  -0.05124

 Mulliken charges:
               1
     1  S    0.513434
     2  S   -0.112116
     3  C   -0.138895
     4  C   -0.130343
     5  H    0.327485
     6  H    0.327253
     7  H    0.213182
 Sum of Mulliken charges =   1.00000

 Dipole moment (field-independent basis, Debye):
    X=             -2.1942    Y=             -0.0911    Z=              0.0206  Tot=              2.1962
 Quadrupole moment (field-independent basis, Debye-Ang):
   XX=            -20.2814   YY=            -32.4184   ZZ=            -30.4373
   XY=              4.3233   XZ=              0.0142   YZ=              0.0795

  Exact polarizability:  77.151   2.545  45.401  -0.014   0.039  46.603
 Approx polarizability: 136.377   2.671  82.298  -0.045   0.133  82.135

                      1                      2                      3
                      A                      A                      A
 Frequencies --     77.5885               224.2710               285.3624
 Red. masses --      1.1249                 6.0220                 2.8353
 Frc consts  --      0.0040                 0.1785                 0.1360
 IR Inten    --     25.2000                 6.8285                 0.7761

                      4                      5                      6
                      A                      A                      A
 Frequencies --    462.0708               660.7273               685.2247
 Red. masses --     13.2784                 5.2598                 8.0879
 Frc consts  --      1.6704                 1.3529                 2.2374
 IR Inten    --     12.2568                 4.0829                 0.4893

                      7                      8                      9
                      A                      A                      A
 Frequencies --    711.2549               839.4581               879.7901
 Red. masses --      1.2165                 1.4279                 1.0913
 Frc consts  --      0.3626                 0.5928                 0.4977
 IR Inten    --     97.2214                 1.5712                 6.6541

                     10                     11                     12
                      A                      A                      A
 Frequencies --    943.8007               982.2308              1695.4359
 Red. masses --      1.0820                 1.2929                 5.0562
 Frc consts  --      0.5679                 0.7349                 8.5632
 IR Inten    --      3.5844                35.3529                 0.5988

                     13                     14                     15
                      A                      A                      A
 Frequencies --   2640.9391              3232.3616              3284.1171
 Red. masses --      1.0388                 1.0867                 1.1544
 Frc consts  --      4.2689                 6.6896                 7.3359
 IR Inten    --     38.4547               116.6832                60.9438

 - Thermochemistry -
 -------------------
 Temperature   298.150 Kelvin.  Pressure   1.00000 Atm.
 Atom     1 has atomic number 16 and mass  31.97207

 Molecular mass:    90.96762 amu.
 Principal axes and moments of inertia in atomic units:
                           1         2         3
     Eigenvalues --   144.85382 573.65853 610.53253
           X            0.99929   0.03772   0.00022
           Y           -0.03772   0.99927   0.00572
           Z            0.00000  -0.00572   0.99998
 This molecule is an asymmetric top.
 Rotational symmetry number  1.
 Rotational temperatures (Kelvin)      0.59794     0.15098     0.14187
 Rotational constants (GHZ):          12.45905     3.14602     2.95601
 Zero-point vibrational energy     105299.1 (Joules/Mol)
                                   25.16709 (Kcal/Mol)
 Warning -- explicit consideration of   4 degrees of freedom as
           vibrations may cause significant error
 Vibrational temperatures:    111.63   322.68   410.57   664.82   950.64
          (Kelvin)            985.88  1023.34  1207.79  1265.82  1357.92
                             1413.21  2439.35  3799.72  4650.64  4725.11

 Zero-point correction=                           0.040106 (Hartree/Particle)
 Thermal correction to Energy=                    0.045503
 Thermal correction to Enthalpy=                  0.046447
 Thermal correction to Gibbs Free Energy=         0.011036
 Sum of electronic and zero-point Energies=           -874.082921
 Sum of electronic and thermal Energies=              -874.077524
 Sum of electronic and thermal Enthalpies=            -874.076580
 Sum of electronic and thermal Free Energies=         -874.111991

                     E (Thermal)             CV                S
                      KCal/Mol        Cal/Mol-Kelvin    Cal/Mol-Kelvin
 Total                   28.554             17.331             74.529
 Electronic               0.000              0.000              0.000
 Translational            0.889              2.981             39.436
 Rotational               0.889              2.981             25.432
 Vibrational             26.776             11.370              9.662
 Vibration     1          0.599              1.964              3.951
 Vibration     2          0.649              1.804              1.924
 Vibration     3          0.683              1.701              1.501
 Vibration     4          0.820              1.334              0.760

 Normal termination of Gaussian 09 at Wed Aug  3 20:32:19 2016.
