 Gaussian 09, Revision E.01,
 Gaussian 09:  EM64L-G09RevE.01 30-Nov-2015

 ------------------------------
 #p b3lyp/6-311++G(3df,2p) freq
 ------------------------------

 ---------
 b3lyp opt
 ---------
 Symbolic Z-matrix:
 Charge =  1 Multiplicity = 1

                         Standard orientation:
 ---------------------------------------------------------------------
 Center     Atomic      Atomic             Coordinates (Angstroms)
 Number     Number       Type             X           Y           Z
 ---------------------------------------------------------------------
      1         16           0        1.380749   -0.370038   -0.000375
      2         16           0       -1.471969   -0.219942   -0.005661
      3          6           0        0.002307    0.669640    0.590430
      4          6           0        0.016375    0.836875   -0.833272
      5          1           0       -0.997718   -1.485654    0.075543
      6          1           0        0.019185    1.285852    1.479971
      7          1           0        2.325952    0.600388   -0.001875
 ---------------------------------------------------------------------

 SCF Done:  E(RB3LYP) =  -874.042958437     A.U. after   13 cycles

 The electronic state is 1-A.
 Alpha  occ. eigenvalues --  -89.14813 -89.14589 -10.49269 -10.47926  -8.23100
 Alpha  occ. eigenvalues --   -8.22850  -6.19444  -6.19214  -6.18954  -6.18740
 Alpha  occ. eigenvalues --   -6.18692  -6.18488  -1.16693  -1.00322  -0.89548
 Alpha  occ. eigenvalues --   -0.81281  -0.72652  -0.68636  -0.61693  -0.59815
 Alpha  occ. eigenvalues --   -0.55923  -0.55120  -0.48348
 Alpha virt. eigenvalues --   -0.28389  -0.26477  -0.24348  -0.21811  -0.19806
 Alpha virt. eigenvalues --   -0.17654  -0.13586  -0.11249  -0.10583  -0.09686
 Alpha virt. eigenvalues --   -0.08083  -0.07196  -0.07037  -0.06652  -0.05926

 Mulliken charges:
               1
     1  S    0.073834
     2  S    0.093684
     3  C    0.472085
     4  C   -0.368179
     5  H    0.191489
     6  H    0.304783
     7  H    0.232304
 Sum of Mulliken charges =   1.00000

 Dipole moment (field-independent basis, Debye):
    X=              1.0279    Y=             -0.4993    Z=              2.1726  Tot=              2.4548
 Quadrupole moment (field-independent basis, Debye-Ang):
   XX=            -21.6301   YY=            -30.8247   ZZ=            -36.1517
   XY=              2.6702   XZ=              0.0336   YZ=              3.2608

  Exact polarizability:  71.937   1.823  51.032   0.089  -2.488  43.776
 Approx polarizability: 133.457   2.643 104.014   0.434  -9.747  77.937

                      1                      2                      3
                      A                      A                      A
 Frequencies --    271.7486               358.7573               398.4236
 Red. masses --      8.5990                 3.0304                 3.7761
 Frc consts  --      0.3741                 0.2298                 0.3532
 IR Inten    --      2.9279                 4.9656                13.0130

                      4                      5                      6
                      A                      A                      A
 Frequencies --    516.6639               561.0047               681.9952
 Red. masses --      2.7836                 1.6836                 1.7750
 Frc consts  --      0.4378                 0.3122                 0.4864
 IR Inten    --      4.1370                15.0896                 7.9558

                      7                      8                      9
                      A                      A                      A
 Frequencies --    716.1856               928.6785               933.6277
 Red. masses --      4.9845                 1.1150                 1.0960
 Frc consts  --      1.5063                 0.5666                 0.5629
 IR Inten    --      7.6675                 9.4982                13.1826

                     10                     11                     12
                      A                      A                      A
 Frequencies --    998.0061              1053.2106              1176.9324
 Red. masses --      1.1829                 1.1257                 6.4158
 Frc consts  --      0.6942                 0.7357                 5.2361
 IR Inten    --      6.6614                 1.8152                17.9696

                     13                     14                     15
                      A                      A                      A
 Frequencies --   2597.1688              2605.7792              3192.0103
 Red. masses --      1.0396                 1.0391                 1.0967
 Frc consts  --      4.1318                 4.1571                 6.5834
 IR Inten    --     13.0416                49.9097                57.0451

 - Thermochemistry -
 -------------------
 Temperature   298.150 Kelvin.  Pressure   1.00000 Atm.
 Atom     1 has atomic number 16 and mass  31.97207

 Molecular mass:    90.96762 amu.
 Principal axes and moments of inertia in atomic units:
                           1         2         3
     Eigenvalues --   137.81518 539.62735 574.80814
           X            0.99967   0.02522   0.00411
           Y           -0.02555   0.98262   0.18386
           Z            0.00060  -0.18390   0.98294
 This molecule is an asymmetric top.
 Rotational symmetry number  1.
 Rotational temperatures (Kelvin)      0.62848     0.16051     0.15068
 Rotational constants (GHZ):          13.09537     3.34442     3.13973
 Zero-point vibrational energy     101623.9 (Joules/Mol)
                                   24.28870 (Kcal/Mol)
 Warning -- explicit consideration of   5 degrees of freedom as
           vibrations may cause significant error
 Vibrational temperatures:    390.99   516.17   573.24   743.36   807.16
          (Kelvin)            981.24  1030.43  1336.16  1343.28  1435.91
                             1515.33  1693.34  3736.74  3749.13  4592.59

 Zero-point correction=                           0.038707 (Hartree/Particle)
 Thermal correction to Energy=                    0.043461
 Thermal correction to Enthalpy=                  0.044405
 Thermal correction to Gibbs Free Energy=         0.010863
 Sum of electronic and zero-point Energies=           -874.004252
 Sum of electronic and thermal Energies=              -873.999497
 Sum of electronic and thermal Enthalpies=            -873.998553
 Sum of electronic and thermal Free Energies=         -874.032095

                     E (Thermal)             CV                S
                      KCal/Mol        Cal/Mol-Kelvin    Cal/Mol-Kelvin
 Total                   27.272             16.551             70.595
 Electronic               0.000              0.000              0.000
 Translational            0.889              2.981             39.436
 Rotational               0.889              2.981             25.261
 Vibrational             25.495             10.590              5.898
 Vibration     1          0.675              1.725              1.585
 Vibration     2          0.734              1.557              1.127
 Vibration     3          0.765              1.474              0.968
 Vibration     4          0.872              1.213              0.618
 Vibration     5          0.917              1.116              0.522

 Optimization completed.
    -- Stationary point found.
 Normal termination of Gaussian 09 at Wed Aug  3 20:32:30 2016.
