 Gaussian 09, Revision E.01,
 Gaussian 09:  EM64L-G09RevE.01 30-Nov-2015

 ------------------------------
 #p b3lyp/6-311++G(3df,2p) freq
 ------------------------------

 ---------
 b3lyp opt
 ---------
 Symbolic Z-matrix:
 Charge =  1 Multiplicity = 1

                         Standard orientation:
 ---------------------------------------------------------------------
 Center     Atomic      Atomic             Coordinates (Angstroms)
 Number     Number       Type             X           Y           Z
 ---------------------------------------------------------------------
      1         16           0        1.097333   -0.564168    0.004993
      2         16           0       -1.037173   -0.525363   -0.093323
      3          6           0        0.689917    1.159988    0.011401
      4          6           0       -0.641158    1.220798    0.024403
      5          1           0        1.428143    1.949580   -0.008140
      6          1           0       -1.375375    2.009073   -0.001144
      7          1           0       -1.307892   -0.810861    1.207750
 ---------------------------------------------------------------------

 SCF Done:  E(RB3LYP) =  -874.137625200     A.U. after   14 cycles

 The electronic state is 1-A.
 Alpha  occ. eigenvalues --  -89.18026 -89.11828 -10.44439 -10.43354  -8.26132
 Alpha  occ. eigenvalues --   -8.20063  -6.22311  -6.22197  -6.21794  -6.16612
 Alpha  occ. eigenvalues --   -6.16058  -6.15364  -1.13483  -0.97139  -0.92891
 Alpha  occ. eigenvalues --   -0.77941  -0.72949  -0.68741  -0.67152  -0.59307
 Alpha  occ. eigenvalues --   -0.57502  -0.54356  -0.46466
 Alpha virt. eigenvalues --   -0.31807  -0.25589  -0.24135  -0.20675  -0.13953
 Alpha virt. eigenvalues --   -0.13088  -0.11850  -0.10759  -0.09516  -0.08995
 Alpha virt. eigenvalues --   -0.08401  -0.06906  -0.06002  -0.05281  -0.05114

 Mulliken charges:
               1
     1  S   -0.036633
     2  S    0.462414
     3  C    0.100227
     4  C   -0.190380
     5  H    0.226833
     6  H    0.247706
     7  H    0.189834
 Sum of Mulliken charges =   1.00000

 Dipole moment (field-independent basis, Debye):
    X=             -1.4777    Y=              0.7633    Z=              0.9073  Tot=              1.8946
 Quadrupole moment (field-independent basis, Debye-Ang):
   XX=            -24.6218   YY=            -26.4832   ZZ=            -35.3909
   XY=              1.8872   XZ=             -1.5716   YZ=             -1.1695

  Exact polarizability:  64.102  -0.768  55.842  -1.349  -1.090  38.341
 Approx polarizability: 130.943  -2.817  97.071  -1.925  -1.946  62.925

                      1                      2                      3
                      A                      A                      A
 Frequencies --    347.1072               455.3631               528.1372
 Red. masses --      2.9133                23.5958                11.1618
 Frc consts  --      0.2068                 2.8827                 1.8343
 IR Inten    --      4.8275                 0.9237                 0.2903

                      4                      5                      6
                      A                      A                      A
 Frequencies --    674.2104               711.8098               752.9726
 Red. masses --      1.1618                 1.8130                 2.0173
 Frc consts  --      0.3112                 0.5412                 0.6739
 IR Inten    --     55.8904                16.3202                 4.3349

                      7                      8                      9
                      A                      A                      A
 Frequencies --    800.6528               857.0473               939.7354
 Red. masses --      3.2836                 1.3057                 1.2113
 Frc consts  --      1.2402                 0.5651                 0.6303
 IR Inten    --      4.6544                11.6184                11.4790

                     10                     11                     12
                      A                      A                      A
 Frequencies --   1087.1327              1232.1342              1584.3935
 Red. masses --      1.0649                 1.3329                 6.0173
 Frc consts  --      0.7415                 1.1922                 8.8998
 IR Inten    --      1.4337                13.7630                 6.8847

                     13                     14                     15
                      A                      A                      A
 Frequencies --   2564.0278              3211.5391              3252.5992
 Red. masses --      1.0392                 1.0927                 1.1075
 Frc consts  --      4.0251                 6.6402                 6.9036
 IR Inten    --     39.4733                26.9661                40.3005

 - Thermochemistry -
 -------------------
 Temperature   298.150 Kelvin.  Pressure   1.00000 Atm.
 Atom     1 has atomic number 16 and mass  31.97207

 Molecular mass:    90.96762 amu.
 Principal axes and moments of inertia in atomic units:
                           1         2         3
     Eigenvalues --   225.56536 324.85885 538.29636
           X            0.99918   0.03609  -0.01836
           Y           -0.03639   0.99921  -0.01617
           Z            0.01776   0.01682   0.99970
 This molecule is an asymmetric top.
 Rotational symmetry number  1.
 Rotational temperatures (Kelvin)      0.38399     0.26662     0.16090
 Rotational constants (GHZ):           8.00097     5.55546     3.35269
 Zero-point vibrational energy     113638.4 (Joules/Mol)
                                   27.16024 (Kcal/Mol)
 Warning -- explicit consideration of   3 degrees of freedom as
           vibrations may cause significant error
 Vibrational temperatures:    499.41   655.17   759.87   970.04  1024.13
          (Kelvin)           1083.36  1151.96  1233.10  1352.07  1564.14
                             1772.76  2279.59  3689.06  4620.68  4679.76

 Zero-point correction=                           0.043283 (Hartree/Particle)
 Thermal correction to Energy=                    0.047500
 Thermal correction to Enthalpy=                  0.048444
 Thermal correction to Gibbs Free Energy=         0.015827
 Sum of electronic and zero-point Energies=           -874.094343
 Sum of electronic and thermal Energies=              -874.090125
 Sum of electronic and thermal Enthalpies=            -874.089181
 Sum of electronic and thermal Free Energies=         -874.121798

                     E (Thermal)             CV                S
                      KCal/Mol        Cal/Mol-Kelvin    Cal/Mol-Kelvin
 Total                   29.807             14.689             68.649
 Electronic               0.000              0.000              0.000
 Translational            0.889              2.981             39.436
 Rotational               0.889              2.981             25.181
 Vibrational             28.029              8.727              4.032
 Vibration     1          0.725              1.581              1.179
 Vibration     2          0.814              1.349              0.780
 Vibration     3          0.883              1.188              0.591

 Optimization completed.
    -- Stationary point found.
 Normal termination of Gaussian 09 at Wed Aug  3 20:40:15 2016.
