 Gaussian 09, Revision E.01,
 Gaussian 09:  EM64L-G09RevE.01 30-Nov-2015

 ------------------------------
 #p b3lyp/6-311++G(3df,2p) freq
 ------------------------------

 ---------
 b3lyp opt
 ---------
 Symbolic Z-matrix:
 Charge =  2 Multiplicity = 2

                         Standard orientation:
 ---------------------------------------------------------------------
 Center     Atomic      Atomic             Coordinates (Angstroms)
 Number     Number       Type             X           Y           Z
 ---------------------------------------------------------------------
      1         16           0        2.201215   -0.196177   -0.000028
      2         16           0       -1.932106   -0.344113   -0.000196
      3          6           0       -0.496676    0.765716    0.000066
      4          6           0        0.765058    0.274190    0.000053
      5          1           0       -2.622951    0.279348    1.000920
      6          1           0       -0.668249    1.843752    0.000257
      7          1           0       -2.624839    0.282113   -0.998310
 ---------------------------------------------------------------------

 SCF Done:  E(UB3LYP) =  -873.622622359     A.U. after   17 cycles

 The electronic state is 2-A.
 Alpha  occ. eigenvalues --  -89.37704 -89.35751 -10.70118 -10.70044  -8.45899
 Alpha  occ. eigenvalues --   -8.43816  -6.42117  -6.41931  -6.41509  -6.40209
 Alpha  occ. eigenvalues --   -6.39734  -6.39684  -1.30859  -1.26459  -1.17034
 Alpha  occ. eigenvalues --   -0.96814  -0.92438  -0.91488  -0.88317  -0.81740
 Alpha  occ. eigenvalues --   -0.79866  -0.76568  -0.70776
 Alpha virt. eigenvalues --   -0.52139  -0.46100  -0.43114  -0.40938  -0.36314
 Alpha virt. eigenvalues --   -0.31267  -0.29796  -0.28619  -0.26312  -0.25439
 Alpha virt. eigenvalues --   -0.25096  -0.21581  -0.21390  -0.20741  -0.20010

  Beta  occ. eigenvalues --  -89.37733 -89.35349 -10.70431 -10.69103  -8.45921
  Beta  occ. eigenvalues --   -8.43451  -6.42175  -6.41952  -6.41536  -6.39469
  Beta  occ. eigenvalues --   -6.39411  -6.39045  -1.29844  -1.25705  -1.15389
  Beta  occ. eigenvalues --   -0.95893  -0.91937  -0.90756  -0.87260  -0.79786
  Beta  occ. eigenvalues --   -0.78928  -0.76132
  Beta virt. eigenvalues --   -0.59685  -0.52035  -0.43943  -0.42598  -0.39957
  Beta virt. eigenvalues --   -0.35819  -0.30594  -0.29653  -0.28403  -0.26221
  Beta virt. eigenvalues --   -0.25229  -0.24932  -0.21129  -0.20742  -0.20601

 Mulliken charges and spin densities:
               1          2
     1  S    0.378590   0.599738
     2  S    0.233308  -0.024376
     3  C    0.006970   0.609170
     4  C    0.533653  -0.207706
     5  H    0.283935   0.020427
     6  H    0.279586  -0.017571
     7  H    0.283959   0.020318
 Sum of Mulliken charges =   2.00000   1.00000

 Dipole moment (field-independent basis, Debye):
    X=             -3.2026    Y=              1.4103    Z=              0.0024  Tot=              3.4994
 Quadrupole moment (field-independent basis, Debye-Ang):
   XX=             13.2227   YY=            -27.3101   ZZ=            -29.1329
   XY=             -3.0684   XZ=             -0.0045   YZ=             -0.0030

  Exact polarizability:  89.713  -6.801  39.032  -0.005  -0.002  35.042
 Approx polarizability: 159.897 -22.830  66.134  -0.007  -0.004  56.972

                      1                      2                      3
                      A                      A                      A
 Frequencies --     25.7927               151.9842               335.3375
 Red. masses --      1.0965                10.7918                 4.0610
 Frc consts  --      0.0004                 0.1469                 0.2691
 IR Inten    --     24.0819                 1.2289                 8.5259

                      4                      5                      6
                      A                      A                      A
 Frequencies --    441.6874               644.7591               682.5361
 Red. masses --     12.7435                 1.4415                 3.1862
 Frc consts  --      1.4648                 0.3531                 0.8745
 IR Inten    --      6.9965                11.2267                 0.4571

                      7                      8                      9
                      A                      A                      A
 Frequencies --    842.2771               901.0726               965.7260
 Red. masses --      1.8341                 1.1568                 2.3301
 Frc consts  --      0.7666                 0.5534                 1.2804
 IR Inten    --      5.3321                16.7398                 4.8839

                     10                     11                     12
                      A                      A                      A
 Frequencies --   1158.2169              1230.6235              1529.8418
 Red. masses --      1.0379                 1.2885                11.1053
 Frc consts  --      0.8203                 1.1497                15.3134
 IR Inten    --      5.9481                 5.5173                 0.8213

                     13                     14                     15
                      A                      A                      A
 Frequencies --   2513.1505              2514.1966              3097.0534
 Red. masses --      1.0349                 1.0415                 1.0886
 Frc consts  --      3.8512                 3.8787                 6.1520
 IR Inten    --    214.2583               130.9471               135.2319

 - Thermochemistry -
 -------------------
 Temperature   298.150 Kelvin.  Pressure   1.00000 Atm.
 Atom     1 has atomic number 16 and mass  31.97207

 Molecular mass:    90.96762 amu.
 Principal axes and moments of inertia in atomic units:
                           1         2         3
     Eigenvalues --    65.933051072.193691123.74176
           X            0.99995  -0.01005  -0.00002
           Y            0.01005   0.99995  -0.00010
           Z            0.00002   0.00010   1.00000
 This molecule is an asymmetric top.
 Rotational symmetry number  1.
 Rotational temperatures (Kelvin)      1.31366     0.08078     0.07708
 Rotational constants (GHZ):          27.37233     1.68322     1.60601
 Zero-point vibrational energy     101887.5 (Joules/Mol)
                                   24.35169 (Kcal/Mol)
 Warning -- explicit consideration of   4 degrees of freedom as
           vibrations may cause significant error
 Vibrational temperatures:     37.11   218.67   482.48   635.49   927.66
          (Kelvin)            982.02  1211.85  1296.44  1389.46  1666.41
                             1770.59  2201.10  3615.86  3617.36  4455.96

 Zero-point correction=                           0.038807 (Hartree/Particle)
 Thermal correction to Energy=                    0.044274
 Thermal correction to Enthalpy=                  0.045218
 Thermal correction to Gibbs Free Energy=         0.007803
 Sum of electronic and zero-point Energies=           -873.583815
 Sum of electronic and thermal Energies=              -873.578349
 Sum of electronic and thermal Enthalpies=            -873.577405
 Sum of electronic and thermal Free Energies=         -873.614820

                     E (Thermal)             CV                S
                      KCal/Mol        Cal/Mol-Kelvin    Cal/Mol-Kelvin
 Total                   27.782             16.621             78.747
 Electronic               0.000              0.000              1.377
 Translational            0.889              2.981             39.436
 Rotational               0.889              2.981             25.877
 Vibrational             26.005             10.660             12.056
 Vibration     1          0.593              1.985              6.129
 Vibration     2          0.619              1.900              2.647
 Vibration     3          0.716              1.605              1.234
 Vibration     4          0.801              1.379              0.821

 Normal termination of Gaussian 09 at Wed Aug  3 21:06:11 2016.
