 Gaussian 09, Revision E.01,
 Gaussian 09:  EM64L-G09RevE.01 30-Nov-2015

 ------------------------------
 #p b3lyp/6-311++G(3df,2p) freq
 ------------------------------

 ---------
 b3lyp opt
 ---------
 Symbolic Z-matrix:
 Charge =  2 Multiplicity = 4

                         Standard orientation:
 ---------------------------------------------------------------------
 Center     Atomic      Atomic             Coordinates (Angstroms)
 Number     Number       Type             X           Y           Z
 ---------------------------------------------------------------------
      1         16           0       -1.110709   -0.518611    0.004891
      2         16           0        1.949277   -0.017535   -0.089743
      3          6           0        0.272975    0.543083    0.020760
      4          6           0       -2.398609    0.408182   -0.001614
      5          1           0        0.156691    1.631598   -0.008133
      6          1           0       -3.071143    1.264451   -0.002613
      7          1           0        2.251174   -0.025302    1.253517
 ---------------------------------------------------------------------

 SCF Done:  E(UB3LYP) =  -873.486502071     A.U. after   15 cycles

 The electronic state is 4-A.
 Alpha  occ. eigenvalues --  -89.40514 -89.37354 -10.70294 -10.69845  -8.48357
 Alpha  occ. eigenvalues --   -8.45337  -6.45216  -6.44315  -6.43933  -6.41584
 Alpha  occ. eigenvalues --   -6.41121  -6.41098  -1.32485  -1.26942  -1.12185
 Alpha  occ. eigenvalues --   -1.02210  -0.93794  -0.91944  -0.85970  -0.82408
 Alpha  occ. eigenvalues --   -0.80321  -0.77812  -0.69448  -0.68905
 Alpha virt. eigenvalues --   -0.51938  -0.42899  -0.40090  -0.39457  -0.34434
 Alpha virt. eigenvalues --   -0.29959  -0.29071  -0.27082  -0.25821  -0.25064
 Alpha virt. eigenvalues --   -0.24039  -0.23193  -0.21641  -0.20778  -0.20031

  Beta  occ. eigenvalues --  -89.39851 -89.37481 -10.68828 -10.67756  -8.47737
  Beta  occ. eigenvalues --   -8.45410  -6.43924  -6.43539  -6.43181  -6.41669
  Beta  occ. eigenvalues --   -6.41462  -6.41171  -1.29850  -1.23209  -1.07262
  Beta  occ. eigenvalues --   -0.99326  -0.91816  -0.89849  -0.83099  -0.80424
  Beta  occ. eigenvalues --   -0.78196
  Beta virt. eigenvalues --   -0.63555  -0.55972  -0.53581  -0.47469  -0.40696
  Beta virt. eigenvalues --   -0.38150  -0.36495  -0.32657  -0.29361  -0.28389
  Beta virt. eigenvalues --   -0.25784  -0.24673  -0.23893  -0.23421  -0.22096

 Mulliken charges and spin densities:
               1          2
     1  S    0.283867  -0.085082
     2  S    0.407489   0.998235
     3  C    0.198430   0.796401
     4  C    0.187730   1.254491
     5  H    0.257779   0.021035
     6  H    0.393036  -0.021611
     7  H    0.271669   0.036531
 Sum of Mulliken charges =   2.00000   3.00000

 Dipole moment (field-independent basis, Debye):
    X=              0.2755    Y=              2.1022    Z=              1.0850  Tot=              2.3817
 Quadrupole moment (field-independent basis, Debye-Ang):
   XX=              8.2362   YY=            -25.5790   ZZ=            -30.4492
   XY=             -4.5331   XZ=              2.9953   YZ=             -0.1448

  Exact polarizability:  88.730  -4.382  40.071   2.294  -0.160  34.890
 Approx polarizability: 147.256 -10.273  67.353   3.220  -0.168  56.929

                      1                      2                      3
                      A                      A                      A
 Frequencies --    134.7759               181.7432               222.1036
 Red. masses --      3.4357                 1.9339                 2.2196
 Frc consts  --      0.0368                 0.0376                 0.0645
 IR Inten    --      4.8532                18.1648                30.4087

                      4                      5                      6
                      A                      A                      A
 Frequencies --    328.6227               336.8420               594.0930
 Red. masses --      1.8629                 2.7345                 1.8718
 Frc consts  --      0.1185                 0.1828                 0.3892
 IR Inten    --      8.3080                33.4676                17.5524

                      7                      8                      9
                      A                      A                      A
 Frequencies --    615.6435               653.9486               763.1219
 Red. masses --      2.1676                 1.2733                 4.6388
 Frc consts  --      0.4841                 0.3208                 1.5916
 IR Inten    --      7.8251                40.2169                14.2866

                     10                     11                     12
                      A                      A                      A
 Frequencies --    880.9437              1038.9243              1146.7614
 Red. masses --      1.1804                 6.6559                 1.1509
 Frc consts  --      0.5397                 4.2327                 0.8917
 IR Inten    --     14.9586                31.6428                 0.3945

                     13                     14                     15
                      A                      A                      A
 Frequencies --   2445.0480              3048.8795              3169.1305
 Red. masses --      1.0394                 1.0844                 1.1049
 Frc consts  --      3.6612                 5.9393                 6.5381
 IR Inten    --    139.6113                90.3075               319.3422

 - Thermochemistry -
 -------------------
 Temperature   298.150 Kelvin.  Pressure   1.00000 Atm.
 Atom     1 has atomic number 16 and mass  31.97207

 Molecular mass:    90.96762 amu.
 Principal axes and moments of inertia in atomic units:
                           1         2         3
     Eigenvalues --    71.75628 883.42305 942.33548
           X            0.99980  -0.01607   0.01151
           Y            0.01611   0.99987  -0.00312
           Z           -0.01145   0.00331   0.99993
 This molecule is an asymmetric top.
 Rotational symmetry number  1.
 Rotational temperatures (Kelvin)      1.20706     0.09804     0.09191
 Rotational constants (GHZ):          25.15099     2.04290     1.91518
 Zero-point vibrational energy      93072.9 (Joules/Mol)
                                   22.24497 (Kcal/Mol)
 Warning -- explicit consideration of   7 degrees of freedom as
           vibrations may cause significant error
 Vibrational temperatures:    193.91   261.49   319.56   472.81   484.64
          (Kelvin)            854.77   885.77   940.89  1097.96  1267.48
                             1494.78  1649.93  3517.87  4386.65  4559.67

 Zero-point correction=                           0.035450 (Hartree/Particle)
 Thermal correction to Energy=                    0.041478
 Thermal correction to Enthalpy=                  0.042423
 Thermal correction to Gibbs Free Energy=         0.004802
 Sum of electronic and zero-point Energies=           -873.451052
 Sum of electronic and thermal Energies=              -873.445024
 Sum of electronic and thermal Enthalpies=            -873.444079
 Sum of electronic and thermal Free Energies=         -873.481700

                     E (Thermal)             CV                S
                      KCal/Mol        Cal/Mol-Kelvin    Cal/Mol-Kelvin
 Total                   26.028             19.557             79.178
 Electronic               0.000              0.000              2.755
 Translational            0.889              2.981             39.436
 Rotational               0.889              2.981             25.594
 Vibrational             24.251             13.595             11.394
 Vibration     1          0.613              1.919              2.877
 Vibration     2          0.630              1.865              2.310
 Vibration     3          0.648              1.807              1.942
 Vibration     4          0.712              1.618              1.267
 Vibration     5          0.718              1.602              1.227
 Vibration     6          0.952              1.044              0.460
 Vibration     7          0.975              0.999              0.424

 Optimization completed.
    -- Stationary point found.
 Normal termination of Gaussian 09 at Wed Aug  3 21:05:34 2016.
