 Gaussian 09, Revision E.01,
 Gaussian 09:  EM64L-G09RevE.01 30-Nov-2015

 ------------------------------
 #p b3lyp/6-311++G(3df,2p) freq
 ------------------------------

 ---------
 b3lyp opt
 ---------
 Symbolic Z-matrix:
 Charge =  1 Multiplicity = 3

                         Standard orientation:
 ---------------------------------------------------------------------
 Center     Atomic      Atomic             Coordinates (Angstroms)
 Number     Number       Type             X           Y           Z
 ---------------------------------------------------------------------
      1         16           0        1.270848   -0.462255   -0.000159
      2         16           0       -1.720990    0.234573   -0.000073
      3          6           0       -0.386589   -0.778377    0.000290
      4          6           0        1.475562    1.154254    0.000305
      5          1           0       -0.599178   -1.842273    0.000544
      6          1           0        2.329479    1.816350   -0.000262
      7          1           0       -1.061877    1.413578   -0.000130
 ---------------------------------------------------------------------

 SCF Done:  E(UB3LYP) =  -874.064362019     A.U. after   15 cycles

 The electronic state is 3-A.
 Alpha  occ. eigenvalues --  -89.14805 -89.11181 -10.48182 -10.46865  -8.23021
 Alpha  occ. eigenvalues --   -8.19634  -6.19237  -6.18915  -6.18778  -6.15891
 Alpha  occ. eigenvalues --   -6.15477  -6.15464  -1.10887  -1.02404  -0.91381
 Alpha  occ. eigenvalues --   -0.79981  -0.70911  -0.68820  -0.63744  -0.61688
 Alpha  occ. eigenvalues --   -0.58018  -0.53744  -0.50242  -0.43722
 Alpha virt. eigenvalues --   -0.30006  -0.20409  -0.18866  -0.15302  -0.14878
 Alpha virt. eigenvalues --   -0.12628  -0.11935  -0.10942  -0.09931  -0.08492
 Alpha virt. eigenvalues --   -0.07048  -0.06926  -0.06400  -0.04769  -0.03788

  Beta  occ. eigenvalues --  -89.14856 -89.11041 -10.47606 -10.44477  -8.23050
  Beta  occ. eigenvalues --   -8.19507  -6.19241  -6.18982  -6.18867  -6.15782
  Beta  occ. eigenvalues --   -6.15403  -6.15055  -1.09463  -1.01135  -0.88101
  Beta  occ. eigenvalues --   -0.77752  -0.69580  -0.67484  -0.62274  -0.59489
  Beta  occ. eigenvalues --   -0.57117  -0.51125
  Beta virt. eigenvalues --   -0.34737  -0.33493  -0.25384  -0.19047  -0.18016
  Beta virt. eigenvalues --   -0.15025  -0.14019  -0.11998  -0.11652  -0.10527
  Beta virt. eigenvalues --   -0.09735  -0.08345  -0.06715  -0.06466  -0.05967

 Mulliken charges and spin densities:
               1          2
     1  S    0.114207   0.005569
     2  S    0.025776   0.222996
     3  C    0.198229   0.298716
     4  C   -0.078310   1.497577
     5  H    0.243989  -0.012306
     6  H    0.302623  -0.010851
     7  H    0.193486  -0.001701
 Sum of Mulliken charges =   1.00000   2.00000

 Dipole moment (field-independent basis, Debye):
    X=              1.0046    Y=              0.7290    Z=             -0.0005  Tot=              1.2412
 Quadrupole moment (field-independent basis, Debye-Ang):
   XX=            -21.8793   YY=            -25.7619   ZZ=            -36.9330
   XY=              2.6160   XZ=             -0.0012   YZ=             -0.0017

  Exact polarizability:  91.312   5.269  58.518   0.002   0.000  37.646
 Approx polarizability: 164.070   9.789 111.350   0.005   0.003  60.064

                      1                      2                      3
                      A                      A                      A
 Frequencies --    185.4842               234.0158               394.5698
 Red. masses --      4.7141                 2.4786                 1.5709
 Frc consts  --      0.0956                 0.0800                 0.1441
 IR Inten    --      0.5428                 3.8523                21.5333

                      4                      5                      6
                      A                      A                      A
 Frequencies --    421.3548               422.2535               678.9568
 Red. masses --      4.4850                 1.1383                 3.1757
 Frc consts  --      0.4691                 0.1196                 0.8625
 IR Inten    --      3.7992                 9.6520                 7.0473

                      7                      8                      9
                      A                      A                      A
 Frequencies --    724.2655               807.3371               899.4575
 Red. masses --      1.7306                 1.1653                 5.5518
 Frc consts  --      0.5349                 0.4475                 2.6464
 IR Inten    --     31.0080                36.3461                23.7183

                     10                     11                     12
                      A                      A                      A
 Frequencies --    982.6274              1033.5720              1328.7999
 Red. masses --      1.5048                 2.2129                 1.3787
 Frc consts  --      0.8561                 1.3928                 1.4342
 IR Inten    --     25.2040                38.2268                 4.3801

                     13                     14                     15
                      A                      A                      A
 Frequencies --   2622.4286              3168.0777              3234.1833
 Red. masses --      1.0385                 1.0875                 1.0934
 Frc consts  --      4.2079                 6.4307                 6.7386
 IR Inten    --      8.3740                55.5587               132.1046

 - Thermochemistry -
 -------------------
 Temperature   298.150 Kelvin.  Pressure   1.00000 Atm.
 Atom     1 has atomic number 16 and mass  31.97207

 Molecular mass:    90.96762 amu.
 Principal axes and moments of inertia in atomic units:
                           1         2         3
     Eigenvalues --   144.57791 647.49446 792.07234
           X            0.99964   0.02689  -0.00001
           Y           -0.02689   0.99964  -0.00004
           Z            0.00000   0.00004   1.00000
 This molecule is an asymmetric top.
 Rotational symmetry number  1.
 Rotational temperatures (Kelvin)      0.59908     0.13377     0.10935
 Rotational constants (GHZ):          12.48283     2.78727     2.27851
 Zero-point vibrational energy     102504.3 (Joules/Mol)
                                   24.49912 (Kcal/Mol)
 Warning -- explicit consideration of   5 degrees of freedom as
           vibrations may cause significant error
 Vibrational temperatures:    266.87   336.70   567.70   606.23   607.53
          (Kelvin)            976.87  1042.06  1161.58  1294.12  1413.78
                             1487.08  1911.84  3773.09  4558.15  4653.26

 Zero-point correction=                           0.039042 (Hartree/Particle)
 Thermal correction to Energy=                    0.044297
 Thermal correction to Enthalpy=                  0.045241
 Thermal correction to Gibbs Free Energy=         0.009387
 Sum of electronic and zero-point Energies=           -874.025320
 Sum of electronic and thermal Energies=              -874.020065
 Sum of electronic and thermal Enthalpies=            -874.019121
 Sum of electronic and thermal Free Energies=         -874.054975

                     E (Thermal)             CV                S
                      KCal/Mol        Cal/Mol-Kelvin    Cal/Mol-Kelvin
 Total                   27.797             17.605             75.461
 Electronic               0.000              0.000              2.183
 Translational            0.889              2.981             39.436
 Rotational               0.889              2.981             25.809
 Vibrational             26.019             11.643              8.033
 Vibration     1          0.632              1.860              2.272
 Vibration     2          0.654              1.789              1.848
 Vibration     3          0.762              1.482              0.983
 Vibration     4          0.784              1.424              0.887
 Vibration     5          0.785              1.422              0.884

 Optimization completed.
    -- Stationary point found.
 Normal termination of Gaussian 09 at Wed Aug  3 20:48:32 2016.
