 Gaussian 09, Revision E.01,
 Gaussian 09:  EM64L-G09RevE.01 30-Nov-2015

 ------------------------------
 #p b3lyp/6-311++G(3df,2p) freq
 ------------------------------

 ---------
 b3lyp opt
 ---------
 Symbolic Z-matrix:
 Charge =  0 Multiplicity = 4

                         Standard orientation:
 ---------------------------------------------------------------------
 Center     Atomic      Atomic             Coordinates (Angstroms)
 Number     Number       Type             X           Y           Z
 ---------------------------------------------------------------------
      1         16           0        1.968599   -0.345639   -0.104729
      2         16           0       -1.841263   -0.372685    0.112237
      3          6           0       -0.585511    0.760521   -0.299571
      4          6           0        0.689350    0.683133    0.373067
      5          1           0       -0.782103    1.457103   -1.104619
      6          1           0        0.912774    1.276682    1.258905
      7          1           0       -2.791080    0.097476   -0.715403
 ---------------------------------------------------------------------

 SCF Done:  E(UB3LYP) =  -874.344663354     A.U. after   17 cycles

 The electronic state is 4-A.
 Alpha  occ. eigenvalues --  -88.89417 -88.87441 -10.21662 -10.21292  -7.97709
 Alpha  occ. eigenvalues --   -7.95973  -5.94659  -5.93612  -5.93285  -5.92269
 Alpha  occ. eigenvalues --   -5.91895  -5.91696  -0.84393  -0.78570  -0.68202
 Alpha  occ. eigenvalues --   -0.57322  -0.49097  -0.45484  -0.41985  -0.36858
 Alpha  occ. eigenvalues --   -0.33220  -0.32486  -0.31148  -0.19028  -0.18808
 Alpha virt. eigenvalues --   -0.02121   0.00371   0.00738   0.01884   0.02773
 Alpha virt. eigenvalues --    0.03959   0.05097   0.06239   0.06591   0.07184
 Alpha virt. eigenvalues --    0.08256   0.08881   0.09948   0.10316   0.11265

  Beta  occ. eigenvalues --  -88.88646 -88.87278 -10.20445 -10.20237  -7.96999
  Beta  occ. eigenvalues --   -7.95816  -5.93126  -5.92718  -5.92435  -5.92157
  Beta  occ. eigenvalues --   -5.91776  -5.91246  -0.81293  -0.75848  -0.64386
  Beta  occ. eigenvalues --   -0.53849  -0.47593  -0.43140  -0.39253  -0.35609
  Beta  occ. eigenvalues --   -0.29291  -0.28964
  Beta virt. eigenvalues --   -0.17428  -0.07564  -0.07346  -0.01707   0.00990
  Beta virt. eigenvalues --    0.01195   0.02528   0.02979   0.04566   0.05364
  Beta virt. eigenvalues --    0.06531   0.06730   0.07697   0.08822   0.09441

 Mulliken charges and spin densities:
               1          2
     1  S   -0.162826   1.281552
     2  S   -0.282184   0.276510
     3  C    0.025929   0.734310
     4  C   -0.064881   0.652978
     5  H    0.168754   0.006460
     6  H    0.171880   0.042975
     7  H    0.143327   0.005216
 Sum of Mulliken charges =  -0.00000   3.00000

 Dipole moment (field-independent basis, Debye):
    X=             -0.6150    Y=              0.8848    Z=             -0.4339  Tot=              1.1616
 Quadrupole moment (field-independent basis, Debye-Ang):
   XX=            -36.7533   YY=            -39.6861   ZZ=            -38.4311
   XY=             -0.6010   XZ=              3.5342   YZ=              0.2555

  Exact polarizability:  99.144  -1.498  61.136  -0.972   0.054  54.636
 Approx polarizability: 136.736  -3.443  97.454  -1.208   0.725  84.928

                      1                      2                      3
                      A                      A                      A
 Frequencies --     84.9341               210.9422               256.1609
 Red. masses --     16.2415                 1.2338                 1.1228
 Frc consts  --      0.0690                 0.0323                 0.0434
 IR Inten    --      1.1523                26.3074                11.6464

                      4                      5                      6
                      A                      A                      A
 Frequencies --    310.6024               397.9866               413.9704
 Red. masses --      6.8891                 6.9571                 1.0308
 Frc consts  --      0.3916                 0.6493                 0.1041
 IR Inten    --      7.1407                 5.5906                17.7197

                      7                      8                      9
                      A                      A                      A
 Frequencies --    718.3127               786.7698               938.2002
 Red. masses --      4.7530                 5.4466                 1.2747
 Frc consts  --      1.4449                 1.9864                 0.6611
 IR Inten    --      2.9591                33.9441                 3.8193

                     10                     11                     12
                      A                      A                      A
 Frequencies --   1130.0366              1180.9830              1239.9291
 Red. masses --      1.2770                 1.9086                 1.6152
 Frc consts  --      0.9608                 1.5684                 1.4631
 IR Inten    --      3.5145                 9.7783                38.7008

                     13                     14                     15
                      A                      A                      A
 Frequencies --   2656.0988              3063.7675              3143.0873
 Red. masses --      1.0383                 1.0806                 1.0861
 Frc consts  --      4.3158                 5.9762                 6.3215
 IR Inten    --      4.8808                 1.7877                 7.3247

 - Thermochemistry -
 -------------------
 Temperature   298.150 Kelvin.  Pressure   1.00000 Atm.
 Atom     1 has atomic number 16 and mass  31.97207

 Molecular mass:    90.96762 amu.
 Principal axes and moments of inertia in atomic units:
                           1         2         3
     Eigenvalues --   111.71045 921.99259 985.31866
           X            0.99987  -0.00134   0.01629
           Y            0.00143   0.99998  -0.00530
           Z           -0.01628   0.00532   0.99985
 This molecule is an asymmetric top.
 Rotational symmetry number  1.
 Rotational temperatures (Kelvin)      0.77534     0.09394     0.08790
 Rotational constants (GHZ):          16.15553     1.95744     1.83163
 Zero-point vibrational energy      98882.0 (Joules/Mol)
                                   23.63337 (Kcal/Mol)
 Warning -- explicit consideration of   6 degrees of freedom as
           vibrations may cause significant error
 Vibrational temperatures:    122.20   303.50   368.56   446.89   572.61
          (Kelvin)            595.61  1033.49  1131.98  1349.86  1625.87
                             1699.17  1783.98  3821.53  4408.07  4522.20

 Zero-point correction=                           0.037662 (Hartree/Particle)
 Thermal correction to Energy=                    0.043584
 Thermal correction to Enthalpy=                  0.044528
 Thermal correction to Gibbs Free Energy=         0.006608
 Sum of electronic and zero-point Energies=           -874.307001
 Sum of electronic and thermal Energies=              -874.301080
 Sum of electronic and thermal Enthalpies=            -874.300135
 Sum of electronic and thermal Free Energies=         -874.338055

                     E (Thermal)             CV                S
                      KCal/Mol        Cal/Mol-Kelvin    Cal/Mol-Kelvin
 Total                   27.349             18.637             79.808
 Electronic               0.000              0.000              2.755
 Translational            0.889              2.981             39.436
 Rotational               0.889              2.981             26.120
 Vibrational             25.572             12.676             11.497
 Vibration     1          0.601              1.960              3.774
 Vibration     2          0.643              1.824              2.036
 Vibration     3          0.666              1.752              1.688
 Vibration     4          0.699              1.654              1.359
 Vibration     5          0.764              1.474              0.970
 Vibration     6          0.778              1.440              0.913

 Optimization completed.
    -- Stationary point found.
 Normal termination of Gaussian 09 at Wed Aug  3 20:33:28 2016.
