 Gaussian 09, Revision E.01,
 Gaussian 09:  EM64L-G09RevE.01 30-Nov-2015

 ------------------------------
 #p b3lyp/6-311++G(3df,2p) freq
 ------------------------------

 ---------
 b3lyp opt
 ---------
 Symbolic Z-matrix:
 Charge =  0 Multiplicity = 2

                         Standard orientation:
 ---------------------------------------------------------------------
 Center     Atomic      Atomic             Coordinates (Angstroms)
 Number     Number       Type             X           Y           Z
 ---------------------------------------------------------------------
      1         16           0       -0.077032    0.768673   -0.072152
      2         16           0        1.671704   -0.329179    0.025101
      3          6           0       -1.350345   -0.481094   -0.347915
      4          6           0       -2.493204   -0.409519    0.265538
      5          1           0       -1.098495   -1.231096   -1.089221
      6          1           0       -3.004514    0.186973    1.000685
      7          1           0        1.649556   -0.644106    1.335613
 ---------------------------------------------------------------------

 SCF Done:  E(UB3LYP) =  -874.387913853     A.U. after   18 cycles

 The electronic state is 2-A.
 Alpha  occ. eigenvalues --  -88.88731 -88.88077 -10.21867 -10.21446  -7.97018
 Alpha  occ. eigenvalues --   -7.96539  -5.93465  -5.93109  -5.92927  -5.92551
 Alpha  occ. eigenvalues --   -5.92398  -5.91982  -0.84010  -0.77713  -0.67172
 Alpha  occ. eigenvalues --   -0.58086  -0.47711  -0.46672  -0.40850  -0.37783
 Alpha  occ. eigenvalues --   -0.31657  -0.29000  -0.25600  -0.24522
 Alpha virt. eigenvalues --   -0.05562  -0.01939  -0.01553   0.00905   0.01396
 Alpha virt. eigenvalues --    0.02318   0.03976   0.04576   0.05611   0.06534
 Alpha virt. eigenvalues --    0.06621   0.07679   0.09354   0.09774   0.10733

  Beta  occ. eigenvalues --  -88.88638 -88.88063 -10.22033 -10.19986  -7.96930
  Beta  occ. eigenvalues --   -7.96527  -5.93359  -5.92914  -5.92895  -5.92536
  Beta  occ. eigenvalues --   -5.92336  -5.91952  -0.83364  -0.76641  -0.66007
  Beta  occ. eigenvalues --   -0.56804  -0.46728  -0.46002  -0.40222  -0.37391
  Beta  occ. eigenvalues --   -0.31154  -0.27765  -0.25025
  Beta virt. eigenvalues --   -0.11308  -0.04971  -0.01688  -0.01161   0.01214
  Beta virt. eigenvalues --    0.01519   0.02565   0.04107   0.04598   0.05626
  Beta virt. eigenvalues --    0.06575   0.06983   0.07923   0.09558   0.09943

 Mulliken charges and spin densities:
               1          2
     1  S   -0.150585   0.106512
     2  S   -0.151963   0.025276
     3  C    0.050822  -0.179290
     4  C   -0.247415   0.995619
     5  H    0.152109   0.035904
     6  H    0.214160   0.016028
     7  H    0.132872  -0.000050
 Sum of Mulliken charges =  -0.00000   1.00000

 Dipole moment (field-independent basis, Debye):
    X=             -0.3783    Y=             -0.4651    Z=              0.8274  Tot=              1.0218
 Quadrupole moment (field-independent basis, Debye-Ang):
   XX=            -38.0390   YY=            -40.1056   ZZ=            -37.4223
   XY=             -2.1791   XZ=             -0.0409   YZ=              0.4722

  Exact polarizability: 104.224   0.449  58.782  -2.467   0.059  53.543
 Approx polarizability: 165.956  -3.290  95.694  -7.333  -1.741  87.508

                      1                      2                      3
                      A                      A                      A
 Frequencies --     71.8130               191.4948               315.6240
 Red. masses --      2.5543                 4.5827                 1.6010
 Frc consts  --      0.0078                 0.0990                 0.0940
 IR Inten    --      0.6292                 0.3890                 3.8227

                      4                      5                      6
                      A                      A                      A
 Frequencies --    346.0957               492.9266               627.0249
 Red. masses --      1.6911                23.1703                 3.5107
 Frc consts  --      0.1193                 3.3170                 0.8132
 IR Inten    --     15.0634                 1.5975                 7.6698

                      7                      8                      9
                      A                      A                      A
 Frequencies --    673.5568               818.2478               849.0915
 Red. masses --      2.0476                 1.5750                 1.1586
 Frc consts  --      0.5473                 0.6213                 0.4921
 IR Inten    --      6.3135                74.1843                68.6215

                     10                     11                     12
                      A                      A                      A
 Frequencies --    872.0147              1186.3075              1604.4515
 Red. masses --      1.0665                 1.0944                 6.7325
 Frc consts  --      0.4778                 0.9075                10.2113
 IR Inten    --     22.5248                 1.7475                 7.5372

                     13                     14                     15
                      A                      A                      A
 Frequencies --   2618.3704              3140.0140              3266.0910
 Red. masses --      1.0394                 1.0896                 1.1062
 Frc consts  --      4.1987                 6.3296                 6.9528
 IR Inten    --      2.8331                 0.7436                 4.2675

 - Thermochemistry -
 -------------------
 Temperature   298.150 Kelvin.  Pressure   1.00000 Atm.
 Atom     1 has atomic number 16 and mass  31.97207

 Molecular mass:    90.96762 amu.
 Principal axes and moments of inertia in atomic units:
                           1         2         3
     Eigenvalues --   127.00808 733.70999 814.63318
           X            1.00000  -0.00149   0.00183
           Y            0.00144   0.99960   0.02815
           Z           -0.00187  -0.02815   0.99960
 This molecule is an asymmetric top.
 Rotational symmetry number  1.
 Rotational temperatures (Kelvin)      0.68196     0.11805     0.10632
 Rotational constants (GHZ):          14.20966     2.45975     2.21540
 Zero-point vibrational energy     102120.0 (Joules/Mol)
                                   24.40726 (Kcal/Mol)
 Warning -- explicit consideration of   5 degrees of freedom as
           vibrations may cause significant error
 Vibrational temperatures:    103.32   275.52   454.11   497.95   709.21
          (Kelvin)            902.15   969.10  1177.27  1221.65  1254.63
                             1706.83  2308.44  3767.25  4517.77  4699.17

 Zero-point correction=                           0.038895 (Hartree/Particle)
 Thermal correction to Energy=                    0.044577
 Thermal correction to Enthalpy=                  0.045521
 Thermal correction to Gibbs Free Energy=         0.008713
 Sum of electronic and zero-point Energies=           -874.349018
 Sum of electronic and thermal Energies=              -874.343337
 Sum of electronic and thermal Enthalpies=            -874.342392
 Sum of electronic and thermal Free Energies=         -874.379201

                     E (Thermal)             CV                S
                      KCal/Mol        Cal/Mol-Kelvin    Cal/Mol-Kelvin
 Total                   27.973             18.130             77.470
 Electronic               0.000              0.000              1.377
 Translational            0.889              2.981             39.436
 Rotational               0.889              2.981             25.832
 Vibrational             26.195             12.168             10.825
 Vibration     1          0.598              1.967              4.103
 Vibration     2          0.634              1.852              2.213
 Vibration     3          0.703              1.644              1.333
 Vibration     4          0.724              1.583              1.184
 Vibration     5          0.849              1.266              0.676

 Normal termination of Gaussian 09 at Wed Aug  3 20:15:46 2016.
