 Gaussian 09, Revision E.01,
 Gaussian 09:  EM64L-G09RevE.01 30-Nov-2015

 ------------------------------
 #p b3lyp/6-311++G(3df,2p) freq
 ------------------------------

 ---------
 b3lyp opt
 ---------
 Symbolic Z-matrix:
 Charge =  0 Multiplicity = 2

                         Standard orientation:
 ---------------------------------------------------------------------
 Center     Atomic      Atomic             Coordinates (Angstroms)
 Number     Number       Type             X           Y           Z
 ---------------------------------------------------------------------
      1         16           0       -1.884689   -0.363933   -0.017107
      2         16           0        1.771933   -0.438661   -0.069614
      3          6           0        0.618262    1.017575    0.047313
      4          6           0       -0.812942    0.769197   -0.003374
      5          1           0        0.837543    1.579658    0.957778
      6          1           0        0.902061    1.667004   -0.783247
      7          1           0        1.232565   -1.125792    0.949358
 ---------------------------------------------------------------------

 SCF Done:  E(UB3LYP) =  -874.414554400     A.U. after   18 cycles

 The electronic state is 2-A.
 Alpha  occ. eigenvalues --  -88.87363 -88.85691 -10.25404 -10.24121  -7.95973
 Alpha  occ. eigenvalues --   -7.94295  -5.92103  -5.91990  -5.91777  -5.90704
 Alpha  occ. eigenvalues --   -5.90347  -5.89701  -0.85245  -0.78354  -0.69646
 Alpha  occ. eigenvalues --   -0.54726  -0.48414  -0.44223  -0.43342  -0.37743
 Alpha  occ. eigenvalues --   -0.33327  -0.32881  -0.25918  -0.20044
 Alpha virt. eigenvalues --   -0.09279  -0.02097  -0.00190   0.01452   0.02136
 Alpha virt. eigenvalues --    0.02620   0.03707   0.05753   0.06335   0.06648
 Alpha virt. eigenvalues --    0.06907   0.08087   0.08710   0.10034   0.10986

  Beta  occ. eigenvalues --  -88.87175 -88.85618 -10.24385 -10.24063  -7.95800
  Beta  occ. eigenvalues --   -7.94227  -5.91931  -5.91900  -5.91245  -5.90539
  Beta  occ. eigenvalues --   -5.90248  -5.89657  -0.84130  -0.77734  -0.69001
  Beta  occ. eigenvalues --   -0.53418  -0.48177  -0.43138  -0.41954  -0.36805
  Beta  occ. eigenvalues --   -0.32725  -0.30164  -0.25650
  Beta virt. eigenvalues --   -0.09760  -0.08140  -0.01918   0.00121   0.01729
  Beta virt. eigenvalues --    0.02166   0.02811   0.03888   0.05804   0.06394
  Beta virt. eigenvalues --    0.06706   0.07197   0.08237   0.08915   0.10253

 Mulliken charges and spin densities:
               1          2
     1  S   -0.063448   0.288656
     2  S   -0.284903   0.118456
     3  C   -0.019173  -0.023706
     4  C   -0.081725   0.618957
     5  H    0.170348  -0.002961
     6  H    0.161086   0.001178
     7  H    0.117815  -0.000580
 Sum of Mulliken charges =  -0.00000   1.00000

 Dipole moment (field-independent basis, Debye):
    X=              0.3502    Y=              0.8370    Z=              0.6047  Tot=              1.0904
 Quadrupole moment (field-independent basis, Debye-Ang):
   XX=            -43.4948   YY=            -37.2002   ZZ=            -37.6318
   XY=              2.7015   XZ=              0.1568   YZ=             -1.5616

  Exact polarizability:  92.038   4.329  66.543   1.068   0.082  50.218
 Approx polarizability: 137.661  19.809 119.664  -0.277  -1.733  82.159

                      1                      2                      3
                      A                      A                      A
 Frequencies --    124.2758               141.2997               215.0563
 Red. masses --      1.5737                 5.4682                 1.7171
 Frc consts  --      0.0143                 0.0643                 0.0468
 IR Inten    --      2.2823                 1.9567                21.5537

                      4                      5                      6
                      A                      A                      A
 Frequencies --    472.5541               602.9143               719.9663
 Red. masses --      9.2788                 4.7469                 1.4598
 Frc consts  --      1.2208                 1.0167                 0.4458
 IR Inten    --      9.0733                30.2246                 2.4745

                      7                      8                      9
                      A                      A                      A
 Frequencies --    774.7098               948.4093              1171.7100
 Red. masses --      5.5274                 1.3192                 1.0649
 Frc consts  --      1.9546                 0.6991                 0.8614
 IR Inten    --     28.6963                 2.4948                 9.7022

                     10                     11                     12
                      A                      A                      A
 Frequencies --   1238.6043              1396.7204              1421.0090
 Red. masses --      1.1553                 2.3801                 1.7040
 Frc consts  --      1.0443                 2.7357                 2.0273
 IR Inten    --     22.9809                72.3323                 7.1314

                     13                     14                     15
                      A                      A                      A
 Frequencies --   2680.7405              3036.2828              3072.4929
 Red. masses --      1.0385                 1.0590                 1.1008
 Frc consts  --      4.3972                 5.7522                 6.1227
 IR Inten    --      0.6745                 6.7301                 1.1224

 - Thermochemistry -
 -------------------
 Temperature   298.150 Kelvin.  Pressure   1.00000 Atm.
 Atom     1 has atomic number 16 and mass  31.97207

 Molecular mass:    90.96762 amu.
 Principal axes and moments of inertia in atomic units:
                           1         2         3
     Eigenvalues --   139.51179 828.67093 949.60157
           X            0.99995   0.00789   0.00552
           Y           -0.00776   0.99968  -0.02421
           Z           -0.00571   0.02417   0.99969
 This molecule is an asymmetric top.
 Rotational symmetry number  1.
 Rotational temperatures (Kelvin)      0.62084     0.10452     0.09121
 Rotational constants (GHZ):          12.93612     2.17787     1.90052
 Zero-point vibrational energy     107764.1 (Joules/Mol)
                                   25.75623 (Kcal/Mol)
 Warning -- explicit consideration of   5 degrees of freedom as
           vibrations may cause significant error
 Vibrational temperatures:    178.80   203.30   309.42   679.90   867.46
          (Kelvin)           1035.87  1114.63  1364.55  1685.83  1782.07
                             2009.57  2044.51  3856.98  4368.53  4420.63

 Zero-point correction=                           0.041045 (Hartree/Particle)
 Thermal correction to Energy=                    0.046450
 Thermal correction to Enthalpy=                  0.047394
 Thermal correction to Gibbs Free Energy=         0.010928
 Sum of electronic and zero-point Energies=           -874.373509
 Sum of electronic and thermal Energies=              -874.368104
 Sum of electronic and thermal Enthalpies=            -874.367160
 Sum of electronic and thermal Free Energies=         -874.403627

                     E (Thermal)             CV                S
                      KCal/Mol        Cal/Mol-Kelvin    Cal/Mol-Kelvin
 Total                   29.148             16.491             76.750
 Electronic               0.000              0.000              1.377
 Translational            0.889              2.981             39.436
 Rotational               0.889              2.981             26.198
 Vibrational             27.370             10.529              9.738
 Vibration     1          0.610              1.929              3.033
 Vibration     2          0.615              1.912              2.786
 Vibration     3          0.645              1.818              2.000
 Vibration     4          0.829              1.311              0.730
 Vibration     5          0.961              1.026              0.445

 Normal termination of Gaussian 09 at Wed Aug  3 20:25:57 2016.
