 Gaussian 09, Revision E.01,
 Gaussian 09:  EM64L-G09RevE.01 30-Nov-2015

 ------------------------------
 #p b3lyp/6-311++G(3df,2p) freq
 ------------------------------

 ---------
 b3lyp opt
 ---------
 Symbolic Z-matrix:
 Charge =  2 Multiplicity = 2

                         Standard orientation:
 ---------------------------------------------------------------------
 Center     Atomic      Atomic             Coordinates (Angstroms)
 Number     Number       Type             X           Y           Z
 ---------------------------------------------------------------------
      1         16           0       -2.146237   -0.224876   -0.021203
      2         16           0        2.026181   -0.292422   -0.061579
      3          6           0        0.578769    0.843582    0.053758
      4          6           0       -0.750308    0.266599    0.020435
      5          1           0        0.720320    1.400044    1.001788
      6          1           0        0.697288    1.568883   -0.765678
      7          1           0        1.532535   -1.353248    0.643249
 ---------------------------------------------------------------------

 SCF Done:  E(UB3LYP) =  -873.621211392     A.U. after   17 cycles

 The electronic state is 2-A.
 Alpha  occ. eigenvalues --  -89.39743 -89.35251 -10.71849 -10.68244  -8.47625
 Alpha  occ. eigenvalues --   -8.43477  -6.44459  -6.43606  -6.43190  -6.39471
 Alpha  occ. eigenvalues --   -6.39417  -6.39396  -1.30759  -1.26527  -1.16023
 Alpha  occ. eigenvalues --   -0.98531  -0.91478  -0.88756  -0.87859  -0.83202
 Alpha  occ. eigenvalues --   -0.78292  -0.77253  -0.75808
 Alpha virt. eigenvalues --   -0.52446  -0.50700  -0.42649  -0.38751  -0.33014
 Alpha virt. eigenvalues --   -0.31331  -0.29165  -0.28698  -0.26534  -0.26126
 Alpha virt. eigenvalues --   -0.24668  -0.23257  -0.22380  -0.20706  -0.20619

  Beta  occ. eigenvalues --  -89.39087 -89.35250 -10.71826 -10.68248  -8.47022
  Beta  occ. eigenvalues --   -8.43476  -6.43211  -6.42826  -6.42433  -6.39480
  Beta  occ. eigenvalues --   -6.39406  -6.39391  -1.30158  -1.24965  -1.14095
  Beta  occ. eigenvalues --   -0.98150  -0.90406  -0.88416  -0.87485  -0.82067
  Beta  occ. eigenvalues --   -0.77212  -0.76847
  Beta virt. eigenvalues --   -0.62450  -0.52176  -0.50577  -0.42185  -0.37020
  Beta virt. eigenvalues --   -0.32793  -0.31211  -0.28639  -0.28239  -0.25896
  Beta virt. eigenvalues --   -0.25593  -0.24280  -0.22409  -0.21884  -0.20486

 Mulliken charges and spin densities:
               1          2
     1  S    0.406234   0.003345
     2  S    0.485720   0.986309
     3  C   -0.115329  -0.042376
     4  C    0.439661   0.019513
     5  H    0.270617   0.042654
     6  H    0.263404   0.008225
     7  H    0.249694  -0.017669
 Sum of Mulliken charges =   2.00000   1.00000

 Dipole moment (field-independent basis, Debye):
    X=              1.4188    Y=             -0.0078    Z=              0.6357  Tot=              1.5547
 Quadrupole moment (field-independent basis, Debye-Ang):
   XX=              3.0538   YY=            -23.8785   ZZ=            -29.3551
   XY=             -0.2877   XZ=              1.1709   YZ=             -0.7071

  Exact polarizability:  76.282   1.610  42.070   0.047  -0.835  34.330
 Approx polarizability: 137.978  12.398  71.887  -0.050  -1.312  55.232

                      1                      2                      3
                      A                      A                      A
 Frequencies --    107.7274               158.5677               334.3230
 Red. masses --      1.3366                 3.9545                 2.9602
 Frc consts  --      0.0091                 0.0586                 0.1949
 IR Inten    --     27.8032                 4.7393                 9.5352

                      4                      5                      6
                      A                      A                      A
 Frequencies --    428.0464               627.9955               744.1961
 Red. masses --     11.9567                 5.4239                 1.4721
 Frc consts  --      1.2908                 1.2603                 0.4804
 IR Inten    --      9.5830                 3.2005                 8.3205

                      7                      8                      9
                      A                      A                      A
 Frequencies --    806.9492               945.5449              1147.2805
 Red. masses --      3.9618                 1.3310                 1.1015
 Frc consts  --      1.5200                 0.7011                 0.8542
 IR Inten    --      5.7364                 9.4929                 0.4431

                     10                     11                     12
                      A                      A                      A
 Frequencies --   1268.7306              1358.5229              1668.4384
 Red. masses --      1.1683                 1.1063                12.9271
 Frc consts  --      1.1080                 1.2030                21.2018
 IR Inten    --      5.6499                39.8524                87.6788

                     13                     14                     15
                      A                      A                      A
 Frequencies --   2540.2081              2899.3403              2995.2662
 Red. masses --      1.0397                 1.0670                 1.0895
 Frc consts  --      3.9528                 5.2846                 5.7589
 IR Inten    --     69.6753               130.0450                99.1400

 - Thermochemistry -
 -------------------
 Temperature   298.150 Kelvin.  Pressure   1.00000 Atm.
 Atom     1 has atomic number 16 and mass  31.97207

 Molecular mass:    90.96762 amu.
 Principal axes and moments of inertia in atomic units:
                           1         2         3
     Eigenvalues --    79.272561052.594621116.45523
           X            0.99999   0.00044   0.00409
           Y           -0.00029   0.99934  -0.03625
           Z           -0.00410   0.03625   0.99933
 This molecule is an asymmetric top.
 Rotational symmetry number  1.
 Rotational temperatures (Kelvin)      1.09261     0.08229     0.07758
 Rotational constants (GHZ):          22.76628     1.71456     1.61649
 Zero-point vibrational energy     107850.2 (Joules/Mol)
                                   25.77680 (Kcal/Mol)
 Warning -- explicit consideration of   4 degrees of freedom as
           vibrations may cause significant error
 Vibrational temperatures:    155.00   228.14   481.02   615.86   903.54
          (Kelvin)           1070.73  1161.02  1360.43  1650.68  1825.42
                             1954.61  2400.51  3654.79  4171.50  4309.51

 Zero-point correction=                           0.041078 (Hartree/Particle)
 Thermal correction to Energy=                    0.046329
 Thermal correction to Enthalpy=                  0.047273
 Thermal correction to Gibbs Free Energy=         0.011202
 Sum of electronic and zero-point Energies=           -873.580133
 Sum of electronic and thermal Energies=              -873.574883
 Sum of electronic and thermal Enthalpies=            -873.573938
 Sum of electronic and thermal Free Energies=         -873.610010

                     E (Thermal)             CV                S
                      KCal/Mol        Cal/Mol-Kelvin    Cal/Mol-Kelvin
 Total                   29.072             16.185             75.919
 Electronic               0.000              0.000              1.377
 Translational            0.889              2.981             39.436
 Rotational               0.889              2.981             26.035
 Vibrational             27.294             10.223              9.070
 Vibration     1          0.606              1.943              3.309
 Vibration     2          0.621              1.893              2.567
 Vibration     3          0.716              1.607              1.239
 Vibration     4          0.790              1.409              0.865

 Optimization completed.
    -- Stationary point found.
 Normal termination of Gaussian 09 at Wed Aug  3 20:57:53 2016.
