 Gaussian 09, Revision E.01,
 Gaussian 09:  EM64L-G09RevE.01 30-Nov-2015

 ------------------------------
 #p b3lyp/6-311++G(3df,2p) freq
 ------------------------------

 ---------
 b3lyp opt
 ---------
 Symbolic Z-matrix:
 Charge =  0 Multiplicity = 2

                         Standard orientation:
 ---------------------------------------------------------------------
 Center     Atomic      Atomic             Coordinates (Angstroms)
 Number     Number       Type             X           Y           Z
 ---------------------------------------------------------------------
      1         16           0       -1.051041    0.124337   -0.048079
      2          6           0        1.748454    0.117219    0.037560
      3          6           0        0.558298   -0.425889   -0.063484
      4          1           0        2.643244   -0.443387   -0.208053
      5          1           0        1.894945    1.139097    0.384619
      6          1           0       -1.562041   -0.833088    0.748249
 ---------------------------------------------------------------------

 SCF Done:  E(UB3LYP) =  -476.171673758     A.U. after   16 cycles

 The electronic state is 2-A.
 Alpha  occ. eigenvalues --  -88.88366 -10.21912 -10.18341  -7.96878  -5.93186
 Alpha  occ. eigenvalues --   -5.92904  -5.92473  -0.82696  -0.73577  -0.55343
 Alpha  occ. eigenvalues --   -0.47385  -0.44160  -0.40880  -0.33176  -0.27803
 Alpha  occ. eigenvalues --   -0.21449
 Alpha virt. eigenvalues --   -0.02686  -0.01252   0.01010   0.01324   0.02742
 Alpha virt. eigenvalues --    0.04826   0.05995   0.06299   0.08520   0.09308
 Alpha virt. eigenvalues --    0.09823   0.10236   0.11536   0.12901   0.13620

  Beta  occ. eigenvalues --  -88.88252 -10.20596 -10.18371  -7.96773  -5.93070
  Beta  occ. eigenvalues --   -5.92760  -5.92247  -0.81270  -0.72855  -0.53867
  Beta  occ. eigenvalues --   -0.46158  -0.42985  -0.39558  -0.31536  -0.26461
  Beta virt. eigenvalues --   -0.09301  -0.02283  -0.00555   0.01160   0.01748
  Beta virt. eigenvalues --    0.02858   0.04858   0.06317   0.06367   0.08529
  Beta virt. eigenvalues --    0.09421   0.10232   0.10408   0.11895   0.13421

 Mulliken charges and spin densities:
               1          2
     1  S   -0.141347   0.160870
     2  C   -0.176137  -0.120919
     3  C   -0.114958   0.855403
     4  H    0.165600   0.018345
     5  H    0.117979   0.082726
     6  H    0.148863   0.003576
 Sum of Mulliken charges =  -0.00000   1.00000

 Dipole moment (field-independent basis, Debye):
    X=             -0.0458    Y=              0.0589    Z=              0.5845  Tot=              0.5893
 Quadrupole moment (field-independent basis, Debye-Ang):
   XX=            -22.5123   YY=            -26.0083   ZZ=            -27.3508
   XY=              1.6639   XZ=             -1.3503   YZ=             -0.6859

  Exact polarizability:  72.449   1.519  40.889  -1.197   0.825  36.214
 Approx polarizability: 110.703   4.748  62.520  -2.326  -0.141  53.270

                      1                      2                      3
                      A                      A                      A
 Frequencies --    275.9797               309.6505               561.4881
 Red. masses --      1.4286                 2.7001                 1.1757
 Frc consts  --      0.0641                 0.1525                 0.2184
 IR Inten    --     27.2913                 5.7149                 2.0774

                      4                      5                      6
                      A                      A                      A
 Frequencies --    708.8193               903.0225               958.5912
 Red. masses --      6.2335                 1.3366                 1.1353
 Frc consts  --      1.8452                 0.6422                 0.6146
 IR Inten    --      7.2801                38.8662                10.5824

                      7                      8                      9
                      A                      A                      A
 Frequencies --   1015.1307              1409.5346              1670.1690
 Red. masses --      1.4980                 1.1158                 6.9947
 Frc consts  --      0.9095                 1.3061                11.4958
 IR Inten    --      4.6131                 5.5448                40.0937

                     10                     11                     12
                      A                      A                      A
 Frequencies --   2640.5781              3063.2810              3158.2929
 Red. masses --      1.0389                 1.0624                 1.1050
 Frc consts  --      4.2680                 5.8737                 6.4941
 IR Inten    --      0.5628                 5.1327                 2.2321

 - Thermochemistry -
 -------------------
 Temperature   298.150 Kelvin.  Pressure   1.00000 Atm.
 Atom     1 has atomic number 16 and mass  31.97207

 Molecular mass:    58.99555 amu.
 Principal axes and moments of inertia in atomic units:
                           1         2         3
     Eigenvalues --    20.89716 320.17648 334.87022
           X            0.99958   0.02664  -0.01138
           Y           -0.02696   0.99922  -0.02880
           Z            0.01061   0.02910   0.99952
 This molecule is an asymmetric top.
 Rotational symmetry number  1.
 Rotational temperatures (Kelvin)      4.14477     0.27052     0.25865
 Rotational constants (GHZ):          86.36300     5.63671     5.38937
 Zero-point vibrational energy      99735.9 (Joules/Mol)
                                   23.83745 (Kcal/Mol)
 Warning -- explicit consideration of   3 degrees of freedom as
           vibrations may cause significant error
 Vibrational temperatures:    397.07   445.52   807.86  1019.83  1299.25
          (Kelvin)           1379.20  1460.54  2028.00  2403.00  3799.20
                             4407.37  4544.07

 Zero-point correction=                           0.037987 (Hartree/Particle)
 Thermal correction to Energy=                    0.042112
 Thermal correction to Enthalpy=                  0.043056
 Thermal correction to Gibbs Free Energy=         0.011720
 Sum of electronic and zero-point Energies=           -476.133686
 Sum of electronic and thermal Energies=              -476.129562
 Sum of electronic and thermal Enthalpies=            -476.128618
 Sum of electronic and thermal Free Energies=         -476.159954

                     E (Thermal)             CV                S
                      KCal/Mol        Cal/Mol-Kelvin    Cal/Mol-Kelvin
 Total                   26.426             12.688             65.953
 Electronic               0.000              0.000              1.377
 Translational            0.889              2.981             38.145
 Rotational               0.889              2.981             22.332
 Vibrational             24.648              6.726              4.099
 Vibration     1          0.678              1.718              1.558
 Vibration     2          0.699              1.655              1.364
 Vibration     3          0.917              1.115              0.521

 Optimization completed.
    -- Stationary point found.
 Normal termination of Gaussian 09 at Wed Aug  3 21:02:32 2016.
