 Gaussian 09, Revision E.01,
 Gaussian 09:  EM64L-G09RevE.01 30-Nov-2015

 ------------------------------
 #p b3lyp/6-311++G(3df,2p) freq
 ------------------------------

 ---------
 b3lyp opt
 ---------
 Symbolic Z-matrix:
 Charge =  1 Multiplicity = 1

                         Standard orientation:
 ---------------------------------------------------------------------
 Center     Atomic      Atomic             Coordinates (Angstroms)
 Number     Number       Type             X           Y           Z
 ---------------------------------------------------------------------
      1         16           0       -1.269163   -0.495154   -0.000486
      2         16           0        1.715742    0.295333   -0.000343
      3          6           0        0.586668   -0.806507    0.000982
      4          6           0       -1.409346    1.105835    0.000539
      5          1           0        0.716723   -1.885457    0.002276
      6          1           0       -2.401398    1.543591    0.000001
      7          1           0       -0.524527    1.743040    0.001856
 ---------------------------------------------------------------------

 SCF Done:  E(RB3LYP) =  -874.135977924     A.U. after   12 cycles

 The electronic state is 1-A.
 Alpha  occ. eigenvalues --  -89.15135 -89.07020 -10.48818 -10.47573  -8.23493
 Alpha  occ. eigenvalues --   -8.15571  -6.19611  -6.19498  -6.19216  -6.11896
 Alpha  occ. eigenvalues --   -6.11662  -6.10960  -1.09616  -1.01114  -0.88591
 Alpha  occ. eigenvalues --   -0.78812  -0.72574  -0.66715  -0.63671  -0.60223
 Alpha  occ. eigenvalues --   -0.58227  -0.52635  -0.45488
 Alpha virt. eigenvalues --   -0.35864  -0.28265  -0.22301  -0.16871  -0.14891
 Alpha virt. eigenvalues --   -0.12248  -0.11126  -0.10762  -0.10260  -0.10060
 Alpha virt. eigenvalues --   -0.07897  -0.06614  -0.06302  -0.06040  -0.03904

 Mulliken charges:
               1
     1  S    0.207920
     2  S   -0.026033
     3  C    0.130798
     4  C   -0.034277
     5  H    0.260051
     6  H    0.243180
     7  H    0.218360
 Sum of Mulliken charges =   1.00000

 Dipole moment (field-independent basis, Debye):
    X=             -2.8530    Y=              0.7405    Z=              0.0019  Tot=              2.9475
 Quadrupole moment (field-independent basis, Debye-Ang):
   XX=            -23.4683   YY=            -26.1815   ZZ=            -34.9910
   XY=             -3.4808   XZ=             -0.0007   YZ=              0.0008

  Exact polarizability:  80.786  -1.040  58.637  -0.003  -0.003  36.184
 Approx polarizability: 143.832  10.587 118.529  -0.020  -0.004  61.085

                      1                      2                      3
                      A                      A                      A
 Frequencies --     84.4866               229.3860               340.6299
 Red. masses --      3.0994                 3.9103                 8.7402
 Frc consts  --      0.0130                 0.1212                 0.5975
 IR Inten    --      5.8294                 8.1345                 9.9894

                      4                      5                      6
                      A                      A                      A
 Frequencies --    523.3409               595.1908               821.5589
 Red. masses --      6.5336                 1.0262                 1.4350
 Frc consts  --      1.0543                 0.2142                 0.5707
 IR Inten    --     34.0007                 1.9974                24.6533

                      7                      8                      9
                      A                      A                      A
 Frequencies --    929.1191              1041.5536              1044.5510
 Red. masses --      1.3376                 4.4120                 1.2812
 Frc consts  --      0.6803                 2.8200                 0.8236
 IR Inten    --     15.8077                39.0178                30.4766

                     10                     11                     12
                      A                      A                      A
 Frequencies --   1117.5089              1262.7543              1416.2106
 Red. masses --      3.8942                 1.2310                 1.2153
 Frc consts  --      2.8653                 1.1565                 1.4361
 IR Inten    --     23.9158                23.8870                12.5668

                     13                     14                     15
                      A                      A                      A
 Frequencies --   3066.0055              3135.0024              3214.3249
 Red. masses --      1.0581                 1.0926                 1.1151
 Frc consts  --      5.8606                 6.3266                 6.7881
 IR Inten    --     11.7928                 9.2844                74.5530

 - Thermochemistry -
 -------------------
 Temperature   298.150 Kelvin.  Pressure   1.00000 Atm.
 Atom     1 has atomic number 16 and mass  31.97207

 Molecular mass:    90.96762 amu.
 Principal axes and moments of inertia in atomic units:
                           1         2         3
     Eigenvalues --   149.55008 644.19235 793.74218
           X            0.99908  -0.04283   0.00000
           Y            0.04283   0.99908  -0.00002
           Z           -0.00000   0.00002   1.00000
 This molecule is an asymmetric top.
 Rotational symmetry number  1.
 Rotational temperatures (Kelvin)      0.57916     0.13445     0.10912
 Rotational constants (GHZ):          12.06781     2.80156     2.27371
 Zero-point vibrational energy     112578.3 (Joules/Mol)
                                   26.90686 (Kcal/Mol)
 Warning -- explicit consideration of   5 degrees of freedom as
           vibrations may cause significant error
 Vibrational temperatures:    121.56   330.03   490.09   752.97   856.35
          (Kelvin)           1182.04  1336.79  1498.56  1502.87  1607.84
                             1816.82  2037.61  4411.29  4510.56  4624.69

 Zero-point correction=                           0.042879 (Hartree/Particle)
 Thermal correction to Energy=                    0.047960
 Thermal correction to Enthalpy=                  0.048905
 Thermal correction to Gibbs Free Energy=         0.013844
 Sum of electronic and zero-point Energies=           -874.093099
 Sum of electronic and thermal Energies=              -874.088018
 Sum of electronic and thermal Enthalpies=            -874.087073
 Sum of electronic and thermal Free Energies=         -874.122134

                     E (Thermal)             CV                S
                      KCal/Mol        Cal/Mol-Kelvin    Cal/Mol-Kelvin
 Total                   30.096             15.828             73.791
 Electronic               0.000              0.000              0.000
 Translational            0.889              2.981             39.436
 Rotational               0.889              2.981             25.839
 Vibrational             28.318              9.866              8.516
 Vibration     1          0.601              1.960              3.784
 Vibration     2          0.652              1.796              1.884
 Vibration     3          0.720              1.594              1.209
 Vibration     4          0.878              1.198              0.602
 Vibration     5          0.953              1.042              0.458

 Normal termination of Gaussian 09 at Wed Aug  3 20:32:22 2016.
