 Gaussian 09, Revision E.01,
 Gaussian 09:  EM64L-G09RevE.01 30-Nov-2015

 ------------------------------
 #p b3lyp/6-311++G(3df,2p) freq
 ------------------------------

 ---------
 b3lyp opt
 ---------
 Symbolic Z-matrix:
 Charge =  1 Multiplicity = 1

                         Standard orientation:
 ---------------------------------------------------------------------
 Center     Atomic      Atomic             Coordinates (Angstroms)
 Number     Number       Type             X           Y           Z
 ---------------------------------------------------------------------
      1         16           0       -1.638414   -0.471969   -0.021079
      2         16           0        1.714587   -0.204222   -0.104764
      3          6           0        0.078226    0.232996    0.137937
      4          6           0       -0.835865    1.131978    0.029241
      5          1           0        2.315029    1.012445   -0.056049
      6          1           0       -1.094397    2.171850   -0.089560
      7          1           0        2.106424   -0.555074    1.156034
 ---------------------------------------------------------------------

 SCF Done:  E(RB3LYP) =  -874.064650822     A.U. after   14 cycles

 The electronic state is 1-A.
 Alpha  occ. eigenvalues --  -89.19285 -89.05615 -10.45049 -10.44793  -8.27448
 Alpha  occ. eigenvalues --   -8.13832  -6.23637  -6.23530  -6.23092  -6.10318
 Alpha  occ. eigenvalues --   -6.09990  -6.09031  -1.11615  -1.05687  -0.83086
 Alpha  occ. eigenvalues --   -0.80072  -0.73460  -0.72580  -0.64168  -0.56852
 Alpha  occ. eigenvalues --   -0.55997  -0.52888  -0.39380
 Alpha virt. eigenvalues --   -0.27339  -0.24341  -0.23737  -0.21506  -0.17617
 Alpha virt. eigenvalues --   -0.16401  -0.11637  -0.11371  -0.10653  -0.09937
 Alpha virt. eigenvalues --   -0.08612  -0.07335  -0.06145  -0.05711  -0.04906

 Mulliken charges:
               1
     1  S   -0.010208
     2  S   -0.046292
     3  C   -0.111272
     4  C    0.357542
     5  H    0.241583
     6  H    0.329766
     7  H    0.238880
 Sum of Mulliken charges =   1.00000

 Dipole moment (field-independent basis, Debye):
    X=              5.1122    Y=              2.0543    Z=              0.6579  Tot=              5.5486
 Quadrupole moment (field-independent basis, Debye-Ang):
   XX=            -16.7264   YY=            -27.8855   ZZ=            -35.8331
   XY=             -1.5750   XZ=              2.1606   YZ=             -1.3184

  Exact polarizability:  88.006   1.528  51.552   3.239  -1.076  40.843
 Approx polarizability: 159.579   1.566  93.151   7.547  -2.721  64.464

                      1                      2                      3
                      A                      A                      A
 Frequencies --    128.4233               160.1838               216.1909
 Red. masses --      1.6657                 2.2183                 5.6313
 Frc consts  --      0.0162                 0.0335                 0.1551
 IR Inten    --     23.2828                10.5196                 0.8382

                      4                      5                      6
                      A                      A                      A
 Frequencies --    406.1581               594.9451               742.1766
 Red. masses --      4.2843                 9.6529                 3.4030
 Frc consts  --      0.4164                 2.0131                 1.1044
 IR Inten    --      9.6926                71.9114                 0.1143

                      7                      8                      9
                      A                      A                      A
 Frequencies --    823.6381               899.2899               916.2675
 Red. masses --      1.3168                 1.2573                 1.3279
 Frc consts  --      0.5263                 0.5991                 0.6569
 IR Inten    --     20.8888                 1.7423                 2.1524

                     10                     11                     12
                      A                      A                      A
 Frequencies --    998.0680              1172.6127              1751.7390
 Red. masses --      1.2422                 1.0378                 7.1478
 Frc consts  --      0.7291                 0.8407                12.9229
 IR Inten    --     20.7261                27.1908               127.1460

                     13                     14                     15
                      A                      A                      A
 Frequencies --   2474.8510              2577.2482              3260.0915
 Red. masses --      1.0399                 1.0380                 1.1183
 Frc consts  --      3.7528                 4.0623                 7.0025
 IR Inten    --     29.7046                43.0331                47.0396

 - Thermochemistry -
 -------------------
 Temperature   298.150 Kelvin.  Pressure   1.00000 Atm.
 Atom     1 has atomic number 16 and mass  31.97207

 Molecular mass:    90.96762 amu.
 Principal axes and moments of inertia in atomic units:
                           1         2         3
     Eigenvalues --   115.77895 718.37877 820.62487
           X            0.99991  -0.00600   0.01241
           Y            0.00638   0.99952  -0.03039
           Z           -0.01222   0.03047   0.99946
 This molecule is an asymmetric top.
 Rotational symmetry number  1.
 Rotational temperatures (Kelvin)      0.74810     0.12057     0.10555
 Rotational constants (GHZ):          15.58782     2.51224     2.19923
 Zero-point vibrational energy     102411.6 (Joules/Mol)
                                   24.47696 (Kcal/Mol)
 Warning -- explicit consideration of   5 degrees of freedom as
           vibrations may cause significant error
 Vibrational temperatures:    184.77   230.47   311.05   584.37   855.99
          (Kelvin)           1067.83  1185.03  1293.88  1318.30  1436.00
                             1687.13  2520.36  3560.75  3708.08  4690.54

 Zero-point correction=                           0.039007 (Hartree/Particle)
 Thermal correction to Energy=                    0.044480
 Thermal correction to Enthalpy=                  0.045424
 Thermal correction to Gibbs Free Energy=         0.009821
 Sum of electronic and zero-point Energies=           -874.025644
 Sum of electronic and thermal Energies=              -874.020171
 Sum of electronic and thermal Enthalpies=            -874.019227
 Sum of electronic and thermal Free Energies=         -874.054830

                     E (Thermal)             CV                S
                      KCal/Mol        Cal/Mol-Kelvin    Cal/Mol-Kelvin
 Total                   27.911             17.072             74.933
 Electronic               0.000              0.000              0.000
 Translational            0.889              2.981             39.436
 Rotational               0.889              2.981             25.726
 Vibrational             26.134             11.110              9.771
 Vibration     1          0.611              1.925              2.970
 Vibration     2          0.622              1.891              2.548
 Vibration     3          0.645              1.816              1.991
 Vibration     4          0.771              1.457              0.940
 Vibration     5          0.953              1.043              0.458

 Normal termination of Gaussian 09 at Wed Aug  3 20:40:05 2016.
