 Gaussian 09, Revision E.01,
 Gaussian 09:  EM64L-G09RevE.01 30-Nov-2015

 ------------------------------
 #p b3lyp/6-311++G(3df,2p) freq
 ------------------------------

 ---------
 b3lyp opt
 ---------
 Symbolic Z-matrix:
 Charge =  0 Multiplicity = 2

                         Standard orientation:
 ---------------------------------------------------------------------
 Center     Atomic      Atomic             Coordinates (Angstroms)
 Number     Number       Type             X           Y           Z
 ---------------------------------------------------------------------
      1         16           0        1.488519   -0.442570   -0.124040
      2         16           0       -1.715072   -0.241604   -0.019315
      3          6           0       -0.137581    0.434037    0.494815
      4          6           0        0.655677    1.302938   -0.322691
      5          1           0       -1.649623    0.233919   -1.275648
      6          1           0       -0.100364    0.477763    1.584874
      7          1           0        2.266249   -0.186752    0.951709
 ---------------------------------------------------------------------

 SCF Done:  E(UB3LYP) =  -874.319032795     A.U. after   16 cycles

 The electronic state is 2-A.
 Alpha  occ. eigenvalues --  -88.91100 -88.87865 -10.26785 -10.20694  -7.99472
 Alpha  occ. eigenvalues --   -7.96486  -5.95795  -5.95411  -5.95041  -5.92859
 Alpha  occ. eigenvalues --   -5.92510  -5.91946  -0.88797  -0.77691  -0.67787
 Alpha  occ. eigenvalues --   -0.58756  -0.48011  -0.43618  -0.40972  -0.38775
 Alpha  occ. eigenvalues --   -0.34065  -0.28858  -0.25558  -0.21422
 Alpha virt. eigenvalues --   -0.05081  -0.02933  -0.02326  -0.01201   0.00469
 Alpha virt. eigenvalues --    0.01638   0.04399   0.04932   0.05391   0.06231
 Alpha virt. eigenvalues --    0.06437   0.07782   0.08332   0.09014   0.09941

  Beta  occ. eigenvalues --  -88.91109 -88.87791 -10.26893 -10.19448  -7.99471
  Beta  occ. eigenvalues --   -7.96415  -5.95810  -5.95421  -5.95048  -5.92743
  Beta  occ. eigenvalues --   -5.92362  -5.91903  -0.87833  -0.77271  -0.66931
  Beta  occ. eigenvalues --   -0.57351  -0.47110  -0.43001  -0.40274  -0.38467
  Beta  occ. eigenvalues --   -0.33403  -0.28132  -0.24418
  Beta virt. eigenvalues --   -0.08863  -0.05039  -0.02542  -0.01600  -0.00910
  Beta virt. eigenvalues --    0.00803   0.01741   0.04573   0.05067   0.05630
  Beta virt. eigenvalues --    0.06250   0.06457   0.07844   0.08486   0.09398

 Mulliken charges and spin densities:
               1          2
     1  S   -0.114830  -0.003134
     2  S   -0.372661   0.075481
     3  C    0.665001  -0.035192
     4  C   -0.678646   0.868457
     5  H    0.168321  -0.000124
     6  H    0.181904   0.052921
     7  H    0.150911   0.041592
 Sum of Mulliken charges =  -0.00000   1.00000

 Dipole moment (field-independent basis, Debye):
    X=              0.2114    Y=             -1.8233    Z=              1.6036  Tot=              2.4373
 Quadrupole moment (field-independent basis, Debye-Ang):
   XX=            -37.0633   YY=            -45.9387   ZZ=            -36.4274
   XY=             -3.0409   XZ=              4.2819   YZ=              1.9838

  Exact polarizability:  91.592  -2.196  65.561   2.512  -2.414  57.137
 Approx polarizability: 147.592 -12.271 115.883   3.659  -4.287  95.810

                      1                      2                      3
                      A                      A                      A
 Frequencies --    158.2667               277.8116               312.4968
 Red. masses --     13.0949                 1.2680                 1.5845
 Frc consts  --      0.1933                 0.0577                 0.0912
 IR Inten    --     12.9648                19.7036                 2.5431

                      4                      5                      6
                      A                      A                      A
 Frequencies --    373.5624               415.5309               472.2268
 Red. masses --      2.7228                 4.5958                 5.0920
 Frc consts  --      0.2239                 0.4675                 0.6690
 IR Inten    --     28.3747                22.4270                39.7303

                      7                      8                      9
                      A                      A                      A
 Frequencies --    637.1818               824.5549               932.0667
 Red. masses --      4.3437                 1.1114                 1.1980
 Frc consts  --      1.0390                 0.4452                 0.6132
 IR Inten    --     63.3799                 1.0347                 3.9219

                     10                     11                     12
                      A                      A                      A
 Frequencies --    945.5527              1111.5910              1239.7884
 Red. masses --      1.2082                 3.1776                 1.2818
 Frc consts  --      0.6364                 2.3133                 1.1608
 IR Inten    --     22.1955                 1.2877                22.7074

                     13                     14                     15
                      A                      A                      A
 Frequencies --   2582.3975              2659.4236              3039.9072
 Red. masses --      1.0395                 1.0383                 1.0845
 Frc consts  --      4.0843                 4.3266                 5.9046
 IR Inten    --      1.9180                 1.0507                 6.8362

 - Thermochemistry -
 -------------------
 Temperature   298.150 Kelvin.  Pressure   1.00000 Atm.
 Atom     1 has atomic number 16 and mass  31.97207

 Molecular mass:    90.96762 amu.
 Principal axes and moments of inertia in atomic units:
                           1         2         3
     Eigenvalues --   145.46334 671.20878 747.70061
           X            0.99969  -0.00615   0.02409
           Y            0.00585   0.99991   0.01245
           Z           -0.02417  -0.01231   0.99963
 This molecule is an asymmetric top.
 Rotational symmetry number  1.
 Rotational temperatures (Kelvin)      0.59543     0.12904     0.11584
 Rotational constants (GHZ):          12.40685     2.68879     2.41372
 Zero-point vibrational energy      95595.7 (Joules/Mol)
                                   22.84793 (Kcal/Mol)
 Warning -- explicit consideration of   6 degrees of freedom as
           vibrations may cause significant error
 Vibrational temperatures:    227.71   399.71   449.61   537.47   597.86
          (Kelvin)            679.43   916.76  1186.35  1341.03  1360.44
                             1599.33  1783.78  3715.49  3826.31  4373.74

 Zero-point correction=                           0.036410 (Hartree/Particle)
 Thermal correction to Energy=                    0.041945
 Thermal correction to Enthalpy=                  0.042889
 Thermal correction to Gibbs Free Energy=         0.006927
 Sum of electronic and zero-point Energies=           -874.282622
 Sum of electronic and thermal Energies=              -874.277088
 Sum of electronic and thermal Enthalpies=            -874.276143
 Sum of electronic and thermal Free Energies=         -874.312106

                     E (Thermal)             CV                S
                      KCal/Mol        Cal/Mol-Kelvin    Cal/Mol-Kelvin
 Total                   26.321             18.410             75.689
 Electronic               0.000              0.000              1.377
 Translational            0.889              2.981             39.436
 Rotational               0.889              2.981             25.793
 Vibrational             24.544             12.449              9.083
 Vibration     1          0.621              1.893              2.570
 Vibration     2          0.679              1.715              1.547
 Vibration     3          0.701              1.650              1.349
 Vibration     4          0.745              1.526              1.065
 Vibration     5          0.779              1.437              0.907
 Vibration     6          0.829              1.312              0.731

 Normal termination of Gaussian 09 at Wed Aug  3 20:25:15 2016.
