 Gaussian 09, Revision E.01,
 Gaussian 09:  EM64L-G09RevE.01 30-Nov-2015

 ------------------------------
 #p b3lyp/6-311++G(3df,2p) freq
 ------------------------------

 ---------
 b3lyp opt
 ---------
 Symbolic Z-matrix:
 Charge =  1 Multiplicity = 1

                         Standard orientation:
 ---------------------------------------------------------------------
 Center     Atomic      Atomic             Coordinates (Angstroms)
 Number     Number       Type             X           Y           Z
 ---------------------------------------------------------------------
      1         16           0        0.015713   -1.079150   -0.000000
      2          6           0        0.123227    1.792064    0.000000
      3          6           0        0.000000    0.516080    0.000000
      4          1           0        0.169689    2.350533    0.934085
      5          1           0        0.169689    2.350533   -0.934085
      6          1           0       -1.330149   -1.283536   -0.000000
 ---------------------------------------------------------------------

 SCF Done:  E(RB3LYP) =  -475.908378313     A.U. after   11 cycles

 The electronic state is 1-A'.
 Alpha  occ. eigenvalues --  -89.16579 -10.50613 -10.44395  -8.24933  -6.21172
 Alpha  occ. eigenvalues --   -6.20750  -6.20728  -1.10339  -1.00771  -0.79904
 Alpha  occ. eigenvalues --   -0.72888  -0.70285  -0.66227  -0.57678  -0.54301
 Alpha virt. eigenvalues --   -0.33326  -0.27584  -0.20423  -0.18389  -0.14679
 Alpha virt. eigenvalues --   -0.11301  -0.11206  -0.10211  -0.08236  -0.07765
 Alpha virt. eigenvalues --   -0.06706  -0.04980  -0.04847  -0.04137  -0.01420

 Mulliken charges:
               1
     1  S    0.038042
     2  C   -0.076937
     3  C    0.333531
     4  H    0.239650
     5  H    0.239650
     6  H    0.226063
 Sum of Mulliken charges =   1.00000

 Dipole moment (field-independent basis, Debye):
    X=             -0.8605    Y=              1.1450    Z=             -0.0000  Tot=              1.4323
 Quadrupole moment (field-independent basis, Debye-Ang):
   XX=            -21.4103   YY=             -7.5120   ZZ=            -21.1401
   XY=              2.8030   XZ=              0.0000   YZ=             -0.0000

  Exact polarizability:  28.354   4.567  63.899  -0.000   0.000  27.070
 Approx polarizability:  43.739   8.654 116.787  -0.000   0.000  40.673

                      1                      2                      3
                     A'                     A"                     A"
 Frequencies --    297.8179               339.2682               739.2266
 Red. masses --      4.2084                 2.2474                 1.0286
 Frc consts  --      0.2199                 0.1524                 0.3312
 IR Inten    --     11.7875                 7.7163                 7.9061

                      4                      5                      6
                     A'                     A"                     A'
 Frequencies --    802.6676               870.0726               931.6397
 Red. masses --      6.3492                 1.7361                 1.3128
 Frc consts  --      2.4101                 0.7743                 0.6714
 IR Inten    --     10.6162                 0.1497                44.3853

                      7                      8                      9
                     A'                     A'                     A'
 Frequencies --    999.3444              1339.4354              1837.6131
 Red. masses --      1.1431                 1.1156                 9.1298
 Frc consts  --      0.6726                 1.1792                18.1644
 IR Inten    --     13.3854                30.9180                63.0379

                     10                     11                     12
                     A'                     A'                     A"
 Frequencies --   2553.0551              3083.1186              3159.8606
 Red. masses --      1.0400                 1.0600                 1.1130
 Frc consts  --      3.9939                 5.9368                 6.5478
 IR Inten    --     38.9818               157.3853                74.6556

 - Thermochemistry -
 -------------------
 Temperature   298.150 Kelvin.  Pressure   1.00000 Atm.
 Atom     1 has atomic number 16 and mass  31.97207

 Molecular mass:    58.99555 amu.
 Principal axes and moments of inertia in atomic units:
                           1         2         3
     Eigenvalues --    12.60171 334.16729 334.20826
           X            0.05214   0.99864  -0.00000
           Y            0.99864  -0.05214   0.00000
           Z            0.00000   0.00000   1.00000
 This molecule is an asymmetric top.
 Rotational symmetry number  1.
 Rotational temperatures (Kelvin)      6.87318     0.25919     0.25916
 Rotational constants (GHZ):         143.21398     5.40071     5.40005
 Zero-point vibrational energy     101402.2 (Joules/Mol)
                                   24.23570 (Kcal/Mol)
 Warning -- explicit consideration of   2 degrees of freedom as
           vibrations may cause significant error
 Vibrational temperatures:    428.49   488.13  1063.58  1154.86  1251.84
          (Kelvin)           1340.42  1437.83  1927.15  2643.91  3673.27
                             4435.91  4546.33

 Zero-point correction=                           0.038622 (Hartree/Particle)
 Thermal correction to Energy=                    0.042582
 Thermal correction to Enthalpy=                  0.043527
 Thermal correction to Gibbs Free Energy=         0.013343
 Sum of electronic and zero-point Energies=           -475.869756
 Sum of electronic and thermal Energies=              -475.865796
 Sum of electronic and thermal Enthalpies=            -475.864852
 Sum of electronic and thermal Free Energies=         -475.895036

                     E (Thermal)             CV                S
                      KCal/Mol        Cal/Mol-Kelvin    Cal/Mol-Kelvin
 Total                   26.721             12.171             63.528
 Electronic               0.000              0.000              0.000
 Translational            0.889              2.981             38.145
 Rotational               0.889              2.981             21.870
 Vibrational             24.943              6.209              3.513
 Vibration     1          0.691              1.678              1.429
 Vibration     2          0.719              1.597              1.216

 Optimization completed.
    -- Stationary point found.
 Normal termination of Gaussian 09 at Wed Aug  3 22:54:31 2016.
