 Gaussian 09, Revision E.01,
 Gaussian 09:  EM64L-G09RevE.01 30-Nov-2015

 ------------------------------
 #p b3lyp/6-311++G(3df,2p) freq
 ------------------------------

 ---------
 b3lyp opt
 ---------
 Symbolic Z-matrix:
 Charge =  0 Multiplicity = 4

                         Standard orientation:
 ---------------------------------------------------------------------
 Center     Atomic      Atomic             Coordinates (Angstroms)
 Number     Number       Type             X           Y           Z
 ---------------------------------------------------------------------
      1         16           0        1.440890   -0.531417   -0.061998
      2         16           0       -1.531063   -0.401977    0.018958
      3          6           0        0.000420    0.533089    0.365284
      4          6           0        0.060064    1.873154   -0.303253
      5          1           0       -1.282876   -0.600590   -1.286713
      6          1           0       -0.016867    0.690234    1.445249
      7          1           0        2.379602    0.407190    0.157919
 ---------------------------------------------------------------------

 SCF Done:  E(UB3LYP) =  -874.240587397     A.U. after   18 cycles

 The electronic state is 4-A.
 Alpha  occ. eigenvalues --  -88.88003 -88.87492 -10.28691 -10.23802  -7.96601
 Alpha  occ. eigenvalues --   -7.96066  -5.92975  -5.92606  -5.92466  -5.92119
 Alpha  occ. eigenvalues --   -5.92101  -5.91532  -0.86170  -0.75008  -0.70386
 Alpha  occ. eigenvalues --   -0.57936  -0.48351  -0.44688  -0.40571  -0.38655
 Alpha  occ. eigenvalues --   -0.35806  -0.28599  -0.27427  -0.23244  -0.22762
 Alpha virt. eigenvalues --   -0.03375  -0.01330   0.00034   0.00599   0.01619
 Alpha virt. eigenvalues --    0.04085   0.05183   0.05421   0.06278   0.07128
 Alpha virt. eigenvalues --    0.07196   0.07929   0.08567   0.09719   0.10789

  Beta  occ. eigenvalues --  -88.87871 -88.87368 -10.28477 -10.19910  -7.96477
  Beta  occ. eigenvalues --   -7.95952  -5.92795  -5.92460  -5.92280  -5.91930
  Beta  occ. eigenvalues --   -5.91897  -5.91367  -0.84561  -0.74274  -0.66476
  Beta  occ. eigenvalues --   -0.52843  -0.47499  -0.43681  -0.37391  -0.37203
  Beta  occ. eigenvalues --   -0.27718  -0.27093
  Beta virt. eigenvalues --   -0.18347  -0.06773  -0.06331  -0.02718  -0.01084
  Beta virt. eigenvalues --    0.00662   0.01331   0.02383   0.04470   0.05550
  Beta virt. eigenvalues --    0.05819   0.06381   0.07299   0.07859   0.08508

 Mulliken charges and spin densities:
               1          2
     1  S   -0.281222   0.182474
     2  S   -0.232545   0.178729
     3  C    0.330798  -0.086117
     4  C   -0.251869   2.675314
     5  H    0.134291   0.005538
     6  H    0.149484   0.049708
     7  H    0.151063  -0.005647
 Sum of Mulliken charges =  -0.00000   3.00000

 Dipole moment (field-independent basis, Debye):
    X=              0.4100    Y=             -0.3500    Z=              0.3893  Tot=              0.6650
 Quadrupole moment (field-independent basis, Debye-Ang):
   XX=            -38.1358   YY=            -43.5166   ZZ=            -38.1004
   XY=              2.0127   XZ=              1.4295   YZ=              2.3450

  Exact polarizability:  92.144   1.723  96.701   1.447  -5.004  55.541
 Approx polarizability: 141.699   6.899 165.975   1.044  -7.970  90.645

                      1                      2                      3
                      A                      A                      A
 Frequencies --    215.6769               255.8239               283.3895
 Red. masses --      1.9201                 2.0786                 1.0751
 Frc consts  --      0.0526                 0.0802                 0.0509
 IR Inten    --      5.3421                10.0169                25.6402

                      4                      5                      6
                      A                      A                      A
 Frequencies --    340.8792               410.8212               568.9141
 Red. masses --      7.1099                 6.5133                 4.4688
 Frc consts  --      0.4868                 0.6477                 0.8522
 IR Inten    --      1.3896                 0.8111                42.4506

                      7                      8                      9
                      A                      A                      A
 Frequencies --    672.9185               820.3772               909.3941
 Red. masses --      7.1010                 2.5969                 1.5848
 Frc consts  --      1.8945                 1.0298                 0.7722
 IR Inten    --     60.6964               127.5297                49.9763

                     10                     11                     12
                      A                      A                      A
 Frequencies --    958.5838              1154.5390              1213.7379
 Red. masses --      1.2788                 1.0910                 1.0981
 Frc consts  --      0.6923                 0.8568                 0.9531
 IR Inten    --      4.9787                 8.6398                 2.9113

                     13                     14                     15
                      A                      A                      A
 Frequencies --   2647.6126              2670.0400              3033.3327
 Red. masses --      1.0382                 1.0384                 1.0835
 Frc consts  --      4.2877                 4.3615                 5.8738
 IR Inten    --      0.7522                 1.2350                 1.2510

 - Thermochemistry -
 -------------------
 Temperature   298.150 Kelvin.  Pressure   1.00000 Atm.
 Atom     1 has atomic number 16 and mass  31.97207

 Molecular mass:    90.96762 amu.
 Principal axes and moments of inertia in atomic units:
                           1         2         3
     Eigenvalues --   240.31464 554.69172 748.25310
           X            0.99972   0.01871   0.01438
           Y           -0.01919   0.99923   0.03408
           Z           -0.01373  -0.03434   0.99932
 This molecule is an asymmetric top.
 Rotational symmetry number  1.
 Rotational temperatures (Kelvin)      0.36042     0.15615     0.11575
 Rotational constants (GHZ):           7.50991     3.25359     2.41194
 Zero-point vibrational energy      96634.6 (Joules/Mol)
                                   23.09622 (Kcal/Mol)
 Warning -- explicit consideration of   6 degrees of freedom as
           vibrations may cause significant error
 Vibrational temperatures:    310.31   368.07   407.73   490.45   591.08
          (Kelvin)            818.54   968.18  1180.34  1308.41  1379.19
                             1661.12  1746.30  3809.32  3841.59  4364.28

 Zero-point correction=                           0.036806 (Hartree/Particle)
 Thermal correction to Energy=                    0.042271
 Thermal correction to Enthalpy=                  0.043216
 Thermal correction to Gibbs Free Energy=         0.006633
 Sum of electronic and zero-point Energies=           -874.203781
 Sum of electronic and thermal Energies=              -874.198316
 Sum of electronic and thermal Enthalpies=            -874.197372
 Sum of electronic and thermal Free Energies=         -874.233955

                     E (Thermal)             CV                S
                      KCal/Mol        Cal/Mol-Kelvin    Cal/Mol-Kelvin
 Total                   26.526             18.222             76.996
 Electronic               0.000              0.000              2.755
 Translational            0.889              2.981             39.436
 Rotational               0.889              2.981             26.103
 Vibrational             24.748             12.260              8.702
 Vibration     1          0.645              1.817              1.995
 Vibration     2          0.666              1.753              1.690
 Vibration     3          0.682              1.704              1.513
 Vibration     4          0.720              1.594              1.208
 Vibration     5          0.775              1.447              0.924
 Vibration     6          0.925              1.098              0.506

 Optimization completed.
    -- Stationary point found.
 Normal termination of Gaussian 09 at Wed Aug  3 20:25:26 2016.
