 Gaussian 09, Revision E.01,
 Gaussian 09:  EM64L-G09RevE.01 30-Nov-2015

 ------------------------------
 #p b3lyp/6-311++G(3df,2p) freq
 ------------------------------

 ---------
 b3lyp opt
 ---------
 Symbolic Z-matrix:
 Charge =  1 Multiplicity = 1

                         Standard orientation:
 ---------------------------------------------------------------------
 Center     Atomic      Atomic             Coordinates (Angstroms)
 Number     Number       Type             X           Y           Z
 ---------------------------------------------------------------------
      1         16           0        0.639340   -1.019943   -0.000000
      2         16           0       -1.579075    1.057013    0.000000
      3          6           0       -0.000000    0.597636    0.000000
      4          6           0        2.269787   -0.632889   -0.000000
      5          1           0        0.750046    1.388050   -0.000000
      6          1           0        2.808981   -1.592962   -0.000000
      7          1           0       -2.141991   -0.176684    0.000000
 ---------------------------------------------------------------------

 SCF Done:  E(RB3LYP) =  -874.063955557     A.U. after   14 cycles

 The electronic state is 1-A'.
 Alpha  occ. eigenvalues --  -89.14952 -89.12730 -10.51002 -10.43006  -8.23402
 Alpha  occ. eigenvalues --   -8.21031  -6.19593  -6.19235  -6.19203  -6.17266
 Alpha  occ. eigenvalues --   -6.16924  -6.16770  -1.10619  -1.03233  -0.87881
 Alpha  occ. eigenvalues --   -0.80594  -0.70197  -0.67146  -0.61057  -0.60239
 Alpha  occ. eigenvalues --   -0.59605  -0.53169  -0.44274
 Alpha virt. eigenvalues --   -0.35327  -0.28002  -0.23693  -0.17565  -0.15933
 Alpha virt. eigenvalues --   -0.15510  -0.13591  -0.12129  -0.10342  -0.10207
 Alpha virt. eigenvalues --   -0.07739  -0.07378  -0.06940  -0.05815  -0.05313

 Mulliken charges:
               1
     1  S    0.130955
     2  S   -0.012637
     3  C    0.374154
     4  C   -0.185009
     5  H    0.248631
     6  H    0.241296
     7  H    0.202611
 Sum of Mulliken charges =   1.00000

 Dipole moment (field-independent basis, Debye):
    X=             -2.1054    Y=             -0.0617    Z=              0.0000  Tot=              2.1064
 Quadrupole moment (field-independent basis, Debye-Ang):
   XX=            -22.7851   YY=            -27.7770   ZZ=            -35.5690
   XY=             -7.5150   XZ=              0.0000   YZ=              0.0000

  Exact polarizability:  94.940 -19.027  59.835   0.001  -0.001  37.794
 Approx polarizability: 180.816 -33.561 103.356  -0.000   0.000  63.122

                      1                      2                      3
                     A"                     A'                     A'
 Frequencies --    121.7352               215.3651               364.8245
 Red. masses --      2.8064                 5.1990                 7.7989
 Frc consts  --      0.0245                 0.1421                 0.6116
 IR Inten    --      0.5598                 1.2826                14.4269

                      4                      5                      6
                     A"                     A'                     A"
 Frequencies --    496.6401               642.4403               737.3834
 Red. masses --      1.2730                 4.5105                 1.2410
 Frc consts  --      0.1850                 1.0968                 0.3976
 IR Inten    --      0.2761                11.7541                37.4973

                      7                      8                      9
                     A'                     A"                     A'
 Frequencies --    797.9611               959.8992               978.6657
 Red. masses --      6.6485                 1.1970                 1.6606
 Frc consts  --      2.4942                 0.6498                 0.9371
 IR Inten    --     97.2226                27.6607                27.7404

                     10                     11                     12
                     A'                     A'                     A'
 Frequencies --   1003.2550              1055.4548              1266.2189
 Red. masses --      1.2871                 1.7183                 1.4546
 Frc consts  --      0.7633                 1.1278                 1.3741
 IR Inten    --     90.3955                22.9159                34.8365

                     13                     14                     15
                     A'                     A'                     A'
 Frequencies --   2594.5995              3035.8317              3124.4551
 Red. masses --      1.0389                 1.0841                 1.0900
 Frc consts  --      4.1206                 5.8865                 6.2692
 IR Inten    --     19.5640                 4.7780                38.6854

 - Thermochemistry -
 -------------------
 Temperature   298.150 Kelvin.  Pressure   1.00000 Atm.
 Atom     1 has atomic number 16 and mass  31.97207

 Molecular mass:    90.96762 amu.
 Principal axes and moments of inertia in atomic units:
                           1         2         3
     Eigenvalues --    76.78724 817.18974 893.97698
           X            0.83982   0.54286   0.00000
           Y           -0.54286   0.83982   0.00000
           Z           -0.00000  -0.00000   1.00000
 This molecule is an asymmetric top.
 Rotational symmetry number  1.
 Rotational temperatures (Kelvin)      1.12797     0.10599     0.09689
 Rotational constants (GHZ):          23.50314     2.20847     2.01878
 Zero-point vibrational energy     104043.6 (Joules/Mol)
                                   24.86701 (Kcal/Mol)
 Warning -- explicit consideration of   4 degrees of freedom as
           vibrations may cause significant error
 Vibrational temperatures:    175.15   309.86   524.90   714.55   924.33
          (Kelvin)           1060.93  1148.09  1381.08  1408.08  1443.46
                             1518.56  1821.80  3733.05  4367.88  4495.39

 Zero-point correction=                           0.039628 (Hartree/Particle)
 Thermal correction to Energy=                    0.044741
 Thermal correction to Enthalpy=                  0.045685
 Thermal correction to Gibbs Free Energy=         0.010966
 Sum of electronic and zero-point Energies=           -874.024327
 Sum of electronic and thermal Energies=              -874.019215
 Sum of electronic and thermal Enthalpies=            -874.018270
 Sum of electronic and thermal Free Energies=         -874.052989

                     E (Thermal)             CV                S
                      KCal/Mol        Cal/Mol-Kelvin    Cal/Mol-Kelvin
 Total                   28.075             16.554             73.072
 Electronic               0.000              0.000              0.000
 Translational            0.889              2.981             39.436
 Rotational               0.889              2.981             25.531
 Vibrational             26.298             10.593              8.105
 Vibration     1          0.609              1.931              3.073
 Vibration     2          0.645              1.818              1.998
 Vibration     3          0.738              1.545              1.101
 Vibration     4          0.852              1.257              0.667

 Optimization completed.
    -- Stationary point found.
 Normal termination of Gaussian 09 at Wed Aug  3 22:56:51 2016.
