 Gaussian 09, Revision E.01,
 Gaussian 09:  EM64L-G09RevE.01 30-Nov-2015

 ------------------------------
 #p b3lyp/6-311++G(3df,2p) freq
 ------------------------------

 ---------
 b3lyp opt
 ---------
 Symbolic Z-matrix:
 Charge =  2 Multiplicity = 2

                         Standard orientation:
 ---------------------------------------------------------------------
 Center     Atomic      Atomic             Coordinates (Angstroms)
 Number     Number       Type             X           Y           Z
 ---------------------------------------------------------------------
      1         16           0       -0.358406    0.724897   -0.001435
      2         16           0        1.632028   -0.347341    0.000628
      3          6           0       -1.574946   -0.453985   -0.640209
      4          6           0       -1.576075   -0.450467    0.641805
      5          1           0       -1.909597   -0.722179   -1.639761
      6          1           0       -1.910770   -0.714741    1.642365
      7          1           0        2.348548    0.822738    0.000723
 ---------------------------------------------------------------------

 SCF Done:  E(UB3LYP) =  -873.569432071     A.U. after   16 cycles

 The electronic state is 2-A.
 Alpha  occ. eigenvalues --  -89.40473 -89.39775 -10.69240 -10.69121  -8.48173
 Alpha  occ. eigenvalues --   -8.47671  -6.44496  -6.44491  -6.44088  -6.43842
 Alpha  occ. eigenvalues --   -6.43624  -6.43280  -1.37536  -1.23969  -1.10022
 Alpha  occ. eigenvalues --   -1.02469  -0.95198  -0.89959  -0.86351  -0.82345
 Alpha  occ. eigenvalues --   -0.82079  -0.76295  -0.74416
 Alpha virt. eigenvalues --   -0.53643  -0.45980  -0.45463  -0.42794  -0.40544
 Alpha virt. eigenvalues --   -0.31000  -0.28387  -0.27388  -0.26534  -0.25881
 Alpha virt. eigenvalues --   -0.25408  -0.23899  -0.23824  -0.23165  -0.21961

  Beta  occ. eigenvalues --  -89.40476 -89.39117 -10.69219 -10.69099  -8.48172
  Beta  occ. eigenvalues --   -8.47068  -6.44537  -6.44119  -6.43784  -6.43184
  Beta  occ. eigenvalues --   -6.42903  -6.42510  -1.37304  -1.20705  -1.09280
  Beta  occ. eigenvalues --   -1.02252  -0.95029  -0.89409  -0.85635  -0.81943
  Beta  occ. eigenvalues --   -0.79851  -0.73905
  Beta virt. eigenvalues --   -0.63480  -0.52886  -0.45927  -0.44877  -0.42662
  Beta virt. eigenvalues --   -0.39516  -0.30333  -0.28285  -0.27208  -0.26273
  Beta virt. eigenvalues --   -0.25268  -0.24373  -0.23807  -0.23077  -0.22080

 Mulliken charges and spin densities:
               1          2
     1  S    0.652610  -0.015123
     2  S    0.400304   0.993937
     3  C   -0.065041   0.012521
     4  C   -0.063831   0.012659
     5  H    0.392954   0.007297
     6  H    0.393069   0.007309
     7  H    0.289936  -0.018601
 Sum of Mulliken charges =   2.00000   1.00000

 Dipole moment (field-independent basis, Debye):
    X=             -0.1529    Y=             -0.5746    Z=              0.0035  Tot=              0.5946
 Quadrupole moment (field-independent basis, Debye-Ang):
   XX=             -2.8393   YY=            -27.4837   ZZ=            -23.8257
   XY=              4.4894   XZ=             -0.0053   YZ=              0.0126

  Exact polarizability:  78.654   2.890  41.168  -0.004   0.008  40.005
 Approx polarizability: 151.666   1.461  77.676  -0.010   0.019  71.147

                      1                      2                      3
                      A                      A                      A
 Frequencies --    140.6327               162.4347               230.6043
 Red. masses --     13.2716                 1.0725                 3.2030
 Frc consts  --      0.1546                 0.0167                 0.1004
 IR Inten    --      4.4722                42.0084                 0.0226

                      4                      5                      6
                      A                      A                      A
 Frequencies --    280.9511               566.8859               572.7454
 Red. masses --      6.8970                11.2312                 7.4317
 Frc consts  --      0.3208                 2.1265                 1.4364
 IR Inten    --      3.0372                 4.9929                20.5173

                      7                      8                      9
                      A                      A                      A
 Frequencies --    753.0899               788.7647               805.7069
 Red. masses --      1.0851                 1.1887                 1.4357
 Frc consts  --      0.3626                 0.4357                 0.5491
 IR Inten    --     24.9704                67.1672                 0.2975

                     10                     11                     12
                      A                      A                      A
 Frequencies --    930.5227               961.0377              1699.2408
 Red. masses --      1.0452                 1.1918                 4.7124
 Frc consts  --      0.5332                 0.6485                 8.0169
 IR Inten    --      7.1112                28.1593                21.3206

                     13                     14                     15
                      A                      A                      A
 Frequencies --   2500.4355              3150.7071              3212.8470
 Red. masses --      1.0393                 1.0879                 1.1695
 Frc consts  --      3.8285                 6.3630                 7.1124
 IR Inten    --    184.9492               321.5708               163.2871

 - Thermochemistry -
 -------------------
 Temperature   298.150 Kelvin.  Pressure   1.00000 Atm.
 Atom     1 has atomic number 16 and mass  31.97207

 Molecular mass:    90.96762 amu.
 Principal axes and moments of inertia in atomic units:
                           1         2         3
     Eigenvalues --   151.46871 632.71653 674.98374
           X            0.99941   0.03435  -0.00001
           Y           -0.03435   0.99941   0.00090
           Z            0.00004  -0.00090   1.00000
 This molecule is an asymmetric top.
 Rotational symmetry number  1.
 Rotational temperatures (Kelvin)      0.57183     0.13689     0.12832
 Rotational constants (GHZ):          11.91494     2.85237     2.67376
 Zero-point vibrational energy     100226.8 (Joules/Mol)
                                   23.95477 (Kcal/Mol)
 Warning -- explicit consideration of   6 degrees of freedom as
           vibrations may cause significant error
 Vibrational temperatures:    202.34   233.71   331.79   404.23   815.62
          (Kelvin)            824.05  1083.53  1134.86  1159.23  1338.81
                             1382.72  2444.83  3597.56  4533.16  4622.56

 Zero-point correction=                           0.038174 (Hartree/Particle)
 Thermal correction to Energy=                    0.043947
 Thermal correction to Enthalpy=                  0.044891
 Thermal correction to Gibbs Free Energy=         0.008248
 Sum of electronic and zero-point Energies=           -873.531258
 Sum of electronic and thermal Energies=              -873.525485
 Sum of electronic and thermal Enthalpies=            -873.524541
 Sum of electronic and thermal Free Energies=         -873.561184

                     E (Thermal)             CV                S
                      KCal/Mol        Cal/Mol-Kelvin    Cal/Mol-Kelvin
 Total                   27.577             18.421             77.121
 Electronic               0.000              0.000              1.377
 Translational            0.889              2.981             39.436
 Rotational               0.889              2.981             25.673
 Vibrational             25.800             12.459             10.635
 Vibration     1          0.615              1.913              2.795
 Vibration     2          0.623              1.889              2.521
 Vibration     3          0.652              1.794              1.874
 Vibration     4          0.681              1.709              1.528
 Vibration     5          0.923              1.103              0.510
 Vibration     6          0.929              1.090              0.499

 Normal termination of Gaussian 09 at Wed Aug  3 20:58:42 2016.
