 Gaussian 09, Revision E.01,
 Gaussian 09:  EM64L-G09RevE.01 30-Nov-2015

 ------------------------------
 #p b3lyp/6-311++G(3df,2p) freq
 ------------------------------

 ---------
 b3lyp opt
 ---------
 Symbolic Z-matrix:
 Charge =  2 Multiplicity = 4

                         Standard orientation:
 ---------------------------------------------------------------------
 Center     Atomic      Atomic             Coordinates (Angstroms)
 Number     Number       Type             X           Y           Z
 ---------------------------------------------------------------------
      1         16           0       -1.502341   -0.444612    0.024899
      2         16           0        1.459884   -0.441904   -0.146354
      3          6           0        0.001232    0.495247    0.415118
      4          6           0       -0.024710    1.929049   -0.296563
      5          1           0        2.118093   -0.414819    1.051087
      6          1           0        0.011250    0.655429    1.499905
      7          1           0       -1.309169   -0.602142   -1.319038
 ---------------------------------------------------------------------

 SCF Done:  E(UB3LYP) =  -873.382947650     A.U. after   28 cycles

 The electronic state is 4-A.
 Alpha  occ. eigenvalues --  -89.39196 -89.38717 -10.76175 -10.72996  -8.47156
 Alpha  occ. eigenvalues --   -8.46725  -6.43639  -6.43306  -6.43203  -6.42897
 Alpha  occ. eigenvalues --   -6.42820  -6.42343  -1.32757  -1.22911  -1.15358
 Alpha  occ. eigenvalues --   -1.01981  -0.94218  -0.89968  -0.84015  -0.82583
 Alpha  occ. eigenvalues --   -0.81873  -0.75746  -0.75309  -0.68775
 Alpha virt. eigenvalues --   -0.58147  -0.45694  -0.42234  -0.39344  -0.39115
 Alpha virt. eigenvalues --   -0.33131  -0.29915  -0.29195  -0.27008  -0.25722
 Alpha virt. eigenvalues --   -0.25475  -0.24154  -0.23574  -0.22942  -0.20878

  Beta  occ. eigenvalues --  -89.38638 -89.38178 -10.73854 -10.72881  -8.46647
  Beta  occ. eigenvalues --   -8.46231  -6.42875  -6.42471  -6.42460  -6.42070
  Beta  occ. eigenvalues --   -6.42036  -6.41666  -1.30517  -1.19669  -1.11185
  Beta  occ. eigenvalues --   -0.98302  -0.92835  -0.88876  -0.82102  -0.80881
  Beta  occ. eigenvalues --   -0.73696
  Beta virt. eigenvalues --   -0.63771  -0.63605  -0.54802  -0.50712  -0.44659
  Beta virt. eigenvalues --   -0.40908  -0.37915  -0.37399  -0.30874  -0.29447
  Beta virt. eigenvalues --   -0.28212  -0.25453  -0.24697  -0.24410  -0.23334

 Mulliken charges and spin densities:
               1          2
     1  S    0.389774   0.831984
     2  S    0.330388   0.804762
     3  C    0.240511  -0.065655
     4  C    0.274537   1.405987
     5  H    0.273608  -0.007258
     6  H    0.244554   0.036216
     7  H    0.246627  -0.006037
 Sum of Mulliken charges =   2.00000   3.00000

 Dipole moment (field-independent basis, Debye):
    X=              0.5897    Y=              0.3024    Z=              0.5147  Tot=              0.8392
 Quadrupole moment (field-independent basis, Debye-Ang):
   XX=            -10.6328   YY=            -24.4442   ZZ=            -26.7008
   XY=             -0.0589   XZ=              4.1655   YZ=              0.8502

  Exact polarizability:  81.351  -0.871  80.758   2.747  -4.166  42.142
 Approx polarizability: 155.907   0.917 165.116   0.537  -9.277  70.298

                      1                      2                      3
                      A                      A                      A
 Frequencies --    206.7387               235.4625               312.9210
 Red. masses --      5.3995                 1.4220                 1.3583
 Frc consts  --      0.1360                 0.0464                 0.0784
 IR Inten    --      5.9547                20.6189                24.3913

                      4                      5                      6
                      A                      A                      A
 Frequencies --    371.5588               490.3575               592.9482
 Red. masses --      2.7387                 4.9214                 7.3574
 Frc consts  --      0.2228                 0.6972                 1.5241
 IR Inten    --     22.0052                 1.9016                 6.4374

                      7                      8                      9
                      A                      A                      A
 Frequencies --    600.3821               669.7150               894.6501
 Red. masses --      4.9479                 7.9153                 1.0776
 Frc consts  --      1.0508                 2.0917                 0.5082
 IR Inten    --      2.2427                55.6398                20.5990

                     10                     11                     12
                      A                      A                      A
 Frequencies --    964.3407              1138.2355              1245.8830
 Red. masses --      1.2576                 1.0891                 1.0995
 Frc consts  --      0.6891                 0.8313                 1.0056
 IR Inten    --     29.4586                39.5876                 8.0793

                     13                     14                     15
                      A                      A                      A
 Frequencies --   2524.2239              2528.3874              3025.2944
 Red. masses --      1.0398                 1.0397                 1.0868
 Frc consts  --      3.9036                 3.9162                 5.8603
 IR Inten    --    246.1940                47.0111                79.4738

 - Thermochemistry -
 -------------------
 Temperature   298.150 Kelvin.  Pressure   1.00000 Atm.
 Atom     1 has atomic number 16 and mass  31.97207

 Molecular mass:    90.96762 amu.
 Principal axes and moments of inertia in atomic units:
                           1         2         3
     Eigenvalues --   249.84807 555.17274 742.17425
           X            0.99959  -0.00216   0.02859
           Y            0.00144   0.99968   0.02530
           Z           -0.02863  -0.02524   0.99927
 This molecule is an asymmetric top.
 Rotational symmetry number  1.
 Rotational temperatures (Kelvin)      0.34667     0.15601     0.11670
 Rotational constants (GHZ):           7.22335     3.25077     2.43169
 Zero-point vibrational energy      94511.6 (Joules/Mol)
                                   22.58880 (Kcal/Mol)
 Warning -- explicit consideration of   7 degrees of freedom as
           vibrations may cause significant error
 Vibrational temperatures:    297.45   338.78   450.22   534.59   705.51
          (Kelvin)            853.12   863.81   963.57  1287.20  1387.47
                             1637.67  1792.55  3631.79  3637.78  4352.72

 Zero-point correction=                           0.035998 (Hartree/Particle)
 Thermal correction to Energy=                    0.041443
 Thermal correction to Enthalpy=                  0.042387
 Thermal correction to Gibbs Free Energy=         0.005835
 Sum of electronic and zero-point Energies=           -873.346950
 Sum of electronic and thermal Energies=              -873.341504
 Sum of electronic and thermal Enthalpies=            -873.340560
 Sum of electronic and thermal Free Energies=         -873.377113

                     E (Thermal)             CV                S
                      KCal/Mol        Cal/Mol-Kelvin    Cal/Mol-Kelvin
 Total                   26.006             18.350             76.931
 Electronic               0.000              0.000              2.755
 Translational            0.889              2.981             39.436
 Rotational               0.889              2.981             26.135
 Vibrational             24.229             12.388              8.605
 Vibration     1          0.641              1.830              2.072
 Vibration     2          0.655              1.787              1.837
 Vibration     3          0.701              1.649              1.347
 Vibration     4          0.743              1.531              1.073
 Vibration     5          0.846              1.271              0.683
 Vibration     6          0.950              1.047              0.462
 Vibration     7          0.959              1.031              0.449

 Normal termination of Gaussian 09 at Wed Aug  3 21:07:19 2016.
