 Gaussian 09, Revision E.01,
 Gaussian 09:  EM64L-G09RevE.01 30-Nov-2015

 ------------------------------
 #p b3lyp/6-311++G(3df,2p) freq
 ------------------------------

 ---------
 b3lyp opt
 ---------
 Symbolic Z-matrix:
 Charge =  1 Multiplicity = 3

                         Standard orientation:
 ---------------------------------------------------------------------
 Center     Atomic      Atomic             Coordinates (Angstroms)
 Number     Number       Type             X           Y           Z
 ---------------------------------------------------------------------
      1         16           0       -2.197639   -0.055566   -0.000195
      2         16           0        2.122352   -0.018457   -0.000149
      3          6           0       -0.595125    0.419889    0.000429
      4          6           0        0.485504   -0.440839    0.000372
      5          1           0       -0.449018    1.499712    0.000781
      6          1           0        0.327876   -1.513667    0.000482
      7          1           0        1.983448    1.324022   -0.000571
 ---------------------------------------------------------------------

 SCF Done:  E(UB3LYP) =  -874.136521192     A.U. after   14 cycles

 The electronic state is 3-A.
 Alpha  occ. eigenvalues --  -89.13452 -89.10625 -10.45633 -10.45494  -8.21623
 Alpha  occ. eigenvalues --   -8.19068  -6.18488  -6.17464  -6.17429  -6.15289
 Alpha  occ. eigenvalues --   -6.15042  -6.14868  -1.08548  -1.02308  -0.90763
 Alpha  occ. eigenvalues --   -0.80911  -0.70969  -0.67649  -0.61512  -0.60401
 Alpha  occ. eigenvalues --   -0.57840  -0.53763  -0.53220  -0.44285
 Alpha virt. eigenvalues --   -0.25180  -0.19706  -0.17121  -0.15581  -0.13739
 Alpha virt. eigenvalues --   -0.12874  -0.09904  -0.09623  -0.08190  -0.07116
 Alpha virt. eigenvalues --   -0.06949  -0.05580  -0.05341  -0.04776  -0.04275

  Beta  occ. eigenvalues --  -89.12582 -89.10400 -10.45291 -10.45240  -8.20831
  Beta  occ. eigenvalues --   -8.18865  -6.16962  -6.16414  -6.16312  -6.15156
  Beta  occ. eigenvalues --   -6.14752  -6.14347  -1.06822  -1.00091  -0.87659
  Beta  occ. eigenvalues --   -0.79497  -0.69872  -0.66060  -0.60625  -0.57361
  Beta  occ. eigenvalues --   -0.56941  -0.49846
  Beta virt. eigenvalues --   -0.38814  -0.35884  -0.22593  -0.19351  -0.15871
  Beta virt. eigenvalues --   -0.15080  -0.13529  -0.12218  -0.09468  -0.09465
  Beta virt. eigenvalues --   -0.07859  -0.06590  -0.06561  -0.05215  -0.04933

 Mulliken charges and spin densities:
               1          2
     1  S    0.134505   1.361659
     2  S    0.023265   0.339392
     3  C    0.110478   0.080905
     4  C    0.103549   0.198958
     5  H    0.219618   0.026447
     6  H    0.226879  -0.002350
     7  H    0.181705  -0.005010
 Sum of Mulliken charges =   1.00000   2.00000

 Dipole moment (field-independent basis, Debye):
    X=             -0.2116    Y=              0.8995    Z=             -0.0000  Tot=              0.9240
 Quadrupole moment (field-independent basis, Debye-Ang):
   XX=            -17.0968   YY=            -28.4974   ZZ=            -36.9887
   XY=              1.7814   XZ=             -0.0006   YZ=             -0.0004

  Exact polarizability: 124.095   3.042  46.762   0.001  -0.000  38.141
 Approx polarizability: 213.497   6.730  78.359   0.002  -0.001  59.409

                      1                      2                      3
                      A                      A                      A
 Frequencies --    173.3110               220.3196               348.7379
 Red. masses --      6.0196                 5.8830                 8.3654
 Frc consts  --      0.1065                 0.1683                 0.5994
 IR Inten    --      0.0000                 2.1404                 0.3200

                      4                      5                      6
                      A                      A                      A
 Frequencies --    445.0144               801.9701               810.0348
 Red. masses --      1.2193                 2.8499                 1.6413
 Frc consts  --      0.1423                 1.0799                 0.6345
 IR Inten    --      5.2612                 9.0795                 9.9592

                      7                      8                      9
                      A                      A                      A
 Frequencies --    912.2220               922.0371              1000.4752
 Red. masses --      5.1640                 1.1494                 1.3225
 Frc consts  --      2.5319                 0.5757                 0.7800
 IR Inten    --     46.9220                42.6365                 8.1943

                     10                     11                     12
                      A                      A                      A
 Frequencies --   1250.8591              1288.8265              1480.3948
 Red. masses --      1.2406                 1.5376                 2.9082
 Frc consts  --      1.1437                 1.5048                 3.7551
 IR Inten    --      6.2178                 0.8153                 4.1408

                     13                     14                     15
                      A                      A                      A
 Frequencies --   2641.1840              3096.2113              3165.6952
 Red. masses --      1.0387                 1.0852                 1.0894
 Frc consts  --      4.2693                 6.1292                 6.4324
 IR Inten    --     18.1105                14.1018                17.0281

 - Thermochemistry -
 -------------------
 Temperature   298.150 Kelvin.  Pressure   1.00000 Atm.
 Atom     1 has atomic number 16 and mass  31.97207

 Molecular mass:    90.96762 amu.
 Principal axes and moments of inertia in atomic units:
                           1         2         3
     Eigenvalues --    38.832411106.144601144.97697
           X            0.99999   0.00493  -0.00000
           Y           -0.00493   0.99999  -0.00003
           Z            0.00000   0.00003   1.00000
 This molecule is an asymmetric top.
 Rotational symmetry number  1.
 Rotational temperatures (Kelvin)      2.23045     0.07830     0.07565
 Rotational constants (GHZ):          46.47512     1.63156     1.57622
 Zero-point vibrational energy     110997.3 (Joules/Mol)
                                   26.52898 (Kcal/Mol)
 Warning -- explicit consideration of   4 degrees of freedom as
           vibrations may cause significant error
 Vibrational temperatures:    249.36   316.99   501.76   640.28  1153.85
          (Kelvin)           1165.46  1312.48  1326.60  1439.46  1799.71
                             1854.33  2129.96  3800.07  4454.75  4554.72

 Zero-point correction=                           0.042277 (Hartree/Particle)
 Thermal correction to Energy=                    0.047195
 Thermal correction to Enthalpy=                  0.048140
 Thermal correction to Gibbs Free Energy=         0.012888
 Sum of electronic and zero-point Energies=           -874.094245
 Sum of electronic and thermal Energies=              -874.089326
 Sum of electronic and thermal Enthalpies=            -874.088382
 Sum of electronic and thermal Free Energies=         -874.123633

                     E (Thermal)             CV                S
                      KCal/Mol        Cal/Mol-Kelvin    Cal/Mol-Kelvin
 Total                   29.616             15.618             74.193
 Electronic               0.000              0.000              2.183
 Translational            0.889              2.981             39.436
 Rotational               0.889              2.981             25.401
 Vibrational             27.838              9.657              7.173
 Vibration     1          0.627              1.875              2.399
 Vibration     2          0.647              1.810              1.956
 Vibration     3          0.726              1.578              1.172
 Vibration     4          0.804              1.372              0.811

 Optimization completed.
    -- Stationary point found.
 Normal termination of Gaussian 09 at Wed Aug  3 20:49:10 2016.
