 Gaussian 09, Revision E.01,
 Gaussian 09:  EM64L-G09RevE.01 30-Nov-2015

 ------------------------------
 #p b3lyp/6-311++G(3df,2p) freq
 ------------------------------

 ---------
 b3lyp opt
 ---------
 Symbolic Z-matrix:
 Charge =  0 Multiplicity = 2

                         Standard orientation:
 ---------------------------------------------------------------------
 Center     Atomic      Atomic             Coordinates (Angstroms)
 Number     Number       Type             X           Y           Z
 ---------------------------------------------------------------------
      1         16           0       -1.559587   -0.356533   -0.048018
      2         16           0        1.424748   -0.602007   -0.045694
      3          6           0        0.003001    0.495751    0.026520
      4          6           0        0.051553    1.796266    0.023354
      5          1           0        2.337634    0.287137    0.382490
      6          1           0        0.741163    2.618744   -0.018797
      7          1           0       -1.248697   -1.321345    0.836441
 ---------------------------------------------------------------------

 SCF Done:  E(UB3LYP) =  -874.379656312     A.U. after   17 cycles

 The electronic state is 2-A.
 Alpha  occ. eigenvalues --  -88.87530 -88.87211 -10.25152 -10.20987  -7.96096
 Alpha  occ. eigenvalues --   -7.95788  -5.92502  -5.92181  -5.92144  -5.91791
 Alpha  occ. eigenvalues --   -5.91518  -5.91230  -0.85413  -0.74812  -0.72436
 Alpha  occ. eigenvalues --   -0.56153  -0.49030  -0.45464  -0.39424  -0.39011
 Alpha  occ. eigenvalues --   -0.33790  -0.27499  -0.25649  -0.24535
 Alpha virt. eigenvalues --   -0.03420  -0.01644  -0.01388   0.00184   0.01615
 Alpha virt. eigenvalues --    0.01635   0.04411   0.04963   0.05759   0.06574
 Alpha virt. eigenvalues --    0.06963   0.08345   0.09083   0.09625   0.10696

  Beta  occ. eigenvalues --  -88.87451 -88.87167 -10.25334 -10.19493  -7.96024
  Beta  occ. eigenvalues --   -7.95745  -5.92367  -5.92093  -5.91984  -5.91744
  Beta  occ. eigenvalues --   -5.91481  -5.91192  -0.84731  -0.74431  -0.70411
  Beta  occ. eigenvalues --   -0.54953  -0.48506  -0.44692  -0.38889  -0.38052
  Beta  occ. eigenvalues --   -0.33600  -0.27315  -0.23881
  Beta virt. eigenvalues --   -0.11272  -0.02955  -0.01438  -0.01077   0.00270
  Beta virt. eigenvalues --    0.01774   0.02020   0.04580   0.05052   0.05960
  Beta virt. eigenvalues --    0.06603   0.06976   0.08456   0.09260   0.09829

 Mulliken charges and spin densities:
               1          2
     1  S   -0.321884   0.044316
     2  S   -0.368707   0.103533
     3  C    0.408905  -0.134640
     4  C   -0.218465   0.979737
     5  H    0.139546  -0.003152
     6  H    0.223681   0.010850
     7  H    0.136923  -0.000644
 Sum of Mulliken charges =  -0.00000   1.00000

 Dipole moment (field-independent basis, Debye):
    X=              1.2416    Y=              0.4550    Z=              0.7220  Tot=              1.5066
 Quadrupole moment (field-independent basis, Debye-Ang):
   XX=            -37.1791   YY=            -36.4967   ZZ=            -41.2604
   XY=              4.0811   XZ=              0.4832   YZ=             -1.2853

  Exact polarizability:  79.687   0.614  80.020  -0.310  -0.661  50.190
 Approx polarizability: 119.079   1.054 139.296   1.284  -1.948  78.783

                      1                      2                      3
                      A                      A                      A
 Frequencies --    182.1502               222.9136               258.9804
 Red. masses --      1.1921                 1.3081                 2.7420
 Frc consts  --      0.0233                 0.0383                 0.1084
 IR Inten    --      9.8106                19.4569                 6.6404

                      4                      5                      6
                      A                      A                      A
 Frequencies --    326.2269               423.2248               537.3363
 Red. masses --      2.8547                 4.0146                 6.6426
 Frc consts  --      0.1790                 0.4237                 1.1300
 IR Inten    --      1.4168                10.3974                 9.7414

                      7                      8                      9
                      A                      A                      A
 Frequencies --    591.6496               685.7008               817.3717
 Red. masses --      1.3211                 2.2592                 1.8913
 Frc consts  --      0.2725                 0.6258                 0.7445
 IR Inten    --     46.1231                13.9445                66.4438

                     10                     11                     12
                      A                      A                      A
 Frequencies --    948.7087               967.8546              1616.6564
 Red. masses --      1.2017                 1.3606                 7.4198
 Frc consts  --      0.6372                 0.7509                11.4256
 IR Inten    --     16.2754                19.9513                28.8464

                     13                     14                     15
                      A                      A                      A
 Frequencies --   2656.4782              2660.4671              3282.9382
 Red. masses --      1.0384                 1.0382                 1.1059
 Frc consts  --      4.3173                 4.3298                 7.0224
 IR Inten    --      0.0981                 1.8614                 9.9403

 - Thermochemistry -
 -------------------
 Temperature   298.150 Kelvin.  Pressure   1.00000 Atm.
 Atom     1 has atomic number 16 and mass  31.97207

 Molecular mass:    90.96762 amu.
 Principal axes and moments of inertia in atomic units:
                           1         2         3
     Eigenvalues --   238.64027 540.96390 772.62823
           X            0.99874   0.05025  -0.00138
           Y           -0.05026   0.99861  -0.01569
           Z            0.00059   0.01574   0.99988
 This molecule is an asymmetric top.
 Rotational symmetry number  1.
 Rotational temperatures (Kelvin)      0.36295     0.16011     0.11210
 Rotational constants (GHZ):           7.56260     3.33616     2.33585
 Zero-point vibrational energy      96769.9 (Joules/Mol)
                                   23.12855 (Kcal/Mol)
 Warning -- explicit consideration of   7 degrees of freedom as
           vibrations may cause significant error
 Vibrational temperatures:    262.07   320.72   372.61   469.37   608.93
          (Kelvin)            773.11   851.25   986.57  1176.01  1364.98
                             1392.53  2326.01  3822.07  3827.81  4723.41

 Zero-point correction=                           0.036858 (Hartree/Particle)
 Thermal correction to Energy=                    0.042599
 Thermal correction to Enthalpy=                  0.043543
 Thermal correction to Gibbs Free Energy=         0.007069
 Sum of electronic and zero-point Energies=           -874.342799
 Sum of electronic and thermal Energies=              -874.337057
 Sum of electronic and thermal Enthalpies=            -874.336113
 Sum of electronic and thermal Free Energies=         -874.372588

                     E (Thermal)             CV                S
                      KCal/Mol        Cal/Mol-Kelvin    Cal/Mol-Kelvin
 Total                   26.731             19.021             76.768
 Electronic               0.000              0.000              1.377
 Translational            0.889              2.981             39.436
 Rotational               0.889              2.981             26.103
 Vibrational             24.954             13.059              9.851
 Vibration     1          0.630              1.864              2.306
 Vibration     2          0.649              1.806              1.935
 Vibration     3          0.668              1.748              1.669
 Vibration     4          0.710              1.623              1.279
 Vibration     5          0.785              1.420              0.881
 Vibration     6          0.892              1.167              0.571
 Vibration     7          0.949              1.050              0.464

 Normal termination of Gaussian 09 at Wed Aug  3 20:25:50 2016.
