 Gaussian 09, Revision E.01,
 Gaussian 09:  EM64L-G09RevE.01 30-Nov-2015

 ------------------------------
 #p b3lyp/6-311++G(3df,2p) freq
 ------------------------------

 ---------
 b3lyp opt
 ---------
 Symbolic Z-matrix:
 Charge =  2 Multiplicity = 2

                         Standard orientation:
 ---------------------------------------------------------------------
 Center     Atomic      Atomic             Coordinates (Angstroms)
 Number     Number       Type             X           Y           Z
 ---------------------------------------------------------------------
      1         16           0        0.629444   -1.041045   -0.000000
      2         16           0       -1.565057    1.100231    0.000000
      3          6           0        0.000000    0.662349    0.000000
      4          6           0        2.204392   -0.817264   -0.000000
      5          1           0        0.745155    1.459339    0.000000
      6          1           0        3.160732   -1.348936   -0.000000
      7          1           0       -2.162425   -0.127898   -0.000000
 ---------------------------------------------------------------------

 SCF Done:  E(UB3LYP) =  -873.557332137     A.U. after   17 cycles

 The electronic state is 2-A'.
 Alpha  occ. eigenvalues --  -89.38837 -89.36490 -10.73252 -10.72787  -8.46919
 Alpha  occ. eigenvalues --   -8.44671  -6.43108  -6.42794  -6.42727  -6.40823
 Alpha  occ. eigenvalues --   -6.40631  -6.40404  -1.33300  -1.27168  -1.10577
 Alpha  occ. eigenvalues --   -1.03528  -0.94028  -0.91184  -0.85540  -0.82730
 Alpha  occ. eigenvalues --   -0.80810  -0.76202  -0.71976
 Alpha virt. eigenvalues --   -0.57865  -0.51662  -0.44475  -0.39067  -0.35960
 Alpha virt. eigenvalues --   -0.34331  -0.31095  -0.28268  -0.26553  -0.25228
 Alpha virt. eigenvalues --   -0.25079  -0.23969  -0.22316  -0.21375  -0.21036

  Beta  occ. eigenvalues --  -89.38865 -89.36514 -10.72488 -10.71651  -8.46934
  Beta  occ. eigenvalues --   -8.44693  -6.43137  -6.42859  -6.42728  -6.40821
  Beta  occ. eigenvalues --   -6.40727  -6.40409  -1.32461  -1.26451  -1.08903
  Beta  occ. eigenvalues --   -1.02188  -0.92972  -0.90428  -0.84119  -0.82510
  Beta  occ. eigenvalues --   -0.80088  -0.75980
  Beta virt. eigenvalues --   -0.57155  -0.56651  -0.50630  -0.43269  -0.38176
  Beta virt. eigenvalues --   -0.35554  -0.34041  -0.30980  -0.28025  -0.25977
  Beta virt. eigenvalues --   -0.25257  -0.24980  -0.23917  -0.22311  -0.21090

 Mulliken charges and spin densities:
               1          2
     1  S    0.269911  -0.023166
     2  S    0.176260  -0.044382
     3  C    0.379772   0.120289
     4  C    0.242557   0.935565
     5  H    0.279940   0.010234
     6  H    0.402089  -0.003658
     7  H    0.249471   0.005119
 Sum of Mulliken charges =   2.00000   1.00000

 Dipole moment (field-independent basis, Debye):
    X=              2.1185    Y=             -0.7737    Z=              0.0000  Tot=              2.2553
 Quadrupole moment (field-independent basis, Debye-Ang):
   XX=              2.3084   YY=            -19.3792   ZZ=            -32.4071
   XY=            -13.1258   XZ=             -0.0000   YZ=             -0.0000

  Exact polarizability:  82.107 -17.899  49.920  -0.000  -0.000  31.688
 Approx polarizability: 165.119 -30.405  82.690   0.000   0.000  52.056

                      1                      2                      3
                     A"                     A'                     A'
 Frequencies --     93.8652               213.3685               321.8032
 Red. masses --      2.7696                 4.6449                 7.7772
 Frc consts  --      0.0144                 0.1246                 0.4745
 IR Inten    --      4.8183                 1.4882                 2.2211

                      4                      5                      6
                     A"                     A'                     A'
 Frequencies --    501.1269               505.7363               670.8887
 Red. masses --      1.4705                 1.6528                 2.5990
 Frc consts  --      0.2176                 0.2491                 0.6892
 IR Inten    --      1.6726                35.3459                 8.9874

                      7                      8                      9
                     A"                     A"                     A'
 Frequencies --    773.9290               937.9304               962.1716
 Red. masses --      1.2076                 1.1502                 1.7595
 Frc consts  --      0.4261                 0.5962                 0.9597
 IR Inten    --     30.5023                36.3434                94.2179

                     10                     11                     12
                     A'                     A'                     A'
 Frequencies --   1028.8230              1078.3505              1290.3430
 Red. masses --      2.6949                 3.1268                 1.3148
 Frc consts  --      1.6807                 2.1422                 1.2898
 IR Inten    --     49.0870                21.2759                17.8626

                     13                     14                     15
                     A'                     A'                     A'
 Frequencies --   2532.2384              3116.7656              3118.7605
 Red. masses --      1.0399                 1.0920                 1.1013
 Frc consts  --      3.9287                 6.2502                 6.3113
 IR Inten    --     71.3420                85.3989               299.8262

 - Thermochemistry -
 -------------------
 Temperature   298.150 Kelvin.  Pressure   1.00000 Atm.
 Atom     1 has atomic number 16 and mass  31.97207

 Molecular mass:    90.96762 amu.
 Principal axes and moments of inertia in atomic units:
                           1         2         3
     Eigenvalues --    73.14636 838.29608 911.44245
           X            0.82013   0.57217   0.00000
           Y           -0.57217   0.82013   0.00000
           Z            0.00000  -0.00000   1.00000
 This molecule is an asymmetric top.
 Rotational symmetry number  1.
 Rotational temperatures (Kelvin)      1.18412     0.10332     0.09503
 Rotational constants (GHZ):          24.67301     2.15287     1.98009
 Zero-point vibrational energy     102556.5 (Joules/Mol)
                                   24.51158 (Kcal/Mol)
 Warning -- explicit consideration of   5 degrees of freedom as
           vibrations may cause significant error
 Vibrational temperatures:    135.05   306.99   463.00   721.01   727.64
          (Kelvin)            965.26  1113.51  1349.47  1384.35  1480.24
                             1551.50  1856.51  3643.32  4484.32  4487.20

 Zero-point correction=                           0.039062 (Hartree/Particle)
 Thermal correction to Energy=                    0.044390
 Thermal correction to Enthalpy=                  0.045334
 Thermal correction to Gibbs Free Energy=         0.009455
 Sum of electronic and zero-point Energies=           -873.518270
 Sum of electronic and thermal Energies=              -873.512942
 Sum of electronic and thermal Enthalpies=            -873.511998
 Sum of electronic and thermal Free Energies=         -873.547878

                     E (Thermal)             CV                S
                      KCal/Mol        Cal/Mol-Kelvin    Cal/Mol-Kelvin
 Total                   27.855             17.104             75.515
 Electronic               0.000              0.000              1.377
 Translational            0.889              2.981             39.436
 Rotational               0.889              2.981             25.528
 Vibrational             26.078             11.142              9.174
 Vibration     1          0.603              1.954              3.578
 Vibration     2          0.644              1.821              2.015
 Vibration     3          0.707              1.632              1.301
 Vibration     4          0.857              1.248              0.655
 Vibration     5          0.861              1.237              0.644

 Optimization completed.
    -- Stationary point found.
 Normal termination of Gaussian 09 at Wed Aug  3 22:58:01 2016.
