 Gaussian 09, Revision E.01,
 Gaussian 09:  EM64L-G09RevE.01 30-Nov-2015

 ------------------------------
 #p b3lyp/6-311++G(3df,2p) freq
 ------------------------------

 ---------
 b3lyp opt
 ---------
 Symbolic Z-matrix:
 Charge =  0 Multiplicity = 2

                         Standard orientation:
 ---------------------------------------------------------------------
 Center     Atomic      Atomic             Coordinates (Angstroms)
 Number     Number       Type             X           Y           Z
 ---------------------------------------------------------------------
      1         16           0       -1.845614   -0.057334   -0.232118
      2         16           0        1.217480   -0.456444    0.114316
      3          6           0       -0.319038    0.649064    0.403643
      4          6           0        2.412110    0.481531   -0.435341
      5          1           0       -0.363500    0.835874    1.471803
      6          1           0       -0.120693    1.571952   -0.132440
      7          1           0       -2.024091   -0.970956    0.735649
 ---------------------------------------------------------------------

 SCF Done:  E(UB3LYP) =  -874.342515819     A.U. after   18 cycles

 The electronic state is 2-A.
 Alpha  occ. eigenvalues --  -88.90198 -88.88099 -10.25827 -10.23981  -7.98749
 Alpha  occ. eigenvalues --   -7.96698  -5.94906  -5.94589  -5.94525  -5.93057
 Alpha  occ. eigenvalues --   -5.92714  -5.92155  -0.85848  -0.79713  -0.67736
 Alpha  occ. eigenvalues --   -0.55344  -0.49919  -0.44603  -0.40957  -0.37980
 Alpha  occ. eigenvalues --   -0.33286  -0.30921  -0.28309  -0.22804
 Alpha virt. eigenvalues --   -0.09007  -0.03303  -0.01337   0.00235   0.01275
 Alpha virt. eigenvalues --    0.01738   0.02904   0.03645   0.05098   0.05741
 Alpha virt. eigenvalues --    0.06531   0.06955   0.08610   0.09073   0.09785

  Beta  occ. eigenvalues --  -88.90252 -88.88078 -10.25416 -10.22796  -7.98777
  Beta  occ. eigenvalues --   -7.96679  -5.95005  -5.94670  -5.94542  -5.93032
  Beta  occ. eigenvalues --   -5.92696  -5.92110  -0.84974  -0.78894  -0.66862
  Beta  occ. eigenvalues --   -0.53541  -0.49558  -0.44101  -0.39616  -0.37467
  Beta  occ. eigenvalues --   -0.33013  -0.29315  -0.27343
  Beta virt. eigenvalues --   -0.11099  -0.07878  -0.02990  -0.00927   0.01182
  Beta virt. eigenvalues --    0.01437   0.01897   0.03234   0.03904   0.05220
  Beta virt. eigenvalues --    0.05811   0.06669   0.07043   0.08818   0.09118

 Mulliken charges and spin densities:
               1          2
     1  S   -0.219579   0.043532
     2  S    0.089778   0.003862
     3  C   -0.040381   0.145439
     4  C   -0.281784   0.806348
     5  H    0.158936   0.000308
     6  H    0.163855   0.001809
     7  H    0.129175  -0.001298
 Sum of Mulliken charges =  -0.00000   1.00000

 Dipole moment (field-independent basis, Debye):
    X=             -2.7408    Y=             -0.4612    Z=              1.9046  Tot=              3.3693
 Quadrupole moment (field-independent basis, Debye-Ang):
   XX=            -49.0303   YY=            -38.6888   ZZ=            -38.4673
   XY=             -1.0494   XZ=              0.9189   YZ=             -0.3172

  Exact polarizability: 100.902   5.054  59.145  -5.644  -1.197  53.576
 Approx polarizability: 155.933  16.457  98.627 -12.469  -6.659  89.163

                      1                      2                      3
                      A                      A                      A
 Frequencies --     38.4168               193.6995               238.0699
 Red. masses --      5.8758                 2.9085                 2.9411
 Frc consts  --      0.0051                 0.0643                 0.0982
 IR Inten    --      7.4007                 2.1188                 2.4285

                      4                      5                      6
                      A                      A                      A
 Frequencies --    252.4575               484.6541               695.9169
 Red. masses --      2.1106                 7.6964                 2.4311
 Frc consts  --      0.0793                 1.0651                 0.6937
 IR Inten    --     34.1273                 6.1565                19.2496

                      7                      8                      9
                      A                      A                      A
 Frequencies --    730.2509               952.1314               973.3789
 Red. masses --      1.7796                 1.3261                 5.1799
 Frc consts  --      0.5591                 0.7083                 2.8916
 IR Inten    --     11.2496                16.1978                32.4445

                     10                     11                     12
                      A                      A                      A
 Frequencies --   1146.3712              1191.0441              1425.2309
 Red. masses --      1.0753                 1.1294                 1.0794
 Frc consts  --      0.8326                 0.9440                 1.2918
 IR Inten    --     14.0360                24.2757                 2.4618

                     13                     14                     15
                      A                      A                      A
 Frequencies --   2668.7525              3086.9199              3162.8919
 Red. masses --      1.0387                 1.0545                 1.1128
 Frc consts  --      4.3588                 5.9204                 6.5590
 IR Inten    --      0.4644                 0.9354                 1.6632

 - Thermochemistry -
 -------------------
 Temperature   298.150 Kelvin.  Pressure   1.00000 Atm.
 Atom     1 has atomic number 16 and mass  31.97207

 Molecular mass:    90.96762 amu.
 Principal axes and moments of inertia in atomic units:
                           1         2         3
     Eigenvalues --    99.16314 859.24737 893.84385
           X            0.99994   0.00693  -0.00892
           Y           -0.00663   0.99942   0.03339
           Z            0.00915  -0.03332   0.99940
 This molecule is an asymmetric top.
 Rotational symmetry number  1.
 Rotational temperatures (Kelvin)      0.87345     0.10080     0.09690
 Rotational constants (GHZ):          18.19972     2.10037     2.01908
 Zero-point vibrational energy     103119.2 (Joules/Mol)
                                   24.64608 (Kcal/Mol)
 Warning -- explicit consideration of   5 degrees of freedom as
           vibrations may cause significant error
 Vibrational temperatures:     55.27   278.69   342.53   363.23   697.31
          (Kelvin)           1001.27  1050.67  1369.90  1400.47  1649.37
                             1713.64  2050.59  3839.73  4441.38  4550.69

 Zero-point correction=                           0.039276 (Hartree/Particle)
 Thermal correction to Energy=                    0.045106
 Thermal correction to Enthalpy=                  0.046050
 Thermal correction to Gibbs Free Energy=         0.008363
 Sum of electronic and zero-point Energies=           -874.303240
 Sum of electronic and thermal Energies=              -874.297410
 Sum of electronic and thermal Enthalpies=            -874.296465
 Sum of electronic and thermal Free Energies=         -874.334153

                     E (Thermal)             CV                S
                      KCal/Mol        Cal/Mol-Kelvin    Cal/Mol-Kelvin
 Total                   28.305             17.618             79.319
 Electronic               0.000              0.000              1.377
 Translational            0.889              2.981             39.436
 Rotational               0.889              2.981             25.835
 Vibrational             26.527             11.656             12.671
 Vibration     1          0.594              1.982              5.339
 Vibration     2          0.635              1.849              2.192
 Vibration     3          0.656              1.782              1.817
 Vibration     4          0.664              1.759              1.713
 Vibration     5          0.841              1.284              0.698

 Normal termination of Gaussian 09 at Wed Aug  3 20:25:46 2016.
