 Gaussian 09, Revision E.01,
 Gaussian 09:  EM64L-G09RevE.01 30-Nov-2015

 ------------------------------
 #p b3lyp/6-311++G(3df,2p) freq
 ------------------------------

 ---------
 b3lyp opt
 ---------
 Symbolic Z-matrix:
 Charge =  2 Multiplicity = 4

                         Standard orientation:
 ---------------------------------------------------------------------
 Center     Atomic      Atomic             Coordinates (Angstroms)
 Number     Number       Type             X           Y           Z
 ---------------------------------------------------------------------
      1         16           0        1.129943    0.136227   -0.035232
      2          6           0       -1.867102    0.139958    0.046293
      3          6           0       -0.614040   -0.463098   -0.095530
      4          1           0       -2.012162    1.200458    0.303578
      5          1           0       -2.760260   -0.481939   -0.123627
      6          1           0        1.580182   -0.959307    0.679172
 ---------------------------------------------------------------------

 SCF Done:  E(UB3LYP) =  -475.181512980     A.U. after   15 cycles

 The electronic state is 4-A.
 Alpha  occ. eigenvalues --  -89.47428 -10.81164 -10.75517  -8.55082  -6.51956
 Alpha  occ. eigenvalues --   -6.51133  -6.50653  -1.35558  -1.27311  -1.06801
 Alpha  occ. eigenvalues --   -0.97719  -0.94107  -0.92616  -0.87866  -0.81627
 Alpha  occ. eigenvalues --   -0.76751
 Alpha virt. eigenvalues --   -0.56088  -0.51030  -0.45319  -0.34109  -0.31697
 Alpha virt. eigenvalues --   -0.30148  -0.28011  -0.27222  -0.26734  -0.25125
 Alpha virt. eigenvalues --   -0.24479  -0.23223  -0.23193  -0.21197  -0.19653

  Beta  occ. eigenvalues --  -89.46675 -10.78702 -10.74813  -8.54387  -6.50588
  Beta  occ. eigenvalues --   -6.50165  -6.49783  -1.30149  -1.22878  -1.02976
  Beta  occ. eigenvalues --   -0.95331  -0.91305  -0.89330
  Beta virt. eigenvalues --   -0.72523  -0.67016  -0.59501  -0.48658  -0.47251
  Beta virt. eigenvalues --   -0.42873  -0.32820  -0.29982  -0.27905  -0.27456
  Beta virt. eigenvalues --   -0.26294  -0.25400  -0.23793  -0.23137  -0.21911

 Mulliken charges and spin densities:
               1          2
     1  S    0.598288   1.103547
     2  C    0.220658   0.389475
     3  C    0.301439   1.441408
     4  H    0.277102   0.043118
     5  H    0.296643   0.015626
     6  H    0.305870   0.006825
 Sum of Mulliken charges =   2.00000   3.00000

 Dipole moment (field-independent basis, Debye):
    X=             -2.1427    Y=             -0.3423    Z=              0.7613  Tot=              2.2995
 Quadrupole moment (field-independent basis, Debye-Ang):
   XX=              7.5530   YY=            -16.7887   ZZ=            -18.8853
   XY=             -2.5882   XZ=              0.9479   YZ=             -0.3704

  Exact polarizability:  54.288  -1.936  26.949   0.549  -0.484  21.955
 Approx polarizability:  77.542  -2.459  41.417  -0.027  -1.249  33.362

                      1                      2                      3
                      A                      A                      A
 Frequencies --    111.8548               296.9011               436.4960
 Red. masses --      1.2167                 3.0330                 1.2924
 Frc consts  --      0.0090                 0.1575                 0.1451
 IR Inten    --     46.2958                10.5020                 0.9484

                      4                      5                      6
                      A                      A                      A
 Frequencies --    539.7641               858.0056               960.7876
 Red. masses --      5.7309                 1.1055                 1.4734
 Frc consts  --      0.9837                 0.4795                 0.8014
 IR Inten    --     10.8451                15.4358                21.7900

                      7                      8                      9
                      A                      A                      A
 Frequencies --   1035.1103              1331.0108              1405.3121
 Red. masses --      1.3663                 2.0049                 1.8262
 Frc consts  --      0.8625                 2.0927                 2.1249
 IR Inten    --     18.3131                22.2679                27.3470

                     10                     11                     12
                      A                      A                      A
 Frequencies --   2407.0979              2959.6802              3064.3814
 Red. masses --      1.0390                 1.0494                 1.1203
 Frc consts  --      3.5470                 5.4161                 6.1984
 IR Inten    --    244.6847               237.7148               153.5765

 - Thermochemistry -
 -------------------
 Temperature   298.150 Kelvin.  Pressure   1.00000 Atm.
 Atom     1 has atomic number 16 and mass  31.97207

 Molecular mass:    58.99555 amu.
 Principal axes and moments of inertia in atomic units:
                           1         2         3
     Eigenvalues --    23.84126 364.53526 383.24568
           X            0.99961  -0.02648   0.00867
           Y            0.02686   0.99851  -0.04743
           Z           -0.00740   0.04765   0.99884
 This molecule is an asymmetric top.
 Rotational symmetry number  1.
 Rotational temperatures (Kelvin)      3.63294     0.23760     0.22600
 Rotational constants (GHZ):          75.69823     4.95080     4.70910
 Zero-point vibrational energy      92150.7 (Joules/Mol)
                                   22.02456 (Kcal/Mol)
 Warning -- explicit consideration of   4 degrees of freedom as
           vibrations may cause significant error
 Vibrational temperatures:    160.93   427.17   628.02   776.60  1234.48
          (Kelvin)           1382.36  1489.29  1915.03  2021.93  3463.27
                             4258.31  4408.96

 Zero-point correction=                           0.035098 (Hartree/Particle)
 Thermal correction to Energy=                    0.039694
 Thermal correction to Enthalpy=                  0.040639
 Thermal correction to Gibbs Free Energy=         0.007333
 Sum of electronic and zero-point Energies=           -475.146415
 Sum of electronic and thermal Energies=              -475.141819
 Sum of electronic and thermal Enthalpies=            -475.140874
 Sum of electronic and thermal Free Energies=         -475.174180

                     E (Thermal)             CV                S
                      KCal/Mol        Cal/Mol-Kelvin    Cal/Mol-Kelvin
 Total                   24.909             13.696             70.097
 Electronic               0.000              0.000              2.755
 Translational            0.889              2.981             38.145
 Rotational               0.889              2.981             22.726
 Vibrational             23.131              7.735              6.472
 Vibration     1          0.607              1.940              3.236
 Vibration     2          0.691              1.680              1.434
 Vibration     3          0.797              1.391              0.838
 Vibration     4          0.895              1.162              0.566

 Normal termination of Gaussian 09 at Wed Aug  3 21:10:44 2016.
