 Gaussian 09, Revision E.01,
 Gaussian 09:  EM64L-G09RevE.01 30-Nov-2015

 ------------------------------
 #p b3lyp/6-311++G(3df,2p) freq
 ------------------------------

 ---------
 b3lyp opt
 ---------
 Symbolic Z-matrix:
 Charge =  1 Multiplicity = 3

                         Standard orientation:
 ---------------------------------------------------------------------
 Center     Atomic      Atomic             Coordinates (Angstroms)
 Number     Number       Type             X           Y           Z
 ---------------------------------------------------------------------
      1         16           0       -1.043323   -0.466522   -0.000197
      2         16           0        1.911822    0.038383    0.000171
      3          6           0        0.306783    0.545766   -0.000521
      4          6           0       -2.361086    0.490682    0.000424
      5          1           0        0.154394    1.618807   -0.000349
      6          1           0       -3.426295    0.309085    0.000740
      7          1           0        1.701744   -1.296369    0.000606
 ---------------------------------------------------------------------

 SCF Done:  E(UB3LYP) =  -874.061397177     A.U. after   15 cycles

 The electronic state is 3-A.
 Alpha  occ. eigenvalues --  -89.14666 -89.10910 -10.47913 -10.46327  -8.22894
 Alpha  occ. eigenvalues --   -8.19351  -6.19095  -6.18787  -6.18662  -6.15601
 Alpha  occ. eigenvalues --   -6.15203  -6.15193  -1.10590  -1.02505  -0.89553
 Alpha  occ. eigenvalues --   -0.80906  -0.71335  -0.68112  -0.61935  -0.61367
 Alpha  occ. eigenvalues --   -0.58777  -0.53767  -0.49505  -0.42739
 Alpha virt. eigenvalues --   -0.30388  -0.21259  -0.18633  -0.14917  -0.14801
 Alpha virt. eigenvalues --   -0.13202  -0.11185  -0.10608  -0.09753  -0.07842
 Alpha virt. eigenvalues --   -0.06873  -0.06775  -0.06052  -0.05612  -0.03722

  Beta  occ. eigenvalues --  -89.14732 -89.10752 -10.47333 -10.43895  -8.22937
  Beta  occ. eigenvalues --   -8.19208  -6.19115  -6.18900  -6.18745  -6.15510
  Beta  occ. eigenvalues --   -6.15127  -6.14695  -1.09217  -1.01151  -0.86209
  Beta  occ. eigenvalues --   -0.78939  -0.69791  -0.67221  -0.60047  -0.59353
  Beta  occ. eigenvalues --   -0.58023  -0.50818
  Beta virt. eigenvalues --   -0.33617  -0.32544  -0.25804  -0.20409  -0.17501
  Beta virt. eigenvalues --   -0.14588  -0.14263  -0.12728  -0.10744  -0.09997
  Beta virt. eigenvalues --   -0.09612  -0.07475  -0.06610  -0.06454  -0.05879

 Mulliken charges and spin densities:
               1          2
     1  S    0.112671  -0.018485
     2  S   -0.123154   0.246604
     3  C    0.301994   0.288948
     4  C   -0.027608   1.496670
     5  H    0.236976  -0.000044
     6  H    0.310241  -0.011472
     7  H    0.188879  -0.002221
 Sum of Mulliken charges =   1.00000   2.00000

 Dipole moment (field-independent basis, Debye):
    X=             -1.3709    Y=             -0.1140    Z=              0.0008  Tot=              1.3756
 Quadrupole moment (field-independent basis, Debye-Ang):
   XX=            -14.4114   YY=            -30.3843   ZZ=            -36.9032
   XY=             -2.0737   XZ=             -0.0005   YZ=             -0.0014

  Exact polarizability: 118.727  -4.435  47.635  -0.005  -0.001  37.713
 Approx polarizability: 213.407  -8.281  83.391  -0.010  -0.003  59.897

                      1                      2                      3
                      A                      A                      A
 Frequencies --    138.6503               211.0860               351.3426
 Red. masses --      4.0173                 4.6753                 6.3373
 Frc consts  --      0.0455                 0.1227                 0.4609
 IR Inten    --      0.0222                 1.4126                 1.0244

                      4                      5                      6
                      A                      A                      A
 Frequencies --    365.2211               412.5252               650.0791
 Red. masses --      1.1224                 1.3221                 1.7023
 Frc consts  --      0.0882                 0.1326                 0.4239
 IR Inten    --     43.7712                 0.6511                60.1711

                      7                      8                      9
                      A                      A                      A
 Frequencies --    783.4161               820.4720               901.8800
 Red. masses --      2.5416                 1.2039                 5.5105
 Frc consts  --      0.9190                 0.4775                 2.6408
 IR Inten    --      2.5264                36.7524                20.8481

                     10                     11                     12
                      A                      A                      A
 Frequencies --    993.0681              1015.8094              1296.8066
 Red. masses --      2.4365                 1.5260                 1.3480
 Frc consts  --      1.4157                 0.9277                 1.3356
 IR Inten    --     42.7075                31.3449                12.1984

                     13                     14                     15
                      A                      A                      A
 Frequencies --   2628.8818              3173.3217              3234.2868
 Red. masses --      1.0388                 1.0887                 1.0931
 Frc consts  --      4.2298                 6.4593                 6.7367
 IR Inten    --     20.5385                36.9449               165.7525

 - Thermochemistry -
 -------------------
 Temperature   298.150 Kelvin.  Pressure   1.00000 Atm.
 Atom     1 has atomic number 16 and mass  31.97207

 Molecular mass:    90.96762 amu.
 Principal axes and moments of inertia in atomic units:
                           1         2         3
     Eigenvalues --    63.76088 837.33523 901.09605
           X            0.99990  -0.01379  -0.00001
           Y            0.01379   0.99990  -0.00006
           Z            0.00001   0.00006   1.00000
 This molecule is an asymmetric top.
 Rotational symmetry number  1.
 Rotational temperatures (Kelvin)      1.35842     0.10344     0.09612
 Rotational constants (GHZ):          28.30484     2.15534     2.00283
 Zero-point vibrational energy     101544.1 (Joules/Mol)
                                   24.26962 (Kcal/Mol)
 Warning -- explicit consideration of   5 degrees of freedom as
           vibrations may cause significant error
 Vibrational temperatures:    199.49   303.71   505.50   525.47   593.53
          (Kelvin)            935.32  1127.16  1180.47  1297.60  1428.80
                             1461.52  1865.81  3782.37  4565.70  4653.41

 Zero-point correction=                           0.038676 (Hartree/Particle)
 Thermal correction to Energy=                    0.044145
 Thermal correction to Enthalpy=                  0.045090
 Thermal correction to Gibbs Free Energy=         0.008901
 Sum of electronic and zero-point Energies=           -874.022721
 Sum of electronic and thermal Energies=              -874.017252
 Sum of electronic and thermal Enthalpies=            -874.016308
 Sum of electronic and thermal Free Energies=         -874.052497

                     E (Thermal)             CV                S
                      KCal/Mol        Cal/Mol-Kelvin    Cal/Mol-Kelvin
 Total                   27.702             17.877             76.166
 Electronic               0.000              0.000              2.183
 Translational            0.889              2.981             39.436
 Rotational               0.889              2.981             25.379
 Vibrational             25.924             11.915              9.168
 Vibration     1          0.614              1.915              2.822
 Vibration     2          0.643              1.824              2.034
 Vibration     3          0.728              1.573              1.160
 Vibration     4          0.738              1.544              1.100
 Vibration     5          0.776              1.443              0.918

 Optimization completed.
    -- Stationary point found.
 Normal termination of Gaussian 09 at Wed Aug  3 20:48:51 2016.
