 Gaussian 09, Revision E.01,
 Gaussian 09:  EM64L-G09RevE.01 30-Nov-2015

 ------------------------------
 #p b3lyp/6-311++G(3df,2p) freq
 ------------------------------

 ---------
 b3lyp opt
 ---------
 Symbolic Z-matrix:
 Charge =  0 Multiplicity = 2

                         Standard orientation:
 ---------------------------------------------------------------------
 Center     Atomic      Atomic             Coordinates (Angstroms)
 Number     Number       Type             X           Y           Z
 ---------------------------------------------------------------------
      1         16           0       -2.205685   -0.059197   -0.000195
      2         16           0        2.139573   -0.027438   -0.000168
      3          6           0        0.460133   -0.430627    0.000375
      4          6           0       -0.600423    0.441589    0.000421
      5          1           0        0.279300   -1.498203    0.000677
      6          1           0       -0.382553    1.507834    0.000658
      7          1           0        2.002794    1.310754   -0.000293
 ---------------------------------------------------------------------

 SCF Done:  E(UB3LYP) =  -874.446341224     A.U. after   15 cycles

 The electronic state is 2-A.
 Alpha  occ. eigenvalues --  -88.90106 -88.83873 -10.24549 -10.22726  -7.98689
 Alpha  occ. eigenvalues --   -7.92396  -5.94978  -5.94595  -5.94391  -5.89019
 Alpha  occ. eigenvalues --   -5.88531  -5.87738  -0.86189  -0.78480  -0.67747
 Alpha  occ. eigenvalues --   -0.59353  -0.49116  -0.44836  -0.40858  -0.38767
 Alpha  occ. eigenvalues --   -0.36628  -0.31445  -0.23760  -0.22848
 Alpha virt. eigenvalues --   -0.04209  -0.03051  -0.00785   0.00618   0.01390
 Alpha virt. eigenvalues --    0.03518   0.03852   0.05407   0.05744   0.06951
 Alpha virt. eigenvalues --    0.07378   0.08662   0.08992   0.09051   0.10680

  Beta  occ. eigenvalues --  -88.90006 -88.83506 -10.23978 -10.22848  -7.98598
  Beta  occ. eigenvalues --   -7.92062  -5.94928  -5.94552  -5.94063  -5.88326
  Beta  occ. eigenvalues --   -5.87874  -5.87532  -0.85332  -0.77811  -0.65992
  Beta  occ. eigenvalues --   -0.58744  -0.48940  -0.44138  -0.40526  -0.36416
  Beta  occ. eigenvalues --   -0.36086  -0.28761  -0.22987
  Beta virt. eigenvalues --   -0.14191  -0.02958  -0.02350  -0.00525   0.00669
  Beta virt. eigenvalues --    0.01454   0.03693   0.03953   0.05431   0.05902
  Beta virt. eigenvalues --    0.07211   0.07631   0.08739   0.09166   0.09567

 Mulliken charges and spin densities:
               1          2
     1  S   -0.387170   0.618018
     2  S   -0.237769   0.166495
     3  C    0.072987   0.376208
     4  C    0.041743  -0.138538
     5  H    0.196432  -0.015470
     6  H    0.171546  -0.004397
     7  H    0.142230  -0.002316
 Sum of Mulliken charges =  -0.00000   1.00000

 Dipole moment (field-independent basis, Debye):
    X=              2.9817    Y=              0.7285    Z=              0.0005  Tot=              3.0694
 Quadrupole moment (field-independent basis, Debye-Ang):
   XX=            -43.1544   YY=            -35.9000   ZZ=            -40.6134
   XY=              1.8983   XZ=             -0.0013   YZ=             -0.0006

  Exact polarizability: 132.470   1.895  58.103   0.002   0.001  47.035
 Approx polarizability: 214.207   3.365  94.865   0.005   0.001  73.693

                      1                      2                      3
                      A                      A                      A
 Frequencies --    162.8567               236.1169               362.0606
 Red. masses --      6.2337                 5.0747                10.8543
 Frc consts  --      0.0974                 0.1667                 0.8383
 IR Inten    --      0.2490                 3.0998                 0.1888

                      4                      5                      6
                      A                      A                      A
 Frequencies --    366.9022               783.7974               824.2857
 Red. masses --      1.1964                 2.7209                 1.6900
 Frc consts  --      0.0949                 0.9849                 0.6765
 IR Inten    --      6.4070                56.4512                 2.2709

                      7                      8                      9
                      A                      A                      A
 Frequencies --    903.4298               915.1333               983.6994
 Red. masses --      4.5461                 1.1282                 1.4952
 Frc consts  --      2.1862                 0.5567                 0.8525
 IR Inten    --     15.5966                38.9316                15.7655

                     10                     11                     12
                      A                      A                      A
 Frequencies --   1240.5085              1296.0461              1432.7770
 Red. masses --      1.2763                 1.4611                 2.6470
 Frc consts  --      1.1572                 1.4460                 3.2016
 IR Inten    --     10.4008                17.2824                37.3773

                     13                     14                     15
                      A                      A                      A
 Frequencies --   2662.5246              3087.6814              3175.2105
 Red. masses --      1.0382                 1.0875                 1.0879
 Frc consts  --      4.3362                 6.1084                 6.4623
 IR Inten    --      0.9685                18.9501                 1.4115

 - Thermochemistry -
 -------------------
 Temperature   298.150 Kelvin.  Pressure   1.00000 Atm.
 Atom     1 has atomic number 16 and mass  31.97207

 Molecular mass:    90.96762 amu.
 Principal axes and moments of inertia in atomic units:
                           1         2         3
     Eigenvalues --    39.134171117.785941156.92006
           X            0.99999   0.00545  -0.00000
           Y           -0.00545   0.99999  -0.00004
           Z            0.00000   0.00004   1.00000
 This molecule is an asymmetric top.
 Rotational symmetry number  1.
 Rotational temperatures (Kelvin)      2.21325     0.07749     0.07487
 Rotational constants (GHZ):          46.11677     1.61457     1.55995
 Zero-point vibrational energy     110254.0 (Joules/Mol)
                                   26.35134 (Kcal/Mol)
 Warning -- explicit consideration of   4 degrees of freedom as
           vibrations may cause significant error
 Vibrational temperatures:    234.31   339.72   520.92   527.89  1127.71
          (Kelvin)           1185.96  1299.83  1316.67  1415.32  1784.81
                             1864.72  2061.44  3830.77  4442.48  4568.41

 Zero-point correction=                           0.041994 (Hartree/Particle)
 Thermal correction to Energy=                    0.046975
 Thermal correction to Enthalpy=                  0.047920
 Thermal correction to Gibbs Free Energy=         0.012924
 Sum of electronic and zero-point Energies=           -874.404348
 Sum of electronic and thermal Energies=              -874.399366
 Sum of electronic and thermal Enthalpies=            -874.398422
 Sum of electronic and thermal Free Energies=         -874.433417

                     E (Thermal)             CV                S
                      KCal/Mol        Cal/Mol-Kelvin    Cal/Mol-Kelvin
 Total                   29.477             15.811             73.654
 Electronic               0.000              0.000              1.377
 Translational            0.889              2.981             39.436
 Rotational               0.889              2.981             25.429
 Vibrational             27.700              9.850              7.411
 Vibration     1          0.623              1.888              2.516
 Vibration     2          0.655              1.785              1.832
 Vibration     3          0.736              1.550              1.113
 Vibration     4          0.740              1.540              1.093

 Optimization completed.
    -- Stationary point found.
 Normal termination of Gaussian 09 at Wed Aug  3 20:15:33 2016.
