 Gaussian 09, Revision E.01,
 Gaussian 09:  EM64L-G09RevE.01 30-Nov-2015

 ------------------------------
 #p b3lyp/6-311++G(3df,2p) freq
 ------------------------------

 ---------
 b3lyp opt
 ---------
 Symbolic Z-matrix:
 Charge =  0 Multiplicity = 2

                         Standard orientation:
 ---------------------------------------------------------------------
 Center     Atomic      Atomic             Coordinates (Angstroms)
 Number     Number       Type             X           Y           Z
 ---------------------------------------------------------------------
      1         16           0       -1.298685   -0.208767    0.000000
      2         16           0        1.606369    0.665074   -0.000000
      3          6           0       -0.000000    0.933841    0.000000
      4          6           0       -0.612136   -1.735277    0.000000
      5          1           0       -0.423533    1.935172    0.000000
      6          1           0       -1.287646   -2.574542    0.000000
      7          1           0        0.461063   -1.852931   -0.000000
 ---------------------------------------------------------------------

 SCF Done:  E(UB3LYP) =  -874.423791166     A.U. after   16 cycles

 The electronic state is 2-A".
 Alpha  occ. eigenvalues --  -88.91093 -88.83742 -10.25765 -10.22331  -7.99522
 Alpha  occ. eigenvalues --   -7.92375  -5.95741  -5.95353  -5.95342  -5.88659
 Alpha  occ. eigenvalues --   -5.88566  -5.87809  -0.87081  -0.77620  -0.68088
 Alpha  occ. eigenvalues --   -0.56997  -0.49839  -0.44103  -0.42593  -0.39158
 Alpha  occ. eigenvalues --   -0.35996  -0.30789  -0.24012  -0.21434
 Alpha virt. eigenvalues --   -0.08150  -0.01194  -0.00548   0.01744   0.02033
 Alpha virt. eigenvalues --    0.04114   0.04416   0.04966   0.05688   0.07126
 Alpha virt. eigenvalues --    0.07365   0.08266   0.09029   0.09718   0.11234

  Beta  occ. eigenvalues --  -88.91089 -88.83608 -10.25715 -10.21276  -7.99511
  Beta  occ. eigenvalues --   -7.92253  -5.95750  -5.95359  -5.95285  -5.88495
  Beta  occ. eigenvalues --   -5.88237  -5.87735  -0.86391  -0.76791  -0.66377
  Beta  occ. eigenvalues --   -0.56256  -0.49408  -0.43491  -0.42214  -0.37417
  Beta  occ. eigenvalues --   -0.35654  -0.28376  -0.23723
  Beta virt. eigenvalues --   -0.12268  -0.05443  -0.00939  -0.00518   0.01801
  Beta virt. eigenvalues --    0.02086   0.04228   0.04555   0.04986   0.05759
  Beta virt. eigenvalues --    0.07210   0.07546   0.09091   0.09144   0.09738

 Mulliken charges and spin densities:
               1          2
     1  S   -0.051099   0.043126
     2  S   -0.369610   0.242730
     3  C    0.129831   0.031059
     4  C   -0.267263   0.737052
     5  H    0.200443  -0.006347
     6  H    0.179022  -0.024810
     7  H    0.178675  -0.022810
 Sum of Mulliken charges =  -0.00000   1.00000

 Dipole moment (field-independent basis, Debye):
    X=             -2.0603    Y=             -0.9321    Z=              0.0000  Tot=              2.2614
 Quadrupole moment (field-independent basis, Debye-Ang):
   XX=            -40.4039   YY=            -35.0427   ZZ=            -40.5005
   XY=             -1.0294   XZ=              0.0000   YZ=             -0.0000

  Exact polarizability:  92.929  18.942  82.307   0.000  -0.000  46.197
 Approx polarizability: 175.741  31.096 137.003  -0.000  -0.000  74.134

                      1                      2                      3
                     A'                     A"                     A"
 Frequencies --    216.6432               224.8764               394.1137
 Red. masses --      4.2461                 2.4318                 1.1949
 Frc consts  --      0.1174                 0.0725                 0.1094
 IR Inten    --      2.3551                 0.6673                 0.6260

                      4                      5                      6
                     A'                     A"                     A'
 Frequencies --    418.6146               558.5219               717.7163
 Red. masses --      5.8827                 1.2642                 7.3568
 Frc consts  --      0.6074                 0.2323                 2.2328
 IR Inten    --      0.6953                53.8340                28.1504

                      7                      8                      9
                     A"                     A'                     A'
 Frequencies --    771.5444               846.7949               922.9188
 Red. masses --      1.3525                 5.8438                 1.3529
 Frc consts  --      0.4744                 2.4689                 0.6789
 IR Inten    --     25.4256                23.5031                 9.5972

                     10                     11                     12
                     A'                     A'                     A'
 Frequencies --   1038.8083              1288.7778              1382.8926
 Red. masses --      4.2317                 1.2378                 1.1359
 Frc consts  --      2.6905                 1.2113                 1.2799
 IR Inten    --    129.0957                29.2707                 8.3635

                     13                     14                     15
                     A'                     A'                     A'
 Frequencies --   3104.6096              3148.6778              3284.5998
 Red. masses --      1.0860                 1.0470                 1.1220
 Frc consts  --      6.1673                 6.1159                 7.1318
 IR Inten    --      6.8387                 0.2979                 5.3297

 - Thermochemistry -
 -------------------
 Temperature   298.150 Kelvin.  Pressure   1.00000 Atm.
 Atom     1 has atomic number 16 and mass  31.97207

 Molecular mass:    90.96762 amu.
 Principal axes and moments of inertia in atomic units:
                           1         2         3
     Eigenvalues --   154.26089 627.63530 781.89619
           X            0.86757  -0.49732   0.00000
           Y            0.49732   0.86757   0.00000
           Z           -0.00000   0.00000   1.00000
 This molecule is an asymmetric top.
 Rotational symmetry number  1.
 Rotational temperatures (Kelvin)      0.56148     0.13800     0.11077
 Rotational constants (GHZ):          11.69928     2.87546     2.30816
 Zero-point vibrational energy     109578.6 (Joules/Mol)
                                   26.18991 (Kcal/Mol)
 Warning -- explicit consideration of   5 degrees of freedom as
           vibrations may cause significant error
 Vibrational temperatures:    311.70   323.55   567.04   602.29   803.59
          (Kelvin)           1032.63  1110.08  1218.35  1327.87  1494.61
                             1854.26  1989.67  4466.84  4530.24  4725.80

 Zero-point correction=                           0.041736 (Hartree/Particle)
 Thermal correction to Energy=                    0.046777
 Thermal correction to Enthalpy=                  0.047722
 Thermal correction to Gibbs Free Energy=         0.012608
 Sum of electronic and zero-point Energies=           -874.382055
 Sum of electronic and thermal Energies=              -874.377014
 Sum of electronic and thermal Enthalpies=            -874.376070
 Sum of electronic and thermal Free Energies=         -874.411183

                     E (Thermal)             CV                S
                      KCal/Mol        Cal/Mol-Kelvin    Cal/Mol-Kelvin
 Total                   29.353             16.757             73.902
 Electronic               0.000              0.000              1.377
 Translational            0.889              2.981             39.436
 Rotational               0.889              2.981             25.829
 Vibrational             27.576             10.796              7.260
 Vibration     1          0.645              1.816              1.987
 Vibration     2          0.650              1.803              1.919
 Vibration     3          0.761              1.483              0.985
 Vibration     4          0.781              1.430              0.897
 Vibration     5          0.914              1.121              0.527

 Optimization completed.
    -- Stationary point found.
 Normal termination of Gaussian 09 at Wed Aug  3 22:52:39 2016.
