 Gaussian 09, Revision E.01,
 Gaussian 09:  EM64L-G09RevE.01 30-Nov-2015

 ------------------------------
 #p b3lyp/6-311++G(3df,2p) freq
 ------------------------------

 ---------
 b3lyp opt
 ---------
 Symbolic Z-matrix:
 Charge =  2 Multiplicity = 2

                         Standard orientation:
 ---------------------------------------------------------------------
 Center     Atomic      Atomic             Coordinates (Angstroms)
 Number     Number       Type             X           Y           Z
 ---------------------------------------------------------------------
      1         16           0       -1.580684   -0.503287   -0.005117
      2         16           0        1.744495   -0.142858   -0.109259
      3          6           0        0.018137    0.231149    0.041748
      4          6           0       -0.921587    1.137562    0.014478
      5          1           0        2.227325    0.955934    0.545841
      6          1           0       -1.278012    2.164208   -0.008942
      7          1           0        1.850410   -0.994074    0.955760
 ---------------------------------------------------------------------

 SCF Done:  E(UB3LYP) =  -873.588216150     A.U. after   16 cycles

 The electronic state is 2-A.
 Alpha  occ. eigenvalues --  -89.40114 -89.37161 -10.71958 -10.69723  -8.48238
 Alpha  occ. eigenvalues --   -8.44973  -6.44496  -6.44248  -6.43863  -6.41360
 Alpha  occ. eigenvalues --   -6.41059  -6.40800  -1.38165  -1.27890  -1.09450
 Alpha  occ. eigenvalues --   -1.01962  -0.95467  -0.93161  -0.87366  -0.82647
 Alpha  occ. eigenvalues --   -0.81260  -0.79761  -0.67449
 Alpha virt. eigenvalues --   -0.49507  -0.47623  -0.44156  -0.41457  -0.38200
 Alpha virt. eigenvalues --   -0.37853  -0.29713  -0.28700  -0.27100  -0.25908
 Alpha virt. eigenvalues --   -0.25287  -0.23636  -0.22903  -0.21812  -0.20815

  Beta  occ. eigenvalues --  -89.40117 -89.36628 -10.71651 -10.69569  -8.48239
  Beta  occ. eigenvalues --   -8.44491  -6.44514  -6.44252  -6.43853  -6.40780
  Beta  occ. eigenvalues --   -6.40476  -6.39714  -1.37150  -1.27705  -1.06920
  Beta  occ. eigenvalues --   -1.01596  -0.95017  -0.92942  -0.85602  -0.81287
  Beta  occ. eigenvalues --   -0.79746  -0.78830
  Beta virt. eigenvalues --   -0.56108  -0.48419  -0.46634  -0.43905  -0.41118
  Beta virt. eigenvalues --   -0.37931  -0.36923  -0.29435  -0.28564  -0.27007
  Beta virt. eigenvalues --   -0.25824  -0.25089  -0.23290  -0.22815  -0.21643

 Mulliken charges and spin densities:
               1          2
     1  S    0.490879   0.769625
     2  S    0.104819  -0.009646
     3  C   -0.064355   0.134859
     4  C    0.483650   0.098121
     5  H    0.291073   0.001038
     6  H    0.402392  -0.004685
     7  H    0.291542   0.010689
 Sum of Mulliken charges =   2.00000   1.00000

 Dipole moment (field-independent basis, Debye):
    X=              2.4066    Y=              1.4101    Z=              1.2892  Tot=              3.0728
 Quadrupole moment (field-independent basis, Debye-Ang):
   XX=             -1.5021   YY=            -20.5549   ZZ=            -30.8179
   XY=             -1.7061   XZ=              3.2329   YZ=             -0.6927

  Exact polarizability:  68.091   0.955  46.557   1.820  -0.408  32.582
 Approx polarizability: 112.973   4.607  86.242   2.506  -0.755  52.978

                      1                      2                      3
                      A                      A                      A
 Frequencies --    111.2755               244.6737               306.9373
 Red. masses --      1.1579                 6.0935                 4.2872
 Frc consts  --      0.0084                 0.2149                 0.2380
 IR Inten    --     23.5259                 0.7452                17.2118

                      4                      5                      6
                      A                      A                      A
 Frequencies --    460.3549               681.6390               785.0883
 Red. masses --      5.9237                 8.3599                 2.2864
 Frc consts  --      0.7397                 2.2885                 0.8303
 IR Inten    --      3.2622                 4.6573                 4.2596

                      7                      8                      9
                      A                      A                      A
 Frequencies --    831.5613               879.6303               955.1146
 Red. masses --      1.3444                 1.2706                 1.5184
 Frc consts  --      0.5477                 0.5792                 0.8161
 IR Inten    --     23.0820                 8.9968                14.6095

                     10                     11                     12
                      A                      A                      A
 Frequencies --    988.6397              1157.0342              1676.9921
 Red. masses --      1.2517                 1.0399                 7.1115
 Frc consts  --      0.7208                 0.8203                11.7834
 IR Inten    --     33.1921                14.1297                23.6080

                     13                     14                     15
                      A                      A                      A
 Frequencies --   2509.1206              2517.7970              3187.2577
 Red. masses --      1.0352                 1.0426                 1.1228
 Frc consts  --      3.8397                 3.8941                 6.7204
 IR Inten    --    155.5239               142.6986               193.9835

 - Thermochemistry -
 -------------------
 Temperature   298.150 Kelvin.  Pressure   1.00000 Atm.
 Atom     1 has atomic number 16 and mass  31.97207

 Molecular mass:    90.96762 amu.
 Principal axes and moments of inertia in atomic units:
                           1         2         3
     Eigenvalues --   117.96164 710.71775 817.60966
           X            0.99978  -0.01405   0.01556
           Y            0.01428   0.99979  -0.01491
           Z           -0.01535   0.01512   0.99977
 This molecule is an asymmetric top.
 Rotational symmetry number  1.
 Rotational temperatures (Kelvin)      0.73425     0.12187     0.10594
 Rotational constants (GHZ):          15.29939     2.53932     2.20734
 Zero-point vibrational energy     103435.8 (Joules/Mol)
                                   24.72175 (Kcal/Mol)
 Warning -- explicit consideration of   4 degrees of freedom as
           vibrations may cause significant error
 Vibrational temperatures:    160.10   352.03   441.61   662.35   980.73
          (Kelvin)           1129.57  1196.43  1265.59  1374.20  1422.43
                             1664.71  2412.81  3610.06  3622.54  4585.75

 Zero-point correction=                           0.039397 (Hartree/Particle)
 Thermal correction to Energy=                    0.044539
 Thermal correction to Enthalpy=                  0.045483
 Thermal correction to Gibbs Free Energy=         0.009919
 Sum of electronic and zero-point Energies=           -873.548820
 Sum of electronic and thermal Energies=              -873.543677
 Sum of electronic and thermal Enthalpies=            -873.542733
 Sum of electronic and thermal Free Energies=         -873.578297

                     E (Thermal)             CV                S
                      KCal/Mol        Cal/Mol-Kelvin    Cal/Mol-Kelvin
 Total                   27.949             16.437             74.851
 Electronic               0.000              0.000              1.377
 Translational            0.889              2.981             39.436
 Rotational               0.889              2.981             25.731
 Vibrational             26.171             10.476              8.307
 Vibration     1          0.607              1.940              3.247
 Vibration     2          0.660              1.772              1.769
 Vibration     3          0.697              1.661              1.379
 Vibration     4          0.818              1.338              0.765

 Normal termination of Gaussian 09 at Wed Aug  3 20:57:41 2016.
