 Gaussian 09, Revision E.01,
 Gaussian 09:  EM64L-G09RevE.01 30-Nov-2015

 ------------------------------
 #p b3lyp/6-311++G(3df,2p) freq
 ------------------------------

 ---------
 b3lyp opt
 ---------
 Symbolic Z-matrix:
 Charge =  1 Multiplicity = 1

                         Standard orientation:
 ---------------------------------------------------------------------
 Center     Atomic      Atomic             Coordinates (Angstroms)
 Number     Number       Type             X           Y           Z
 ---------------------------------------------------------------------
      1         16           0       -0.572294    0.900299    0.014157
      2         16           0        1.231222   -0.169603   -0.185196
      3          6           0       -1.226329   -0.836717   -0.311074
      4          6           0       -0.302131   -0.822428    0.845818
      5          1           0       -0.987677   -1.187265   -1.311717
      6          1           0       -2.274969   -0.912902   -0.033353
      7          1           0        1.890559    0.363909    0.873235
 ---------------------------------------------------------------------

 SCF Done:  E(RB3LYP) =  -874.053000062     A.U. after   15 cycles

 The electronic state is 1-A.
 Alpha  occ. eigenvalues --  -89.17122 -89.16539 -10.46941 -10.45414  -8.25294
 Alpha  occ. eigenvalues --   -8.24593  -6.21594  -6.21182  -6.20968  -6.20932
 Alpha  occ. eigenvalues --   -6.20659  -6.20055  -1.16056  -0.99031  -0.88955
 Alpha  occ. eigenvalues --   -0.80499  -0.73371  -0.65090  -0.63991  -0.61260
 Alpha  occ. eigenvalues --   -0.60234  -0.53158  -0.46773
 Alpha virt. eigenvalues --   -0.32945  -0.25822  -0.24842  -0.22887  -0.20282
 Alpha virt. eigenvalues --   -0.13856  -0.12477  -0.10595  -0.09140  -0.08821
 Alpha virt. eigenvalues --   -0.08407  -0.08129  -0.07112  -0.06644  -0.06062

 Mulliken charges:
               1
     1  S    0.248494
     2  S    0.185054
     3  C    0.016372
     4  C   -0.093948
     5  H    0.192321
     6  H    0.204643
     7  H    0.247064
 Sum of Mulliken charges =   1.00000

 Dipole moment (field-independent basis, Debye):
    X=              0.3586    Y=              0.3130    Z=             -1.2098  Tot=              1.3001
 Quadrupole moment (field-independent basis, Debye-Ang):
   XX=            -21.6096   YY=            -31.2681   ZZ=            -36.3213
   XY=              1.4831   XZ=              2.4819   YZ=              2.8931

  Exact polarizability:  65.594   2.013  53.700  -0.689  -1.824  45.471
 Approx polarizability: 130.240  -2.158 117.539  -8.690  -9.570  81.472

                      1                      2                      3
                      A                      A                      A
 Frequencies --    308.6939               350.6945               456.8276
 Red. masses --      7.5660                 3.1386                11.8389
 Frc consts  --      0.4248                 0.2274                 1.4557
 IR Inten    --     15.8330                 3.3876                11.5884

                      4                      5                      6
                      A                      A                      A
 Frequencies --    510.9132               595.0179               703.0512
 Red. masses --      6.3573                 8.5017                 1.1708
 Frc consts  --      0.9777                 1.7734                 0.3410
 IR Inten    --     15.2251                 6.1175                 9.5273

                      7                      8                      9
                      A                      A                      A
 Frequencies --    883.8145               945.3673              1013.9297
 Red. masses --      1.0825                 1.0882                 1.8112
 Frc consts  --      0.4982                 0.5730                 1.0971
 IR Inten    --      3.9996                 1.2566                 2.7727

                     10                     11                     12
                      A                      A                      A
 Frequencies --   1058.3567              1123.6958              1476.5685
 Red. masses --      1.7835                 1.6137                 1.1126
 Frc consts  --      1.1770                 1.2005                 1.4292
 IR Inten    --      5.9129                18.4483                 9.6687

                     13                     14                     15
                      A                      A                      A
 Frequencies --   2597.0777              3082.7088              3177.2790
 Red. masses --      1.0393                 1.0523                 1.1200
 Frc consts  --      4.1302                 5.8921                 6.6618
 IR Inten    --     52.8712                12.6543                17.8272

 - Thermochemistry -
 -------------------
 Temperature   298.150 Kelvin.  Pressure   1.00000 Atm.
 Atom     1 has atomic number 16 and mass  31.97207

 Molecular mass:    90.96762 amu.
 Principal axes and moments of inertia in atomic units:
                           1         2         3
     Eigenvalues --   209.26068 362.20121 477.90446
           X            0.99526   0.08704   0.04331
           Y           -0.08968   0.99396   0.06330
           Z           -0.03754  -0.06689   0.99705
 This molecule is an asymmetric top.
 Rotational symmetry number  1.
 Rotational temperatures (Kelvin)      0.41390     0.23913     0.18124
 Rotational constants (GHZ):           8.62437     4.98270     3.77636
 Zero-point vibrational energy     109362.6 (Joules/Mol)
                                   26.13828 (Kcal/Mol)
 Warning -- explicit consideration of   5 degrees of freedom as
           vibrations may cause significant error
 Vibrational temperatures:    444.14   504.57   657.27   735.09   856.10
          (Kelvin)           1011.53  1271.61  1360.17  1458.82  1522.74
                             1616.75  2124.45  3736.61  4435.32  4571.39

 Zero-point correction=                           0.041654 (Hartree/Particle)
 Thermal correction to Energy=                    0.046200
 Thermal correction to Enthalpy=                  0.047144
 Thermal correction to Gibbs Free Energy=         0.014013
 Sum of electronic and zero-point Energies=           -874.011346
 Sum of electronic and thermal Energies=              -874.006800
 Sum of electronic and thermal Enthalpies=            -874.005856
 Sum of electronic and thermal Free Energies=         -874.038987

                     E (Thermal)             CV                S
                      KCal/Mol        Cal/Mol-Kelvin    Cal/Mol-Kelvin
 Total                   28.991             15.616             69.730
 Electronic               0.000              0.000              0.000
 Translational            0.889              2.981             39.436
 Rotational               0.889              2.981             25.097
 Vibrational             27.214              9.655              5.197
 Vibration     1          0.698              1.657              1.369
 Vibration     2          0.728              1.574              1.163
 Vibration     3          0.815              1.346              0.775
 Vibration     4          0.866              1.226              0.631
 Vibration     5          0.953              1.042              0.458

 Optimization completed.
    -- Stationary point found.
 Normal termination of Gaussian 09 at Wed Aug  3 20:40:16 2016.
