 Gaussian 09, Revision E.01,
 Gaussian 09:  EM64L-G09RevE.01 30-Nov-2015

 ------------------------------
 #p b3lyp/6-311++G(3df,2p) freq
 ------------------------------

 ---------
 b3lyp opt
 ---------
 Symbolic Z-matrix:
 Charge =  2 Multiplicity = 2

                         Standard orientation:
 ---------------------------------------------------------------------
 Center     Atomic      Atomic             Coordinates (Angstroms)
 Number     Number       Type             X           Y           Z
 ---------------------------------------------------------------------
      1         16           0        2.150087   -0.217538   -0.000215
      2         16           0       -1.938775   -0.413352    0.000164
      3          6           0       -0.585484    0.834065    0.000192
      4          6           0        0.753630    0.270975    0.000531
      5          1           0       -0.720997    1.476998   -0.887860
      6          1           0       -0.721579    1.476900    0.888270
      7          1           0       -2.947287    0.510108   -0.003931
 ---------------------------------------------------------------------

 SCF Done:  E(UB3LYP) =  -873.624341771     A.U. after   17 cycles

 The electronic state is 2-A.
 Alpha  occ. eigenvalues --  -89.39349 -89.35039 -10.71518 -10.68223  -8.47270
 Alpha  occ. eigenvalues --   -8.43263  -6.44099  -6.43254  -6.42833  -6.39258
 Alpha  occ. eigenvalues --   -6.39207  -6.39178  -1.30607  -1.26365  -1.15820
 Alpha  occ. eigenvalues --   -0.97085  -0.91223  -0.90985  -0.87369  -0.82356
 Alpha  occ. eigenvalues --   -0.78190  -0.77159  -0.75339
 Alpha virt. eigenvalues --   -0.52155  -0.50396  -0.43171  -0.37230  -0.32589
 Alpha virt. eigenvalues --   -0.31748  -0.29388  -0.28561  -0.26466  -0.25450
 Alpha virt. eigenvalues --   -0.25253  -0.22250  -0.22029  -0.21241  -0.20721

  Beta  occ. eigenvalues --  -89.38696 -89.35036 -10.71521 -10.68222  -8.46670
  Beta  occ. eigenvalues --   -8.43260  -6.42861  -6.42471  -6.42083  -6.39268
  Beta  occ. eigenvalues --   -6.39186  -6.39177  -1.30000  -1.24879  -1.13928
  Beta  occ. eigenvalues --   -0.96696  -0.90639  -0.89718  -0.87232  -0.81212
  Beta  occ. eigenvalues --   -0.76935  -0.76929
  Beta virt. eigenvalues --   -0.62101  -0.51874  -0.50283  -0.42693  -0.35619
  Beta virt. eigenvalues --   -0.32388  -0.31618  -0.28615  -0.28211  -0.25942
  Beta virt. eigenvalues --   -0.25166  -0.24703  -0.22012  -0.21106  -0.20514

 Mulliken charges and spin densities:
               1          2
     1  S    0.395482   0.005526
     2  S    0.422961   0.990703
     3  C    0.079522  -0.074793
     4  C    0.274316   0.036231
     5  H    0.266780   0.031910
     6  H    0.266872   0.032111
     7  H    0.294067  -0.021689
 Sum of Mulliken charges =   2.00000   1.00000

 Dipole moment (field-independent basis, Debye):
    X=             -2.5837    Y=              1.5759    Z=             -0.0034  Tot=              3.0264
 Quadrupole moment (field-independent basis, Debye-Ang):
   XX=              9.6674   YY=            -26.0735   ZZ=            -29.8759
   XY=             -3.2098   XZ=              0.0095   YZ=             -0.0004

  Exact polarizability:  78.576  -3.091  40.904   0.006  -0.002  33.390
 Approx polarizability: 138.352 -13.752  69.956  -0.006   0.002  53.257

                      1                      2                      3
                      A                      A                      A
 Frequencies --    151.6517               221.1294               342.5069
 Red. masses --     11.1666                 1.1172                 2.5242
 Frc consts  --      0.1513                 0.0322                 0.1745
 IR Inten    --      0.6719                30.3185                 2.9961

                      4                      5                      6
                      A                      A                      A
 Frequencies --    433.2259               646.4848               743.8652
 Red. masses --     13.7439                 4.0159                 1.6826
 Frc consts  --      1.5198                 0.9889                 0.5486
 IR Inten    --      7.1036                 2.5418                 1.7455

                      7                      8                      9
                      A                      A                      A
 Frequencies --    771.1996               954.9009              1140.0674
 Red. masses --      3.3445                 1.3129                 1.0954
 Frc consts  --      1.1720                 0.7054                 0.8388
 IR Inten    --      0.4304                10.5730                 0.1343

                     10                     11                     12
                      A                      A                      A
 Frequencies --   1236.9749              1351.1678              1671.6556
 Red. masses --      1.2064                 1.1151                12.9839
 Frc consts  --      1.0876                 1.1995                21.3772
 IR Inten    --     10.8053                39.8597                74.3719

                     13                     14                     15
                      A                      A                      A
 Frequencies --   2526.1479              2924.7375              2960.3428
 Red. masses --      1.0394                 1.0559                 1.0999
 Frc consts  --      3.9079                 5.3219                 5.6790
 IR Inten    --    147.1469               131.1249                83.1830

 - Thermochemistry -
 -------------------
 Temperature   298.150 Kelvin.  Pressure   1.00000 Atm.
 Atom     1 has atomic number 16 and mass  31.97207

 Molecular mass:    90.96762 amu.
 Principal axes and moments of inertia in atomic units:
                           1         2         3
     Eigenvalues --    79.536151036.136401104.31884
           X            0.99990  -0.01404   0.00004
           Y            0.01404   0.99990  -0.00009
           Z           -0.00004   0.00009   1.00000
 This molecule is an asymmetric top.
 Rotational symmetry number  1.
 Rotational temperatures (Kelvin)      1.08899     0.08359     0.07843
 Rotational constants (GHZ):          22.69083     1.74180     1.63426
 Zero-point vibrational energy     108118.8 (Joules/Mol)
                                   25.84102 (Kcal/Mol)
 Warning -- explicit consideration of   4 degrees of freedom as
           vibrations may cause significant error
 Vibrational temperatures:    218.19   318.16   492.79   623.31   930.15
          (Kelvin)           1070.25  1109.58  1373.89  1640.30  1779.73
                             1944.03  2405.14  3634.56  4208.04  4259.27

 Zero-point correction=                           0.041180 (Hartree/Particle)
 Thermal correction to Energy=                    0.046240
 Thermal correction to Enthalpy=                  0.047184
 Thermal correction to Gibbs Free Energy=         0.011754
 Sum of electronic and zero-point Energies=           -873.583161
 Sum of electronic and thermal Energies=              -873.578101
 Sum of electronic and thermal Enthalpies=            -873.577157
 Sum of electronic and thermal Free Energies=         -873.612588

                     E (Thermal)             CV                S
                      KCal/Mol        Cal/Mol-Kelvin    Cal/Mol-Kelvin
 Total                   29.016             16.068             74.570
 Electronic               0.000              0.000              1.377
 Translational            0.889              2.981             39.436
 Rotational               0.889              2.981             26.012
 Vibrational             27.239             10.106              7.745
 Vibration     1          0.619              1.901              2.651
 Vibration     2          0.648              1.809              1.950
 Vibration     3          0.722              1.590              1.200
 Vibration     4          0.794              1.398              0.848

 Normal termination of Gaussian 09 at Wed Aug  3 20:58:40 2016.
