 Gaussian 09, Revision E.01,
 Gaussian 09:  EM64L-G09RevE.01 30-Nov-2015

 ------------------------------
 #p b3lyp/6-311++G(3df,2p) freq
 ------------------------------

 ---------
 b3lyp opt
 ---------
 Symbolic Z-matrix:
 Charge =  2 Multiplicity = 2

                         Standard orientation:
 ---------------------------------------------------------------------
 Center     Atomic      Atomic             Coordinates (Angstroms)
 Number     Number       Type             X           Y           Z
 ---------------------------------------------------------------------
      1         16           0        1.594890   -0.505739    0.000097
      2         16           0       -1.780267   -0.016999   -0.000418
      3          6           0       -0.017942    0.218921   -0.000090
      4          6           0        0.916810    1.129698   -0.000165
      5          1           0       -1.848368   -0.947117   -1.001130
      6          1           0        1.270866    2.158320    0.000054
      7          1           0       -1.849678   -0.939123    1.007744
 ---------------------------------------------------------------------

 SCF Done:  E(UB3LYP) =  -873.587799087     A.U. after   16 cycles

 The electronic state is 2-A.
 Alpha  occ. eigenvalues --  -89.39759 -89.37336 -10.71818 -10.70036  -8.47871
 Alpha  occ. eigenvalues --   -8.45152  -6.44129  -6.43879  -6.43484  -6.41576
 Alpha  occ. eigenvalues --   -6.41217  -6.40968  -1.38069  -1.27577  -1.09767
 Alpha  occ. eigenvalues --   -1.01527  -0.95274  -0.93087  -0.86018  -0.84715
 Alpha  occ. eigenvalues --   -0.81481  -0.78258  -0.68142
 Alpha virt. eigenvalues --   -0.49660  -0.48904  -0.41440  -0.41263  -0.39179
 Alpha virt. eigenvalues --   -0.37853  -0.30378  -0.28965  -0.26977  -0.26452
 Alpha virt. eigenvalues --   -0.24669  -0.23572  -0.22316  -0.22062  -0.20433

  Beta  occ. eigenvalues --  -89.39776 -89.36794 -10.71473 -10.69956  -8.47883
  Beta  occ. eigenvalues --   -8.44662  -6.44159  -6.43893  -6.43500  -6.40931
  Beta  occ. eigenvalues --   -6.40636  -6.39906  -1.37056  -1.27369  -1.07264
  Beta  occ. eigenvalues --   -1.01181  -0.94630  -0.92666  -0.85640  -0.81352
  Beta  occ. eigenvalues --   -0.80695  -0.77799
  Beta virt. eigenvalues --   -0.56659  -0.48359  -0.48281  -0.41018  -0.40919
  Beta virt. eigenvalues --   -0.38819  -0.36938  -0.30129  -0.28737  -0.26908
  Beta virt. eigenvalues --   -0.26288  -0.24568  -0.23360  -0.22222  -0.21731

 Mulliken charges and spin densities:
               1          2
     1  S    0.479203   0.787383
     2  S    0.073335  -0.026656
     3  C    0.018401   0.149608
     4  C    0.440433   0.070032
     5  H    0.294296   0.011145
     6  H    0.399941  -0.002788
     7  H    0.294392   0.011277
 Sum of Mulliken charges =   2.00000   1.00000

 Dipole moment (field-independent basis, Debye):
    X=             -1.8718    Y=             -0.1610    Z=              0.0061  Tot=              1.8788
 Quadrupole moment (field-independent basis, Debye-Ang):
   XX=             -3.2282   YY=            -21.3284   ZZ=            -29.0275
   XY=              5.9379   XZ=             -0.0148   YZ=              0.0046

  Exact polarizability:  67.775   1.000  45.792  -0.010   0.001  33.922
 Approx polarizability: 113.821  -2.707  83.824  -0.015  -0.001  56.034

                      1                      2                      3
                      A                      A                      A
 Frequencies --     74.9083               254.4764               295.8737
 Red. masses --      1.1436                 5.9392                 4.0924
 Frc consts  --      0.0038                 0.2266                 0.2111
 IR Inten    --     35.9549                 6.6459                 9.3576

                      4                      5                      6
                      A                      A                      A
 Frequencies --    450.9530               676.8326               813.3531
 Red. masses --      8.8292                 8.3690                 2.9694
 Frc consts  --      1.0579                 2.2589                 1.1574
 IR Inten    --      2.1090                 3.3382                 3.9566

                      7                      8                      9
                      A                      A                      A
 Frequencies --    854.2241               896.6780               927.2594
 Red. masses --      1.2614                 1.5747                 1.1854
 Frc consts  --      0.5423                 0.7460                 0.6005
 IR Inten    --     35.1650                 3.2210                 5.6618

                     10                     11                     12
                      A                      A                      A
 Frequencies --    982.0773              1162.3687              1676.8392
 Red. masses --      1.1996                 1.0425                 6.9418
 Frc consts  --      0.6817                 0.8299                11.5002
 IR Inten    --     34.9052                11.6069                31.5737

                     13                     14                     15
                      A                      A                      A
 Frequencies --   2507.2179              2509.1186              3180.5568
 Red. masses --      1.0351                 1.0420                 1.1237
 Frc consts  --      3.8338                 3.8651                 6.6977
 IR Inten    --    145.3242               128.0694               188.0271

 - Thermochemistry -
 -------------------
 Temperature   298.150 Kelvin.  Pressure   1.00000 Atm.
 Atom     1 has atomic number 16 and mass  31.97207

 Molecular mass:    90.96762 amu.
 Principal axes and moments of inertia in atomic units:
                           1         2         3
     Eigenvalues --   115.61500 726.56112 827.65186
           X            0.99935   0.03599  -0.00007
           Y           -0.03599   0.99935   0.00005
           Z            0.00007  -0.00005   1.00000
 This molecule is an asymmetric top.
 Rotational symmetry number  1.
 Rotational temperatures (Kelvin)      0.74916     0.11921     0.10465
 Rotational constants (GHZ):          15.60992     2.48395     2.18056
 Zero-point vibrational energy     103254.1 (Joules/Mol)
                                   24.67832 (Kcal/Mol)
 Warning -- explicit consideration of   4 degrees of freedom as
           vibrations may cause significant error
 Vibrational temperatures:    107.78   366.13   425.70   648.82   973.81
          (Kelvin)           1170.23  1229.04  1290.12  1334.12  1412.99
                             1672.39  2412.59  3607.32  3610.06  4576.11

 Zero-point correction=                           0.039327 (Hartree/Particle)
 Thermal correction to Energy=                    0.044538
 Thermal correction to Enthalpy=                  0.045482
 Thermal correction to Gibbs Free Energy=         0.009548
 Sum of electronic and zero-point Energies=           -873.548472
 Sum of electronic and thermal Energies=              -873.543261
 Sum of electronic and thermal Enthalpies=            -873.542317
 Sum of electronic and thermal Free Energies=         -873.578251

                     E (Thermal)             CV                S
                      KCal/Mol        Cal/Mol-Kelvin    Cal/Mol-Kelvin
 Total                   27.948             16.431             75.631
 Electronic               0.000              0.000              1.377
 Translational            0.889              2.981             39.436
 Rotational               0.889              2.981             25.745
 Vibrational             26.171             10.470              9.073
 Vibration     1          0.599              1.966              4.020
 Vibration     2          0.665              1.755              1.699
 Vibration     3          0.690              1.681              1.440
 Vibration     4          0.810              1.359              0.793

 Normal termination of Gaussian 09 at Wed Aug  3 20:58:51 2016.
