 Gaussian 09, Revision E.01,
 Gaussian 09:  EM64L-G09RevE.01 30-Nov-2015

 ------------------------------
 #p b3lyp/6-311++G(3df,2p) freq
 ------------------------------

 ---------
 b3lyp opt
 ---------
 Symbolic Z-matrix:
 Charge =  2 Multiplicity = 2

                         Standard orientation:
 ---------------------------------------------------------------------
 Center     Atomic      Atomic             Coordinates (Angstroms)
 Number     Number       Type             X           Y           Z
 ---------------------------------------------------------------------
      1         16           0        1.030847   -0.671672    0.018149
      2         16           0       -1.150714   -0.399754   -0.103407
      3          6           0        0.901994    1.026465   -0.018398
      4          6           0       -0.450835    1.283478    0.037707
      5          1           0        1.745791    1.715080   -0.056966
      6          1           0       -1.044689    2.194007    0.096192
      7          1           0       -1.490198   -0.625920    1.209035
 ---------------------------------------------------------------------

 SCF Done:  E(UB3LYP) =  -873.589447457     A.U. after   17 cycles

 The electronic state is 2-A.
 Alpha  occ. eigenvalues --  -89.42193 -89.41578 -10.72064 -10.70328  -8.50123
 Alpha  occ. eigenvalues --   -8.49375  -6.46345  -6.46152  -6.45757  -6.45679
 Alpha  occ. eigenvalues --   -6.45544  -6.45101  -1.38589  -1.22450  -1.18669
 Alpha  occ. eigenvalues --   -1.01780  -0.97114  -0.92509  -0.91498  -0.84141
 Alpha  occ. eigenvalues --   -0.82503  -0.80061  -0.73714
 Alpha virt. eigenvalues --   -0.57428  -0.50286  -0.47488  -0.42394  -0.35951
 Alpha virt. eigenvalues --   -0.32090  -0.30508  -0.28387  -0.27865  -0.26621
 Alpha virt. eigenvalues --   -0.25647  -0.24142  -0.24076  -0.23590  -0.21732

  Beta  occ. eigenvalues --  -89.42225 -89.41191 -10.71207 -10.70383  -8.50149
  Beta  occ. eigenvalues --   -8.49027  -6.46406  -6.46194  -6.45784  -6.45430
  Beta  occ. eigenvalues --   -6.44889  -6.44378  -1.37592  -1.22155  -1.16301
  Beta  occ. eigenvalues --   -1.01117  -0.96380  -0.91780  -0.90675  -0.82858
  Beta  occ. eigenvalues --   -0.81841  -0.78203
  Beta virt. eigenvalues --   -0.62966  -0.56885  -0.48320  -0.46382  -0.41706
  Beta virt. eigenvalues --   -0.35149  -0.31609  -0.30097  -0.27947  -0.27522
  Beta virt. eigenvalues --   -0.26398  -0.25323  -0.23953  -0.23906  -0.22636

 Mulliken charges and spin densities:
               1          2
     1  S    0.334449   0.554548
     2  S    0.622146  -0.040508
     3  C    0.237333  -0.073670
     4  C   -0.048154   0.568072
     5  H    0.293024  -0.002867
     6  H    0.312369  -0.012509
     7  H    0.248833   0.006935
 Sum of Mulliken charges =   2.00000   1.00000

 Dipole moment (field-independent basis, Debye):
    X=             -0.7575    Y=              1.6291    Z=              1.1346  Tot=              2.1249
 Quadrupole moment (field-independent basis, Debye-Ang):
   XX=            -14.2138   YY=            -17.6722   ZZ=            -30.3734
   XY=              1.0336   XZ=             -2.2814   YZ=             -0.9082

  Exact polarizability:  58.817  -1.224  53.343  -1.582  -0.711  32.315
 Approx polarizability: 122.110 -10.288 104.196  -1.669  -1.409  54.255

                      1                      2                      3
                      A                      A                      A
 Frequencies --    246.4612               424.9551               518.3067
 Red. masses --      2.5315                16.0738                 9.0424
 Frc consts  --      0.0906                 1.7102                 1.4312
 IR Inten    --      2.8872                 0.8573                 1.5637

                      4                      5                      6
                      A                      A                      A
 Frequencies --    684.3461               721.8198               772.8779
 Red. masses --      1.2156                 2.6442                 1.3540
 Frc consts  --      0.3354                 0.8117                 0.4765
 IR Inten    --     25.8097                 6.7057                24.2517

                      7                      8                      9
                      A                      A                      A
 Frequencies --    842.7977               876.2174               931.3231
 Red. masses --      3.9189                 1.3148                 1.2824
 Frc consts  --      1.6401                 0.5948                 0.6553
 IR Inten    --      2.2179                23.1365                17.4664

                     10                     11                     12
                      A                      A                      A
 Frequencies --   1077.6459              1245.0485              1371.4770
 Red. masses --      1.1510                 1.3679                 4.3329
 Frc consts  --      0.7876                 1.2493                 4.8018
 IR Inten    --      0.1396                31.5905                61.1020

                     13                     14                     15
                      A                      A                      A
 Frequencies --   2464.8614              3134.4237              3156.1538
 Red. masses --      1.0396                 1.0936                 1.1058
 Frc consts  --      3.7214                 6.3305                 6.4897
 IR Inten    --    149.6463               123.6901               136.4935

 - Thermochemistry -
 -------------------
 Temperature   298.150 Kelvin.  Pressure   1.00000 Atm.
 Atom     1 has atomic number 16 and mass  31.97207

 Molecular mass:    90.96762 amu.
 Principal axes and moments of inertia in atomic units:
                           1         2         3
     Eigenvalues --   220.58386 345.75824 553.53541
           X            0.99877   0.04472  -0.02158
           Y           -0.04496   0.99893  -0.01078
           Z            0.02107   0.01173   0.99971
 This molecule is an asymmetric top.
 Rotational symmetry number  1.
 Rotational temperatures (Kelvin)      0.39266     0.25050     0.15647
 Rotational constants (GHZ):           8.18166     5.21966     3.26039
 Zero-point vibrational energy     110467.4 (Joules/Mol)
                                   26.40235 (Kcal/Mol)
 Warning -- explicit consideration of   3 degrees of freedom as
           vibrations may cause significant error
 Vibrational temperatures:    354.60   611.41   745.73   984.62  1038.54
          (Kelvin)           1112.00  1212.60  1260.68  1339.96  1550.49
                             1791.34  1973.25  3546.38  4509.73  4541.00

 Zero-point correction=                           0.042075 (Hartree/Particle)
 Thermal correction to Energy=                    0.046429
 Thermal correction to Enthalpy=                  0.047373
 Thermal correction to Gibbs Free Energy=         0.013772
 Sum of electronic and zero-point Energies=           -873.547373
 Sum of electronic and thermal Energies=              -873.543018
 Sum of electronic and thermal Enthalpies=            -873.542074
 Sum of electronic and thermal Free Energies=         -873.575675

                     E (Thermal)             CV                S
                      KCal/Mol        Cal/Mol-Kelvin    Cal/Mol-Kelvin
 Total                   29.135             14.870             70.719
 Electronic               0.000              0.000              1.377
 Translational            0.889              2.981             39.436
 Rotational               0.889              2.981             25.249
 Vibrational             27.357              8.908              4.657
 Vibration     1          0.661              1.769              1.756
 Vibration     2          0.787              1.416              0.875
 Vibration     3          0.873              1.209              0.614

 Normal termination of Gaussian 09 at Wed Aug  3 20:58:46 2016.
