 Gaussian 09, Revision E.01,
 Gaussian 09:  EM64L-G09RevE.01 30-Nov-2015

 ------------------------------
 #p b3lyp/6-311++G(3df,2p) freq
 ------------------------------

 ---------
 b3lyp opt
 ---------
 Symbolic Z-matrix:
 Charge =  1 Multiplicity = 1

                         Standard orientation:
 ---------------------------------------------------------------------
 Center     Atomic      Atomic             Coordinates (Angstroms)
 Number     Number       Type             X           Y           Z
 ---------------------------------------------------------------------
      1         16           0       -2.003892   -0.268390   -0.008764
      2         16           0        1.813494   -0.411774   -0.087033
      3          6           0        0.625622    0.998471    0.028323
      4          6           0       -0.665780    0.398277    0.014433
      5          1           0        0.775893    1.615475    0.917415
      6          1           0        0.757291    1.628133   -0.857209
      7          1           0        1.754123   -0.741457    1.216017
 ---------------------------------------------------------------------

 SCF Done:  E(RB3LYP) =  -874.159669200     A.U. after   12 cycles

 The electronic state is 1-A.
 Alpha  occ. eigenvalues --  -89.14477 -89.06324 -10.52835 -10.45353  -8.22996
 Alpha  occ. eigenvalues --   -8.14799  -6.18993  -6.18954  -6.18845  -6.11238
 Alpha  occ. eigenvalues --   -6.10783  -6.10186  -1.10290  -1.02490  -0.90004
 Alpha  occ. eigenvalues --   -0.76575  -0.70092  -0.68810  -0.64565  -0.58870
 Alpha  occ. eigenvalues --   -0.57423  -0.54378  -0.45234
 Alpha virt. eigenvalues --   -0.32086  -0.31889  -0.19466  -0.15819  -0.14350
 Alpha virt. eigenvalues --   -0.14314  -0.11679  -0.11384  -0.09554  -0.08704
 Alpha virt. eigenvalues --   -0.07787  -0.06238  -0.05933  -0.05638  -0.04890

 Mulliken charges:
               1
     1  S    0.161517
     2  S   -0.009657
     3  C   -0.187999
     4  C    0.437616
     5  H    0.219936
     6  H    0.211067
     7  H    0.167520
 Sum of Mulliken charges =   1.00000

 Dipole moment (field-independent basis, Debye):
    X=             -1.9985    Y=              1.3675    Z=              0.8306  Tot=              2.5601
 Quadrupole moment (field-independent basis, Debye-Ang):
   XX=            -20.7900   YY=            -30.4259   ZZ=            -32.0605
   XY=              1.6779   XZ=              1.5953   YZ=             -1.1935

  Exact polarizability:  95.737   1.749  49.154   0.971  -0.420  41.549
 Approx polarizability: 184.206  11.347  85.615  -0.039  -1.390  69.062

                      1                      2                      3
                      A                      A                      A
 Frequencies --    143.4363               240.3842               361.1628
 Red. masses --     13.4713                 1.1539                 2.2347
 Frc consts  --      0.1633                 0.0393                 0.1717
 IR Inten    --     14.2210                15.8587                 7.9690

                      4                      5                      6
                      A                      A                      A
 Frequencies --    428.1726               672.6003               751.4112
 Red. masses --     11.3704                 5.6704                 1.3555
 Frc consts  --      1.2282                 1.5114                 0.4509
 IR Inten    --     15.6157                 6.9037                 6.6256

                      7                      8                      9
                      A                      A                      A
 Frequencies --    788.4498               986.5503              1152.9555
 Red. masses --      5.2405                 1.3044                 1.1043
 Frc consts  --      1.9194                 0.7480                 0.8649
 IR Inten    --      8.8752                 5.7998                 2.5887

                     10                     11                     12
                      A                      A                      A
 Frequencies --   1197.2033              1390.0362              1644.3735
 Red. masses --      1.1852                 1.0941                12.2261
 Frc consts  --      1.0009                 1.2455                19.4777
 IR Inten    --      4.5313                32.6509               325.3862

                     13                     14                     15
                      A                      A                      A
 Frequencies --   2664.9720              3027.1432              3077.8997
 Red. masses --      1.0392                 1.0565                 1.1035
 Frc consts  --      4.3483                 5.7039                 6.1591
 IR Inten    --     10.6923                51.3334                30.2638

 - Thermochemistry -
 -------------------
 Temperature   298.150 Kelvin.  Pressure   1.00000 Atm.
 Atom     1 has atomic number 16 and mass  31.97207

 Molecular mass:    90.96762 amu.
 Principal axes and moments of inertia in atomic units:
                           1         2         3
     Eigenvalues --   109.52790 896.41432 982.55877
           X            0.99994   0.00603   0.00891
           Y           -0.00574   0.99948  -0.03161
           Z           -0.00910   0.03155   0.99946
 This molecule is an asymmetric top.
 Rotational symmetry number  1.
 Rotational temperatures (Kelvin)      0.79079     0.09662     0.08815
 Rotational constants (GHZ):          16.47746     2.01329     1.83678
 Zero-point vibrational energy     110814.6 (Joules/Mol)
                                   26.48532 (Kcal/Mol)
 Warning -- explicit consideration of   4 degrees of freedom as
           vibrations may cause significant error
 Vibrational temperatures:    206.37   345.86   519.63   616.04   967.72
          (Kelvin)           1081.11  1134.40  1419.42  1658.84  1722.51
                             1999.95  2365.88  3834.30  4355.38  4428.41

 Zero-point correction=                           0.042207 (Hartree/Particle)
 Thermal correction to Energy=                    0.047213
 Thermal correction to Enthalpy=                  0.048157
 Thermal correction to Gibbs Free Energy=         0.013439
 Sum of electronic and zero-point Energies=           -874.117462
 Sum of electronic and thermal Energies=              -874.112457
 Sum of electronic and thermal Enthalpies=            -874.111512
 Sum of electronic and thermal Free Energies=         -874.146230

                     E (Thermal)             CV                S
                      KCal/Mol        Cal/Mol-Kelvin    Cal/Mol-Kelvin
 Total                   29.626             15.890             73.069
 Electronic               0.000              0.000              0.000
 Translational            0.889              2.981             39.436
 Rotational               0.889              2.981             26.070
 Vibrational             27.849              9.928              7.563
 Vibration     1          0.616              1.910              2.758
 Vibration     2          0.657              1.779              1.800
 Vibration     3          0.735              1.552              1.117
 Vibration     4          0.790              1.409              0.865

 Normal termination of Gaussian 09 at Wed Aug  3 20:39:27 2016.
