 Gaussian 09, Revision E.01,
 Gaussian 09:  EM64L-G09RevE.01 30-Nov-2015

 ------------------------------
 #p b3lyp/6-311++G(3df,2p) freq
 ------------------------------

 ---------
 b3lyp opt
 ---------
 Symbolic Z-matrix:
 Charge =  2 Multiplicity = 4

                         Standard orientation:
 ---------------------------------------------------------------------
 Center     Atomic      Atomic             Coordinates (Angstroms)
 Number     Number       Type             X           Y           Z
 ---------------------------------------------------------------------
      1         16           0       -1.243251   -1.369373    0.000000
      2         16           0        1.653270    0.501275   -0.000000
      3          6           0        0.000000    1.149938   -0.000000
      4          6           0       -1.110563    0.367231    0.000000
      5          1           0       -0.109809    2.231771   -0.000000
      6          1           0       -2.094016    0.855130    0.000000
      7          1           0        2.306904    1.699653   -0.000000
 ---------------------------------------------------------------------

 SCF Done:  E(UB3LYP) =  -873.557473406     A.U. after   16 cycles

 The electronic state is 4-A'.
 Alpha  occ. eigenvalues --  -89.40697 -89.38201 -10.68383 -10.68168  -8.48380
 Alpha  occ. eigenvalues --   -8.46223  -6.45069  -6.44857  -6.44033  -6.42949
 Alpha  occ. eigenvalues --   -6.42219  -6.41809  -1.31207  -1.25459  -1.16203
 Alpha  occ. eigenvalues --   -1.00028  -0.94698  -0.89209  -0.85393  -0.83720
 Alpha  occ. eigenvalues --   -0.80078  -0.78797  -0.76701  -0.69910
 Alpha virt. eigenvalues --   -0.46848  -0.42762  -0.39861  -0.37533  -0.31019
 Alpha virt. eigenvalues --   -0.29581  -0.26977  -0.26808  -0.24708  -0.24673
 Alpha virt. eigenvalues --   -0.23732  -0.22584  -0.22371  -0.21466  -0.20314

  Beta  occ. eigenvalues --  -89.39504 -89.37631 -10.67990 -10.67905  -8.47295
  Beta  occ. eigenvalues --   -8.45698  -6.43386  -6.42766  -6.42746  -6.41886
  Beta  occ. eigenvalues --   -6.41489  -6.41183  -1.28414  -1.21059  -1.12016
  Beta  occ. eigenvalues --   -0.97583  -0.93672  -0.87573  -0.83646  -0.78616
  Beta  occ. eigenvalues --   -0.77466
  Beta virt. eigenvalues --   -0.65634  -0.61553  -0.58093  -0.42815  -0.41673
  Beta virt. eigenvalues --   -0.37909  -0.35250  -0.30152  -0.29090  -0.26380
  Beta virt. eigenvalues --   -0.24317  -0.24163  -0.23806  -0.22041  -0.21517

 Mulliken charges and spin densities:
               1          2
     1  S    0.547761   1.773826
     2  S    0.287379   0.869151
     3  C    0.249542   0.219859
     4  C    0.100019   0.145581
     5  H    0.269960  -0.012125
     6  H    0.266814   0.020770
     7  H    0.278524  -0.017062
 Sum of Mulliken charges =   2.00000   3.00000

 Dipole moment (field-independent basis, Debye):
    X=              0.1382    Y=              1.8016    Z=             -0.0000  Tot=              1.8069
 Quadrupole moment (field-independent basis, Debye-Ang):
   XX=             -5.3174   YY=            -13.6427   ZZ=            -32.1817
   XY=             11.6462   XZ=             -0.0000   YZ=             -0.0000

  Exact polarizability:  78.706  20.449  63.597   0.000   0.000  32.037
 Approx polarizability: 136.434  36.972 111.934  -0.000  -0.000  50.526

                      1                      2                      3
                     A"                     A'                     A"
 Frequencies --     93.7871               133.4185               316.7950
 Red. masses --      1.0575                16.2699                 3.2036
 Frc consts  --      0.0055                 0.1706                 0.1894
 IR Inten    --     36.5915                 0.0337                 0.0994

                      4                      5                      6
                     A'                     A'                     A'
 Frequencies --    429.5007               625.9357               666.7692
 Red. masses --      8.3651                 4.8200                 5.3682
 Frc consts  --      0.9092                 1.1126                 1.4061
 IR Inten    --     50.9670               111.8947                10.3814

                      7                      8                      9
                     A"                     A"                     A'
 Frequencies --    685.2442               935.6265               956.5529
 Red. masses --      1.2338                 1.3427                 1.1987
 Frc consts  --      0.3413                 0.6925                 0.6462
 IR Inten    --     38.2537                 0.0308                16.3479

                     10                     11                     12
                     A'                     A'                     A'
 Frequencies --   1199.3158              1297.5102              1484.2412
 Red. masses --      1.0639                 1.1705                 6.8118
 Frc consts  --      0.9016                 1.1611                 8.8414
 IR Inten    --      0.9330                24.0996                22.2918

                     13                     14                     15
                     A'                     A'                     A'
 Frequencies --   2539.9178              3020.6905              3146.4760
 Red. masses --      1.0396                 1.0846                 1.0937
 Frc consts  --      3.9514                 5.8310                 6.3799
 IR Inten    --    205.1214               118.1164                92.8267

 - Thermochemistry -
 -------------------
 Temperature   298.150 Kelvin.  Pressure   1.00000 Atm.
 Atom     1 has atomic number 16 and mass  31.97207

 Molecular mass:    90.96762 amu.
 Principal axes and moments of inertia in atomic units:
                           1         2         3
     Eigenvalues --   152.57592 759.11427 911.69019
           X            0.83590  -0.54889   0.00000
           Y            0.54889   0.83590   0.00000
           Z           -0.00000  -0.00000   1.00000
 This molecule is an asymmetric top.
 Rotational symmetry number  1.
 Rotational temperatures (Kelvin)      0.56768     0.11410     0.09500
 Rotational constants (GHZ):          11.82848     2.37743     1.97956
 Zero-point vibrational energy     104863.3 (Joules/Mol)
                                   25.06294 (Kcal/Mol)
 Warning -- explicit consideration of   4 degrees of freedom as
           vibrations may cause significant error
 Vibrational temperatures:    134.94   191.96   455.80   617.95   900.58
          (Kelvin)            959.33   985.91  1346.16  1376.26  1725.55
                             1866.83  2135.49  3654.37  4346.09  4527.07

 Zero-point correction=                           0.039940 (Hartree/Particle)
 Thermal correction to Energy=                    0.045389
 Thermal correction to Enthalpy=                  0.046333
 Thermal correction to Gibbs Free Energy=         0.009080
 Sum of electronic and zero-point Energies=           -873.517533
 Sum of electronic and thermal Energies=              -873.512084
 Sum of electronic and thermal Enthalpies=            -873.511140
 Sum of electronic and thermal Free Energies=         -873.548393

                     E (Thermal)             CV                S
                      KCal/Mol        Cal/Mol-Kelvin    Cal/Mol-Kelvin
 Total                   28.482             16.928             78.407
 Electronic               0.000              0.000              2.755
 Translational            0.889              2.981             39.436
 Rotational               0.889              2.981             26.160
 Vibrational             26.705             10.966             10.056
 Vibration     1          0.603              1.954              3.579
 Vibration     2          0.613              1.920              2.896
 Vibration     3          0.704              1.642              1.327
 Vibration     4          0.791              1.406              0.860

 Optimization completed.
    -- Stationary point found.
 Normal termination of Gaussian 09 at Wed Aug  3 22:58:11 2016.
