 Gaussian 09, Revision E.01,
 Gaussian 09:  EM64L-G09RevE.01 30-Nov-2015

 ------------------------------
 #p b3lyp/6-311++G(3df,2p) freq
 ------------------------------

 ---------
 b3lyp opt
 ---------
 Symbolic Z-matrix:
 Charge =  0 Multiplicity = 2

                         Standard orientation:
 ---------------------------------------------------------------------
 Center     Atomic      Atomic             Coordinates (Angstroms)
 Number     Number       Type             X           Y           Z
 ---------------------------------------------------------------------
      1         16           0       -1.862759   -0.363867   -0.000037
      2         16           0        1.649466   -0.527943    0.000286
      3          6           0        0.618447    1.028470    0.000536
      4          6           0       -0.812292    0.790573   -0.000776
      5          1           0        0.869401    1.624443    0.880409
      6          1           0        0.871503    1.625895   -0.877698
      7          1           0        2.834857    0.104375   -0.005266
 ---------------------------------------------------------------------

 SCF Done:  E(UB3LYP) =  -874.413439361     A.U. after   15 cycles

 The electronic state is 2-A.
 Alpha  occ. eigenvalues --  -88.87373 -88.85728 -10.25397 -10.24060  -7.95977
 Alpha  occ. eigenvalues --   -7.94314  -5.92119  -5.91985  -5.91789  -5.90724
 Alpha  occ. eigenvalues --   -5.90367  -5.89709  -0.85366  -0.78237  -0.69686
 Alpha  occ. eigenvalues --   -0.54019  -0.47847  -0.46402  -0.43010  -0.36596
 Alpha  occ. eigenvalues --   -0.33361  -0.33121  -0.25738  -0.20236
 Alpha virt. eigenvalues --   -0.09162  -0.02452  -0.00074   0.01451   0.02089
 Alpha virt. eigenvalues --    0.02756   0.03835   0.05396   0.06137   0.06561
 Alpha virt. eigenvalues --    0.07157   0.07982   0.08959   0.09679   0.11496

  Beta  occ. eigenvalues --  -88.87175 -88.85662 -10.24374 -10.23998  -7.95796
  Beta  occ. eigenvalues --   -7.94251  -5.91919  -5.91893  -5.91244  -5.90581
  Beta  occ. eigenvalues --   -5.90271  -5.89670  -0.84241  -0.77595  -0.69022
  Beta  occ. eigenvalues --   -0.52726  -0.47626  -0.45107  -0.42024  -0.35621
  Beta  occ. eigenvalues --   -0.32670  -0.30235  -0.25602
  Beta virt. eigenvalues --   -0.09801  -0.08004  -0.02306   0.00431   0.01599
  Beta virt. eigenvalues --    0.02097   0.02892   0.04042   0.05554   0.06115
  Beta virt. eigenvalues --    0.06651   0.07160   0.08221   0.09174   0.09906

 Mulliken charges and spin densities:
               1          2
     1  S   -0.027211   0.301088
     2  S   -0.307871   0.110396
     3  C    0.068296  -0.059668
     4  C   -0.179892   0.647012
     5  H    0.159082   0.000298
     6  H    0.158962   0.000355
     7  H    0.128635   0.000519
 Sum of Mulliken charges =  -0.00000   1.00000

 Dipole moment (field-independent basis, Debye):
    X=              1.2945    Y=              1.5793    Z=             -0.0013  Tot=              2.0420
 Quadrupole moment (field-independent basis, Debye-Ang):
   XX=            -37.6415   YY=            -38.2772   ZZ=            -39.5777
   XY=              4.2772   XZ=             -0.0202   YZ=             -0.0007

  Exact polarizability:  91.949   4.564  65.994  -0.002  -0.002  50.310
 Approx polarizability: 138.508  20.898 118.967  -0.027  -0.017  79.244

                      1                      2                      3
                      A                      A                      A
 Frequencies --    123.7103               179.1480               194.4717
 Red. masses --     16.9520                 1.8129                 1.2789
 Frc consts  --      0.1529                 0.0343                 0.0285
 IR Inten    --      1.2958                24.2597                 1.7262

                      4                      5                      6
                      A                      A                      A
 Frequencies --    453.9128               621.3727               777.5982
 Red. masses --      9.3556                 4.4142                 4.0608
 Frc consts  --      1.1357                 1.0042                 1.4467
 IR Inten    --      5.1825                19.2109                33.2195

                      7                      8                      9
                      A                      A                      A
 Frequencies --    788.5854               908.5746              1140.6276
 Red. masses --      1.6058                 1.2801                 1.0632
 Frc consts  --      0.5884                 0.6226                 0.8150
 IR Inten    --      0.1264                 0.6914                 2.9597

                     10                     11                     12
                      A                      A                      A
 Frequencies --   1216.0001              1403.9171              1423.4245
 Red. masses --      1.1940                 4.5974                 1.2735
 Frc consts  --      1.0402                 5.3388                 1.5203
 IR Inten    --     38.1039                83.9548                 0.1443

                     13                     14                     15
                      A                      A                      A
 Frequencies --   2674.6077              3032.9704              3069.8383
 Red. masses --      1.0386                 1.0566                 1.1037
 Frc consts  --      4.3774                 5.7267                 6.1280
 IR Inten    --      2.0521                 8.8884                 1.0088

 - Thermochemistry -
 -------------------
 Temperature   298.150 Kelvin.  Pressure   1.00000 Atm.
 Atom     1 has atomic number 16 and mass  31.97207

 Molecular mass:    90.96762 amu.
 Principal axes and moments of inertia in atomic units:
                           1         2         3
     Eigenvalues --   143.02560 790.81570 922.71667
           X            0.99984   0.01797  -0.00007
           Y           -0.01797   0.99984   0.00006
           Z            0.00007  -0.00006   1.00000
 This molecule is an asymmetric top.
 Rotational symmetry number  1.
 Rotational temperatures (Kelvin)      0.60558     0.10952     0.09387
 Rotational constants (GHZ):          12.61831     2.28213     1.95590
 Zero-point vibrational energy     107716.3 (Joules/Mol)
                                   25.74481 (Kcal/Mol)
 Warning -- explicit consideration of   4 degrees of freedom as
           vibrations may cause significant error
 Vibrational temperatures:    177.99   257.75   279.80   653.08   894.02
          (Kelvin)           1118.79  1134.60  1307.23  1641.11  1749.55
                             2019.92  2047.99  3848.16  4363.76  4416.81

 Zero-point correction=                           0.041027 (Hartree/Particle)
 Thermal correction to Energy=                    0.046393
 Thermal correction to Enthalpy=                  0.047337
 Thermal correction to Gibbs Free Energy=         0.011024
 Sum of electronic and zero-point Energies=           -874.372412
 Sum of electronic and thermal Energies=              -874.367047
 Sum of electronic and thermal Enthalpies=            -874.366103
 Sum of electronic and thermal Free Energies=         -874.402416

                     E (Thermal)             CV                S
                      KCal/Mol        Cal/Mol-Kelvin    Cal/Mol-Kelvin
 Total                   29.112             16.437             76.427
 Electronic               0.000              0.000              1.377
 Translational            0.889              2.981             39.436
 Rotational               0.889              2.981             26.148
 Vibrational             27.334             10.475              9.466
 Vibration     1          0.610              1.929              3.042
 Vibration     2          0.629              1.868              2.337
 Vibration     3          0.635              1.848              2.185
 Vibration     4          0.812              1.352              0.784

 Normal termination of Gaussian 09 at Wed Aug  3 20:25:33 2016.
