 Gaussian 09, Revision E.01,
 Gaussian 09:  EM64L-G09RevE.01 30-Nov-2015

 ------------------------------
 #p b3lyp/6-311++G(3df,2p) freq
 ------------------------------

 ---------
 b3lyp opt
 ---------
 Symbolic Z-matrix:
 Charge =  1 Multiplicity = 3

                         Standard orientation:
 ---------------------------------------------------------------------
 Center     Atomic      Atomic             Coordinates (Angstroms)
 Number     Number       Type             X           Y           Z
 ---------------------------------------------------------------------
      1         16           0       -1.846071    0.050651   -0.037177
      2         16           0        1.194361   -0.477363    0.010207
      3          6           0       -0.163509    0.595421   -0.000724
      4          6           0        2.528155    0.543494   -0.008698
      5          1           0       -1.995562   -0.548190    1.177221
      6          1           0       -0.046729    1.672634    0.001873
      7          1           0       -1.718227   -1.130532   -0.691042
 ---------------------------------------------------------------------

 SCF Done:  E(UB3LYP) =  -873.965860829     A.U. after   19 cycles

 The electronic state is 3-A.
 Alpha  occ. eigenvalues --  -89.18923 -89.10903 -10.47827 -10.43944  -8.27192
 Alpha  occ. eigenvalues --   -8.19281  -6.23330  -6.23288  -6.22843  -6.15493
 Alpha  occ. eigenvalues --   -6.15190  -6.14995  -1.10834  -1.03629  -0.89490
 Alpha  occ. eigenvalues --   -0.77866  -0.73968  -0.70023  -0.63891  -0.60226
 Alpha  occ. eigenvalues --   -0.57444  -0.48838  -0.46073  -0.42442
 Alpha virt. eigenvalues --   -0.28354  -0.24713  -0.23163  -0.21714  -0.16672
 Alpha virt. eigenvalues --   -0.14222  -0.12930  -0.12074  -0.10807  -0.10328
 Alpha virt. eigenvalues --   -0.07953  -0.07681  -0.07171  -0.05743  -0.04493

  Beta  occ. eigenvalues --  -89.18929 -89.10907 -10.46401 -10.42423  -8.27186
  Beta  occ. eigenvalues --   -8.19257  -6.23309  -6.23302  -6.22846  -6.15530
  Beta  occ. eigenvalues --   -6.15137  -6.14988  -1.09531  -1.02153  -0.86254
  Beta  occ. eigenvalues --   -0.75563  -0.72874  -0.68987  -0.62601  -0.58731
  Beta  occ. eigenvalues --   -0.54339  -0.46625
  Beta virt. eigenvalues --   -0.34945  -0.28895  -0.25604  -0.22826  -0.21487
  Beta virt. eigenvalues --   -0.20792  -0.15636  -0.13511  -0.12571  -0.11865
  Beta virt. eigenvalues --   -0.10428  -0.10003  -0.07659  -0.07233  -0.06597

 Mulliken charges and spin densities:
               1          2
     1  S   -0.006022   0.048420
     2  S    0.056720   0.105089
     3  C    0.226976   0.764004
     4  C    0.021164   1.019669
     5  H    0.230734   0.053642
     6  H    0.241527  -0.008034
     7  H    0.228901   0.017209
 Sum of Mulliken charges =   1.00000   2.00000

 Dipole moment (field-independent basis, Debye):
    X=             -5.8921    Y=             -1.1667    Z=              0.4134  Tot=              6.0208
 Quadrupole moment (field-independent basis, Debye-Ang):
   XX=            -25.4216   YY=            -32.2092   ZZ=            -33.4541
   XY=              0.5009   XZ=             -1.1321   YZ=              0.3496

  Exact polarizability: 100.228   6.483  51.413  -1.288  -0.097  42.384
 Approx polarizability: 171.041  16.890  88.865  -2.428   0.010  70.765

                      1                      2                      3
                      A                      A                      A
 Frequencies --     61.1088                87.0102               182.0959
 Red. masses --      1.1850                 4.8241                 7.8142
 Frc consts  --      0.0026                 0.0215                 0.1527
 IR Inten    --     22.2388                 2.2768                 4.2795

                      4                      5                      6
                      A                      A                      A
 Frequencies --    284.5468               510.4799               588.3663
 Red. masses --      9.8020                 1.3204                 4.5716
 Frc consts  --      0.4676                 0.2027                 0.9324
 IR Inten    --     16.8317                37.2594                 0.1977

                      7                      8                      9
                      A                      A                      A
 Frequencies --    757.3248               838.4060               856.8381
 Red. masses --      8.2687                 1.8433                 1.8595
 Frc consts  --      2.7942                 0.7634                 0.8044
 IR Inten    --     27.2541                52.5033                24.3059

                     10                     11                     12
                      A                      A                      A
 Frequencies --    885.1499              1182.4031              1230.4396
 Red. masses --      1.3643                 1.0813                 1.0951
 Frc consts  --      0.6298                 0.8907                 0.9768
 IR Inten    --      4.5150                18.1659                 1.6697

                     13                     14                     15
                      A                      A                      A
 Frequencies --   2516.6071              2581.9730              3177.3293
 Red. masses --      1.0382                 1.0377                 1.0893
 Frc consts  --      3.8738                 4.0760                 6.4791
 IR Inten    --     27.9720                31.7482                30.8547

 - Thermochemistry -
 -------------------
 Temperature   298.150 Kelvin.  Pressure   1.00000 Atm.
 Atom     1 has atomic number 16 and mass  31.97207

 Molecular mass:    90.96762 amu.
 Principal axes and moments of inertia in atomic units:
                           1         2         3
     Eigenvalues --    76.62198 858.43478 921.36397
           X            0.99990   0.01336  -0.00486
           Y           -0.01333   0.99989   0.00699
           Z            0.00496  -0.00693   0.99996
 This molecule is an asymmetric top.
 Rotational symmetry number  1.
 Rotational temperatures (Kelvin)      1.13040     0.10090     0.09401
 Rotational constants (GHZ):          23.55383     2.10236     1.95877
 Zero-point vibrational energy      94146.6 (Joules/Mol)
                                   22.50157 (Kcal/Mol)
 Warning -- explicit consideration of   6 degrees of freedom as
           vibrations may cause significant error
 Vibrational temperatures:     87.92   125.19   262.00   409.40   734.47
          (Kelvin)            846.53  1089.62  1206.28  1232.80  1273.53
                             1701.21  1770.33  3620.83  3714.88  4571.46

 Zero-point correction=                           0.035859 (Hartree/Particle)
 Thermal correction to Energy=                    0.041988
 Thermal correction to Enthalpy=                  0.042932
 Thermal correction to Gibbs Free Energy=         0.004395
 Sum of electronic and zero-point Energies=           -873.930002
 Sum of electronic and thermal Energies=              -873.923873
 Sum of electronic and thermal Enthalpies=            -873.922929
 Sum of electronic and thermal Free Energies=         -873.961466

                     E (Thermal)             CV                S
                      KCal/Mol        Cal/Mol-Kelvin    Cal/Mol-Kelvin
 Total                   26.348             18.543             81.108
 Electronic               0.000              0.000              2.183
 Translational            0.889              2.981             39.436
 Rotational               0.889              2.981             25.608
 Vibrational             24.570             12.582             13.881
 Vibration     1          0.597              1.973              4.421
 Vibration     2          0.601              1.958              3.726
 Vibration     3          0.630              1.864              2.307
 Vibration     4          0.683              1.702              1.506
 Vibration     5          0.866              1.227              0.632
 Vibration     6          0.946              1.057              0.470

 Normal termination of Gaussian 09 at Wed Aug  3 20:48:39 2016.
