 Gaussian 09, Revision E.01,
 Gaussian 09:  EM64L-G09RevE.01 30-Nov-2015

 ------------------------------
 #p b3lyp/6-311++G(3df,2p) freq
 ------------------------------

 ---------
 b3lyp opt
 ---------
 Symbolic Z-matrix:
 Charge =  1 Multiplicity = 1

                         Standard orientation:
 ---------------------------------------------------------------------
 Center     Atomic      Atomic             Coordinates (Angstroms)
 Number     Number       Type             X           Y           Z
 ---------------------------------------------------------------------
      1         16           0       -1.681867   -0.454932    0.000014
      2         16           0        1.566655   -0.468670    0.000059
      3          6           0        0.653438    0.909192   -0.000253
      4          6           0       -0.792610    0.902565   -0.000330
      5          1           0        1.165836    1.866905   -0.000148
      6          1           0       -1.254535    1.886919    0.002081
      7          1           0        2.767117    0.153275    0.000399
 ---------------------------------------------------------------------

 SCF Done:  E(RB3LYP) =  -874.141515268     A.U. after   12 cycles

 The electronic state is 1-A.
 Alpha  occ. eigenvalues --  -89.14414 -89.07389 -10.49860 -10.45362  -8.22838
 Alpha  occ. eigenvalues --   -8.15821  -6.19012  -6.18713  -6.18621  -6.12331
 Alpha  occ. eigenvalues --   -6.11881  -6.11075  -1.09768  -1.01152  -0.90222
 Alpha  occ. eigenvalues --   -0.77289  -0.74708  -0.66375  -0.62169  -0.60389
 Alpha  occ. eigenvalues --   -0.58439  -0.51927  -0.44823
 Alpha virt. eigenvalues --   -0.37896  -0.24597  -0.21980  -0.16564  -0.14295
 Alpha virt. eigenvalues --   -0.13150  -0.12397  -0.10539  -0.10211  -0.07061
 Alpha virt. eigenvalues --   -0.06928  -0.06407  -0.06142  -0.05978  -0.04769

 Mulliken charges:
               1
     1  S    0.014652
     2  S    0.101437
     3  C    0.200308
     4  C   -0.007742
     5  H    0.230234
     6  H    0.244458
     7  H    0.216652
 Sum of Mulliken charges =   1.00000

 Dipole moment (field-independent basis, Debye):
    X=              3.5150    Y=              2.2047    Z=              0.0018  Tot=              4.1492
 Quadrupole moment (field-independent basis, Debye-Ang):
   XX=            -19.2924   YY=            -28.2270   ZZ=            -34.9929
   XY=              0.7478   XZ=              0.0004   YZ=              0.0009

  Exact polarizability:  91.114   1.832  56.701  -0.032  -0.012  36.518
 Approx polarizability: 175.989   8.723 109.995  -0.007  -0.015  61.507

                      1                      2                      3
                      A                      A                      A
 Frequencies --     86.9156               178.9398               545.6592
 Red. masses --      2.0101                17.3788                 5.9030
 Frc consts  --      0.0089                 0.3279                 1.0355
 IR Inten    --      5.1891                 2.0881                19.9502

                      4                      5                      6
                      A                      A                      A
 Frequencies --    561.3687               787.2972               816.2322
 Red. masses --      1.2013                 1.2414                 4.4015
 Frc consts  --      0.2230                 0.4534                 1.7277
 IR Inten    --     27.5607                22.5309                 4.0036

                      7                      8                      9
                      A                      A                      A
 Frequencies --    989.7759              1015.8729              1030.5489
 Red. masses --      1.4982                 1.7268                 1.8280
 Frc consts  --      0.8648                 1.0499                 1.1439
 IR Inten    --      0.0626                 3.8079                53.5816

                     10                     11                     12
                      A                      A                      A
 Frequencies --   1168.3256              1331.9822              1406.3188
 Red. masses --      1.9398                 1.6963                 1.5138
 Frc consts  --      1.5601                 1.7732                 1.7639
 IR Inten    --     52.4188                46.3648                 2.3129

                     13                     14                     15
                      A                      A                      A
 Frequencies --   2626.7935              3121.7812              3156.0280
 Red. masses --      1.0386                 1.0884                 1.0918
 Frc consts  --      4.2224                 6.2495                 6.4076
 IR Inten    --     40.4302                 4.2332                12.9042

 - Thermochemistry -
 -------------------
 Temperature   298.150 Kelvin.  Pressure   1.00000 Atm.
 Atom     1 has atomic number 16 and mass  31.97207

 Molecular mass:    90.96762 amu.
 Principal axes and moments of inertia in atomic units:
                           1         2         3
     Eigenvalues --   143.89828 686.25100 830.14924
           X            1.00000   0.00227  -0.00001
           Y           -0.00227   1.00000   0.00009
           Z            0.00001  -0.00009   1.00000
 This molecule is an asymmetric top.
 Rotational symmetry number  1.
 Rotational temperatures (Kelvin)      0.60191     0.12621     0.10434
 Rotational constants (GHZ):          12.54178     2.62986     2.17400
 Zero-point vibrational energy     112591.6 (Joules/Mol)
                                   26.91003 (Kcal/Mol)
 Warning -- explicit consideration of   4 degrees of freedom as
           vibrations may cause significant error
 Vibrational temperatures:    125.05   257.45   785.08   807.68  1132.74
          (Kelvin)           1174.37  1424.06  1461.61  1482.73  1680.96
                             1916.42  2023.38  3779.37  4491.54  4540.81

 Zero-point correction=                           0.042884 (Hartree/Particle)
 Thermal correction to Energy=                    0.047744
 Thermal correction to Enthalpy=                  0.048688
 Thermal correction to Gibbs Free Energy=         0.013882
 Sum of electronic and zero-point Energies=           -874.098631
 Sum of electronic and thermal Energies=              -874.093772
 Sum of electronic and thermal Enthalpies=            -874.092827
 Sum of electronic and thermal Free Energies=         -874.127633

                     E (Thermal)             CV                S
                      KCal/Mol        Cal/Mol-Kelvin    Cal/Mol-Kelvin
 Total                   29.960             14.907             73.255
 Electronic               0.000              0.000              0.000
 Translational            0.889              2.981             39.436
 Rotational               0.889              2.981             25.908
 Vibrational             28.182              8.945              7.911
 Vibration     1          0.601              1.958              3.728
 Vibration     2          0.629              1.868              2.339
 Vibration     3          0.901              1.149              0.553
 Vibration     4          0.917              1.115              0.521

 Normal termination of Gaussian 09 at Wed Aug  3 20:39:34 2016.
