 Gaussian 09, Revision E.01,
 Gaussian 09:  EM64L-G09RevE.01 30-Nov-2015

 ------------------------------
 #p b3lyp/6-311++G(3df,2p) freq
 ------------------------------

 ---------
 b3lyp opt
 ---------
 Symbolic Z-matrix:
 Charge =  2 Multiplicity = 2

                         Standard orientation:
 ---------------------------------------------------------------------
 Center     Atomic      Atomic             Coordinates (Angstroms)
 Number     Number       Type             X           Y           Z
 ---------------------------------------------------------------------
      1         16           0        1.088567   -0.085449   -0.039937
      2          6           0       -1.829814   -0.000893    0.000242
      3          6           0       -0.495352    0.041434    0.015452
      4          1           0       -2.429872    0.840833   -0.399470
      5          1           0       -2.379317   -0.876973    0.401561
      6          1           0        1.343120    1.160081    0.542725
 ---------------------------------------------------------------------

 SCF Done:  E(UB3LYP) =  -475.278859213     A.U. after   16 cycles

 The electronic state is 2-A.
 Alpha  occ. eigenvalues --  -89.46301 -10.82327 -10.75950  -8.54248  -6.50450
 Alpha  occ. eigenvalues --   -6.50365  -6.50006  -1.38887  -1.29164  -1.06839
 Alpha  occ. eigenvalues --   -0.99906  -0.96496  -0.93502  -0.86869  -0.80932
 Alpha virt. eigenvalues --   -0.62965  -0.54741  -0.46398  -0.42834  -0.35006
 Alpha virt. eigenvalues --   -0.30638  -0.29215  -0.28821  -0.27142  -0.26132
 Alpha virt. eigenvalues --   -0.24957  -0.23476  -0.22987  -0.21796  -0.19146

  Beta  occ. eigenvalues --  -89.46076 -10.81916 -10.75344  -8.54037  -6.50256
  Beta  occ. eigenvalues --   -6.49901  -6.49719  -1.37440  -1.26992  -1.05540
  Beta  occ. eigenvalues --   -0.98979  -0.95678  -0.91288  -0.85234
  Beta virt. eigenvalues --   -0.70604  -0.61434  -0.51224  -0.45382  -0.41527
  Beta virt. eigenvalues --   -0.34438  -0.30109  -0.28949  -0.28152  -0.26692
  Beta virt. eigenvalues --   -0.25796  -0.24485  -0.23220  -0.22430  -0.21098

 Mulliken charges and spin densities:
               1          2
     1  S    0.356687   0.338776
     2  C    0.132965   0.365231
     3  C    0.553364   0.252905
     4  H    0.314170  -0.003701
     5  H    0.313444  -0.003577
     6  H    0.329369   0.050367
 Sum of Mulliken charges =   2.00000   1.00000

 Dipole moment (field-independent basis, Debye):
    X=             -2.6632    Y=              1.1651    Z=              0.5270  Tot=              2.9543
 Quadrupole moment (field-independent basis, Debye-Ang):
   XX=              7.6800   YY=            -15.6346   ZZ=            -19.5238
   XY=              1.9965   XZ=              0.9315   YZ=              0.1816

  Exact polarizability:  62.382   1.772  24.989   0.562   0.247  21.671
 Approx polarizability: 121.941   0.992  39.083   0.606   1.122  32.709

                      1                      2                      3
                      A                      A                      A
 Frequencies --    296.1681               326.3840               443.3025
 Red. masses --      3.2728                 2.6115                 1.0677
 Frc consts  --      0.1691                 0.1639                 0.1236
 IR Inten    --     13.9493                12.0003                28.7744

                      4                      5                      6
                      A                      A                      A
 Frequencies --    754.0236               769.6052               901.0806
 Red. masses --      1.2079                 5.5403                 1.6029
 Frc consts  --      0.4046                 1.9334                 0.7668
 IR Inten    --     35.5481                22.5581                12.3842

                      7                      8                      9
                      A                      A                      A
 Frequencies --    961.7074              1286.3080              1475.9289
 Red. masses --      1.3607                 1.1101                 7.7738
 Frc consts  --      0.7415                 1.0822                 9.9774
 IR Inten    --     29.3674                84.5936                 2.2129

                     10                     11                     12
                      A                      A                      A
 Frequencies --   2278.3086              2891.2670              2971.6290
 Red. masses --      1.0395                 1.0476                 1.1138
 Frc consts  --      3.1792                 5.1599                 5.7951
 IR Inten    --    361.3993               445.5809               250.0344

 - Thermochemistry -
 -------------------
 Temperature   298.150 Kelvin.  Pressure   1.00000 Atm.
 Atom     1 has atomic number 16 and mass  31.97207

 Molecular mass:    58.99555 amu.
 Principal axes and moments of inertia in atomic units:
                           1         2         3
     Eigenvalues --    13.26796 339.18098 347.71194
           X            0.99983   0.01680   0.00729
           Y           -0.01668   0.99975  -0.01517
           Z           -0.00755   0.01504   0.99986
 This molecule is an asymmetric top.
 Rotational symmetry number  1.
 Rotational temperatures (Kelvin)      6.52804     0.25536     0.24910
 Rotational constants (GHZ):         136.02248     5.32088     5.19033
 Zero-point vibrational energy      91847.6 (Joules/Mol)
                                   21.95209 (Kcal/Mol)
 Warning -- explicit consideration of   3 degrees of freedom as
           vibrations may cause significant error
 Vibrational temperatures:    426.12   469.59   637.81  1084.87  1107.29
          (Kelvin)           1296.45  1383.68  1850.71  2123.53  3277.97
                             4159.88  4275.51

 Zero-point correction=                           0.034983 (Hartree/Particle)
 Thermal correction to Energy=                    0.039192
 Thermal correction to Enthalpy=                  0.040137
 Thermal correction to Gibbs Free Energy=         0.008872
 Sum of electronic and zero-point Energies=           -475.243876
 Sum of electronic and thermal Energies=              -475.239667
 Sum of electronic and thermal Enthalpies=            -475.238723
 Sum of electronic and thermal Free Energies=         -475.269987

                     E (Thermal)             CV                S
                      KCal/Mol        Cal/Mol-Kelvin    Cal/Mol-Kelvin
 Total                   24.594             13.233             65.802
 Electronic               0.000              0.000              1.377
 Translational            0.889              2.981             38.145
 Rotational               0.889              2.981             21.975
 Vibrational             22.816              7.272              4.305
 Vibration     1          0.690              1.681              1.438
 Vibration     2          0.710              1.623              1.278
 Vibration     3          0.803              1.376              0.816

 Optimization completed.
    -- Stationary point found.
 Normal termination of Gaussian 09 at Wed Aug  3 21:10:46 2016.
