 Gaussian 09, Revision E.01,
 Gaussian 09:  EM64L-G09RevE.01 30-Nov-2015

 ------------------------------
 #p b3lyp/6-311++G(3df,2p) freq
 ------------------------------

 ---------
 b3lyp opt
 ---------
 Symbolic Z-matrix:
 Charge =  1 Multiplicity = 1

                         Standard orientation:
 ---------------------------------------------------------------------
 Center     Atomic      Atomic             Coordinates (Angstroms)
 Number     Number       Type             X           Y           Z
 ---------------------------------------------------------------------
      1         16           0        1.039807    1.890036   -0.000000
      2         16           0       -0.418115   -1.824447    0.000000
      3          6           0       -0.938595   -0.168161   -0.000000
      4          6           0        0.000000    0.777551   -0.000000
      5          1           0       -1.160679   -2.385971    0.987242
      6          1           0       -1.994154    0.066180   -0.000000
      7          1           0       -1.160679   -2.385971   -0.987242
 ---------------------------------------------------------------------

 SCF Done:  E(RB3LYP) =  -874.141284361     A.U. after   13 cycles

 The electronic state is 1-A'.
 Alpha  occ. eigenvalues --  -89.16581 -89.07493 -10.46181 -10.41607  -8.24800
 Alpha  occ. eigenvalues --   -8.16039  -6.20944  -6.20911  -6.20457  -6.12181
 Alpha  occ. eigenvalues --   -6.12125  -6.11619  -1.08460  -1.02355  -0.92538
 Alpha  occ. eigenvalues --   -0.73583  -0.71236  -0.71213  -0.63733  -0.58153
 Alpha  occ. eigenvalues --   -0.56574  -0.52811  -0.43989
 Alpha virt. eigenvalues --   -0.29049  -0.23612  -0.21717  -0.19480  -0.17725
 Alpha virt. eigenvalues --   -0.12289  -0.11794  -0.10752  -0.10470  -0.09502
 Alpha virt. eigenvalues --   -0.08569  -0.06483  -0.05940  -0.05315  -0.04467

 Mulliken charges:
               1
     1  S    0.037287
     2  S    0.126466
     3  C   -0.194305
     4  C    0.373093
     5  H    0.217239
     6  H    0.222982
     7  H    0.217239
 Sum of Mulliken charges =   1.00000

 Dipole moment (field-independent basis, Debye):
    X=             -2.3253    Y=             -3.9054    Z=             -0.0000  Tot=              4.5453
 Quadrupole moment (field-independent basis, Debye-Ang):
   XX=            -27.6454   YY=            -13.6002   ZZ=            -34.3138
   XY=              9.3325   XZ=              0.0000   YZ=              0.0000

  Exact polarizability:  59.086  26.564  89.977   0.000   0.000  40.842
 Approx polarizability: 112.457  58.829 154.320   0.000   0.000  65.296

                      1                      2                      3
                     A'                     A"                     A"
 Frequencies --    153.6641               189.8558               442.5045
 Red. masses --     10.0980                 1.1520                 3.6983
 Frc consts  --      0.1405                 0.0245                 0.4267
 IR Inten    --      1.8515                29.9895                 5.4234

                      4                      5                      6
                     A'                     A"                     A'
 Frequencies --    477.0691               585.0640               741.0872
 Red. masses --     10.9325                 1.4432                 2.7648
 Frc consts  --      1.4660                 0.2911                 0.8946
 IR Inten    --     22.0606                35.1356                 3.9559

                      7                      8                      9
                     A'                     A"                     A'
 Frequencies --    851.6239               901.8151               984.8481
 Red. masses --      1.9464                 1.1106                 2.4349
 Frc consts  --      0.8317                 0.5322                 1.3915
 IR Inten    --     61.7538                12.5813                 4.7764

                     10                     11                     12
                     A'                     A'                     A'
 Frequencies --   1218.1285              1256.9733              1773.4307
 Red. masses --      1.1632                 1.1707                10.6155
 Frc consts  --      1.0169                 1.0898                19.6706
 IR Inten    --      1.8253                44.1231               502.3246

                     13                     14                     15
                     A"                     A'                     A'
 Frequencies --   2560.8910              2569.9339              3185.1749
 Red. masses --      1.0420                 1.0344                 1.0896
 Frc consts  --      4.0264                 4.0252                 6.5127
 IR Inten    --     24.9580                17.4004                55.1773

 - Thermochemistry -
 -------------------
 Temperature   298.150 Kelvin.  Pressure   1.00000 Atm.
 Atom     1 has atomic number 16 and mass  31.97207

 Molecular mass:    90.96762 amu.
 Principal axes and moments of inertia in atomic units:
                           1         2         3
     Eigenvalues --    68.450831005.189181059.60895
           X            0.39074   0.92050  -0.00000
           Y            0.92050  -0.39074   0.00000
           Z           -0.00000   0.00000   1.00000
 This molecule is an asymmetric top.
 Rotational symmetry number  1.
 Rotational temperatures (Kelvin)      1.26534     0.08617     0.08174
 Rotational constants (GHZ):          26.36551     1.79542     1.70321
 Zero-point vibrational energy     107018.3 (Joules/Mol)
                                   25.57799 (Kcal/Mol)
 Warning -- explicit consideration of   5 degrees of freedom as
           vibrations may cause significant error
 Vibrational temperatures:    221.09   273.16   636.66   686.40   841.78
          (Kelvin)           1066.26  1225.30  1297.51  1416.97  1752.61
                             1808.50  2551.57  3684.55  3697.56  4582.75

 Zero-point correction=                           0.040761 (Hartree/Particle)
 Thermal correction to Energy=                    0.045773
 Thermal correction to Enthalpy=                  0.046717
 Thermal correction to Gibbs Free Energy=         0.012109
 Sum of electronic and zero-point Energies=           -874.100523
 Sum of electronic and thermal Energies=              -874.095511
 Sum of electronic and thermal Enthalpies=            -874.094567
 Sum of electronic and thermal Free Energies=         -874.129176

                     E (Thermal)             CV                S
                      KCal/Mol        Cal/Mol-Kelvin    Cal/Mol-Kelvin
 Total                   28.723             16.064             72.839
 Electronic               0.000              0.000              0.000
 Translational            0.889              2.981             39.436
 Rotational               0.889              2.981             25.792
 Vibrational             26.945             10.103              7.612
 Vibration     1          0.619              1.899              2.626
 Vibration     2          0.633              1.854              2.229
 Vibration     3          0.802              1.377              0.819
 Vibration     4          0.834              1.301              0.718
 Vibration     5          0.942              1.064              0.476

 Optimization completed.
    -- Stationary point found.
 Normal termination of Gaussian 09 at Wed Aug  3 22:51:22 2016.
