 Gaussian 09, Revision E.01,
 Gaussian 09:  EM64L-G09RevE.01 30-Nov-2015

 ------------------------------
 #p b3lyp/6-311++G(3df,2p) freq
 ------------------------------

 ---------
 b3lyp opt
 ---------
 Symbolic Z-matrix:
 Charge =  1 Multiplicity = 3

                         Standard orientation:
 ---------------------------------------------------------------------
 Center     Atomic      Atomic             Coordinates (Angstroms)
 Number     Number       Type             X           Y           Z
 ---------------------------------------------------------------------
      1         16           0       -0.532131   -0.901527    0.000000
      2          6           0        1.176362    1.324821   -0.000000
      3          6           0        0.000000    0.647236   -0.000000
      4          1           0        1.181352    2.411238   -0.000000
      5          1           0        2.139734    0.815223   -0.000000
      6          1           0       -1.865153   -0.634368    0.000000
 ---------------------------------------------------------------------

 SCF Done:  E(UB3LYP) =  -475.841111219     A.U. after   14 cycles

 The electronic state is 3-A".
 Alpha  occ. eigenvalues --  -89.16687 -10.50085 -10.47138  -8.24976  -6.21149
 Alpha  occ. eigenvalues --   -6.21093  -6.20808  -1.10632  -1.00559  -0.81238
 Alpha  occ. eigenvalues --   -0.73369  -0.69464  -0.66235  -0.62529  -0.51735
 Alpha  occ. eigenvalues --   -0.49674
 Alpha virt. eigenvalues --   -0.27615  -0.22602  -0.18544  -0.14317  -0.12624
 Alpha virt. eigenvalues --   -0.11418  -0.09946  -0.08804  -0.06992  -0.06695
 Alpha virt. eigenvalues --   -0.06226  -0.05705  -0.05089  -0.02703  -0.01985

  Beta  occ. eigenvalues --  -89.16347 -10.48574 -10.46341  -8.24664  -6.20863
  Beta  occ. eigenvalues --   -6.20531  -6.20204  -1.07888  -0.97482  -0.78669
  Beta  occ. eigenvalues --   -0.71010  -0.67269  -0.63980  -0.58137
  Beta virt. eigenvalues --   -0.41131  -0.35117  -0.22878  -0.21672  -0.17084
  Beta virt. eigenvalues --   -0.13769  -0.11707  -0.11218  -0.09517  -0.08529
  Beta virt. eigenvalues --   -0.06365  -0.06109  -0.05753  -0.05073  -0.04232

 Mulliken charges and spin densities:
               1          2
     1  S    0.205301   0.510836
     2  C   -0.047168   0.466266
     3  C    0.160720   0.915917
     4  H    0.229621   0.017180
     5  H    0.215297   0.046584
     6  H    0.236229   0.043218
 Sum of Mulliken charges =   1.00000   2.00000

 Dipole moment (field-independent basis, Debye):
    X=              0.3461    Y=              0.9416    Z=             -0.0000  Tot=              1.0032
 Quadrupole moment (field-independent basis, Debye-Ang):
   XX=            -12.9066   YY=            -14.3569   ZZ=            -23.5648
   XY=              6.8299   XZ=             -0.0000   YZ=             -0.0000

  Exact polarizability:  46.391  17.778  51.985   0.000   0.000  25.684
 Approx polarizability:  73.360  31.938  90.035  -0.000  -0.000  38.279

                      1                      2                      3
                     A'                     A"                     A"
 Frequencies --    272.7410               379.7248               640.6639
 Red. masses --      3.0987                 1.6537                 1.0604
 Frc consts  --      0.1358                 0.1405                 0.2564
 IR Inten    --      8.3681                26.8939                 5.9868

                      4                      5                      6
                     A'                     A'                     A"
 Frequencies --    773.0701               925.6767               963.3991
 Red. masses --      5.3144                 1.1179                 1.3545
 Frc consts  --      1.8713                 0.5644                 0.7407
 IR Inten    --     10.9435                 6.2825                22.3039

                      7                      8                      9
                     A'                     A'                     A'
 Frequencies --   1009.7242              1401.2786              1481.8578
 Red. masses --      1.4827                 1.4480                 2.9495
 Frc consts  --      0.8906                 1.6752                 3.8160
 IR Inten    --      5.4291                30.0899                 3.1556

                     10                     11                     12
                     A'                     A'                     A'
 Frequencies --   2555.2433              3072.6902              3179.2260
 Red. masses --      1.0394                 1.0539                 1.1139
 Frc consts  --      3.9987                 5.8628                 6.6336
 IR Inten    --     64.4173                36.8431                32.4780

 - Thermochemistry -
 -------------------
 Temperature   298.150 Kelvin.  Pressure   1.00000 Atm.
 Atom     1 has atomic number 16 and mass  31.97207

 Molecular mass:    58.99555 amu.
 Principal axes and moments of inertia in atomic units:
                           1         2         3
     Eigenvalues --    19.61445 316.24615 335.86059
           X            0.59754   0.80184   0.00000
           Y            0.80184  -0.59754   0.00000
           Z           -0.00000   0.00000   1.00000
 This molecule is an asymmetric top.
 Rotational symmetry number  1.
 Rotational temperatures (Kelvin)      4.41582     0.27388     0.25789
 Rotational constants (GHZ):          92.01081     5.70676     5.37348
 Zero-point vibrational energy      99620.8 (Joules/Mol)
                                   23.80994 (Kcal/Mol)
 Warning -- explicit consideration of   2 degrees of freedom as
           vibrations may cause significant error
 Vibrational temperatures:    392.41   546.34   921.77  1112.27  1331.84
          (Kelvin)           1386.11  1452.77  2016.12  2132.06  3676.42
                             4420.91  4574.19

 Zero-point correction=                           0.037944 (Hartree/Particle)
 Thermal correction to Energy=                    0.041926
 Thermal correction to Enthalpy=                  0.042870
 Thermal correction to Gibbs Free Energy=         0.011428
 Sum of electronic and zero-point Energies=           -475.803168
 Sum of electronic and thermal Energies=              -475.799185
 Sum of electronic and thermal Enthalpies=            -475.798241
 Sum of electronic and thermal Free Energies=         -475.829684

                     E (Thermal)             CV                S
                      KCal/Mol        Cal/Mol-Kelvin    Cal/Mol-Kelvin
 Total                   26.309             12.280             66.177
 Electronic               0.000              0.000              2.183
 Translational            0.889              2.981             38.145
 Rotational               0.889              2.981             22.259
 Vibrational             24.532              6.318              3.589
 Vibration     1          0.676              1.724              1.579
 Vibration     2          0.750              1.513              1.040

 Optimization completed.
    -- Stationary point found.
 Normal termination of Gaussian 09 at Wed Aug  3 22:55:15 2016.
