 Gaussian 09, Revision E.01,
 Gaussian 09:  EM64L-G09RevE.01 30-Nov-2015

 ------------------------------
 #p b3lyp/6-311++G(3df,2p) freq
 ------------------------------

 ---------
 b3lyp opt
 ---------
 Symbolic Z-matrix:
 Charge =  1 Multiplicity = 3

                         Standard orientation:
 ---------------------------------------------------------------------
 Center     Atomic      Atomic             Coordinates (Angstroms)
 Number     Number       Type             X           Y           Z
 ---------------------------------------------------------------------
      1         16           0        0.687351   -0.939864   -0.000000
      2         16           0       -1.683156    0.798904    0.000000
      3          6           0       -0.000000    0.613545    0.000000
      4          6           0        2.296778   -0.812305   -0.000000
      5          1           0        0.650165    1.478321    0.000000
      6          1           0        3.169061   -0.176670    0.000000
      7          1           0       -1.667023    2.146263    0.000000
 ---------------------------------------------------------------------

 SCF Done:  E(UB3LYP) =  -874.056693307     A.U. after   15 cycles

 The electronic state is 3-A".
 Alpha  occ. eigenvalues --  -89.14444 -89.10586 -10.47803 -10.46517  -8.22660
 Alpha  occ. eigenvalues --   -8.19049  -6.18896  -6.18444  -6.18427  -6.15310
 Alpha  occ. eigenvalues --   -6.14905  -6.14890  -1.10453  -1.02426  -0.89468
 Alpha  occ. eigenvalues --   -0.80360  -0.73170  -0.68189  -0.61240  -0.61101
 Alpha  occ. eigenvalues --   -0.57316  -0.53750  -0.49749  -0.42689
 Alpha virt. eigenvalues --   -0.30214  -0.21930  -0.17188  -0.16306  -0.14064
 Alpha virt. eigenvalues --   -0.12804  -0.12403  -0.09728  -0.09698  -0.07862
 Alpha virt. eigenvalues --   -0.07037  -0.06933  -0.05885  -0.05406  -0.04711

  Beta  occ. eigenvalues --  -89.14551 -89.10409 -10.47109 -10.44083  -8.22718
  Beta  occ. eigenvalues --   -8.18887  -6.18982  -6.18696  -6.18507  -6.15192
  Beta  occ. eigenvalues --   -6.14796  -6.14373  -1.08888  -1.00904  -0.85736
  Beta  occ. eigenvalues --   -0.78423  -0.72068  -0.66973  -0.60143  -0.59084
  Beta  occ. eigenvalues --   -0.56619  -0.50596
  Beta virt. eigenvalues --   -0.33181  -0.32526  -0.25831  -0.21397  -0.16221
  Beta virt. eigenvalues --   -0.14850  -0.13853  -0.12430  -0.11932  -0.09488
  Beta virt. eigenvalues --   -0.09452  -0.07409  -0.06819  -0.06796  -0.05566

 Mulliken charges and spin densities:
               1          2
     1  S    0.111119  -0.062906
     2  S   -0.094545   0.272342
     3  C    0.275692   0.328102
     4  C   -0.036780   1.480938
     5  H    0.232159  -0.006744
     6  H    0.297622  -0.011585
     7  H    0.214733  -0.000147
 Sum of Mulliken charges =   1.00000   2.00000

 Dipole moment (field-independent basis, Debye):
    X=              1.6677    Y=              2.0320    Z=              0.0000  Tot=              2.6288
 Quadrupole moment (field-independent basis, Debye-Ang):
   XX=            -17.6357   YY=            -26.4805   ZZ=            -36.9162
   XY=             -5.6107   XZ=             -0.0000   YZ=             -0.0000

  Exact polarizability: 104.242 -28.840  61.730   0.002   0.000  37.657
 Approx polarizability: 186.205 -54.242 107.354  -0.000   0.000  59.945

                      1                      2                      3
                     A"                     A'                     A'
 Frequencies --    127.9184               202.0299               323.1950
 Red. masses --      3.3711                 3.9596                 4.9494
 Frc consts  --      0.0325                 0.0952                 0.3046
 IR Inten    --      1.7134                 2.3748                 8.7223

                      4                      5                      6
                     A"                     A"                     A'
 Frequencies --    341.4074               370.0877               590.0818
 Red. masses --      1.2452                 1.2755                 1.6214
 Frc consts  --      0.0855                 0.1029                 0.3326
 IR Inten    --     56.4037                 2.1721                29.0772

                      7                      8                      9
                     A'                     A"                     A'
 Frequencies --    741.5124               750.7654               925.0895
 Red. masses --      3.6876                 1.2766                 3.5419
 Frc consts  --      1.1946                 0.4240                 1.7859
 IR Inten    --      8.7308                25.8506                63.4923

                     10                     11                     12
                     A'                     A'                     A'
 Frequencies --    948.7908              1031.5636              1250.1771
 Red. masses --      4.1618                 1.4072                 1.3097
 Frc consts  --      2.2073                 0.8823                 1.2061
 IR Inten    --     34.4250                 1.4274                13.2547

                     13                     14                     15
                     A'                     A'                     A'
 Frequencies --   2656.4572              3185.5792              3242.9139
 Red. masses --      1.0391                 1.0901                 1.0959
 Frc consts  --      4.3202                 6.5174                 6.7901
 IR Inten    --     55.3977                28.8354               129.0717

 - Thermochemistry -
 -------------------
 Temperature   298.150 Kelvin.  Pressure   1.00000 Atm.
 Atom     1 has atomic number 16 and mass  31.97207

 Molecular mass:    90.96762 amu.
 Principal axes and moments of inertia in atomic units:
                           1         2         3
     Eigenvalues --    67.78650 825.39445 893.18095
           X            0.87735   0.47985   0.00000
           Y           -0.47985   0.87735   0.00000
           Z            0.00000  -0.00000   1.00000
 This molecule is an asymmetric top.
 Rotational symmetry number  1.
 Rotational temperatures (Kelvin)      1.27774     0.10494     0.09697
 Rotational constants (GHZ):          26.62390     2.18652     2.02058
 Zero-point vibrational energy      99813.8 (Joules/Mol)
                                   23.85608 (Kcal/Mol)
 Warning -- explicit consideration of   6 degrees of freedom as
           vibrations may cause significant error
 Vibrational temperatures:    184.05   290.68   465.01   491.21   532.47
          (Kelvin)            849.00  1066.87  1080.18  1331.00  1365.10
                             1484.19  1798.72  3822.04  4583.33  4665.82

 Zero-point correction=                           0.038017 (Hartree/Particle)
 Thermal correction to Energy=                    0.043689
 Thermal correction to Enthalpy=                  0.044633
 Thermal correction to Gibbs Free Energy=         0.008028
 Sum of electronic and zero-point Energies=           -874.018676
 Sum of electronic and thermal Energies=              -874.013004
 Sum of electronic and thermal Enthalpies=            -874.012060
 Sum of electronic and thermal Free Energies=         -874.048665

                     E (Thermal)             CV                S
                      KCal/Mol        Cal/Mol-Kelvin    Cal/Mol-Kelvin
 Total                   27.415             18.442             77.042
 Electronic               0.000              0.000              2.183
 Translational            0.889              2.981             39.436
 Rotational               0.889              2.981             25.417
 Vibrational             25.638             12.481             10.007
 Vibration     1          0.611              1.925              2.977
 Vibration     2          0.639              1.837              2.115
 Vibration     3          0.708              1.629              1.294
 Vibration     4          0.721              1.593              1.206
 Vibration     5          0.742              1.534              1.079
 Vibration     6          0.947              1.053              0.467

 Normal termination of Gaussian 09 at Wed Aug  3 22:58:11 2016.
