 Gaussian 09, Revision E.01,
 Gaussian 09:  EM64L-G09RevE.01 30-Nov-2015

 ------------------------------
 #p b3lyp/6-311++G(3df,2p) freq
 ------------------------------

 ---------
 b3lyp opt
 ---------
 Symbolic Z-matrix:
 Charge =  2 Multiplicity = 4

                         Standard orientation:
 ---------------------------------------------------------------------
 Center     Atomic      Atomic             Coordinates (Angstroms)
 Number     Number       Type             X           Y           Z
 ---------------------------------------------------------------------
      1         16           0       -1.096726   -0.497927    0.004739
      2         16           0        1.938545   -0.030590   -0.089258
      3          6           0        0.275972    0.549222    0.018669
      4          6           0       -2.347905    0.515131    0.000426
      5          1           0        0.159305    1.637818   -0.011540
      6          1           0       -3.438698    0.470260   -0.004902
      7          1           0        2.241891   -0.037924    1.254172
 ---------------------------------------------------------------------

 SCF Done:  E(UB3LYP) =  -873.490256467     A.U. after   15 cycles

 The electronic state is 4-A.
 Alpha  occ. eigenvalues --  -89.40678 -89.37433 -10.70399 -10.69921  -8.48522
 Alpha  occ. eigenvalues --   -8.45462  -6.45384  -6.44471  -6.44094  -6.41673
 Alpha  occ. eigenvalues --   -6.41325  -6.41244  -1.32754  -1.26887  -1.12273
 Alpha  occ. eigenvalues --   -1.02018  -0.93179  -0.91047  -0.86305  -0.83957
 Alpha  occ. eigenvalues --   -0.80324  -0.77829  -0.70253  -0.68708
 Alpha virt. eigenvalues --   -0.52309  -0.43411  -0.40398  -0.38634  -0.34987
 Alpha virt. eigenvalues --   -0.29777  -0.27979  -0.26478  -0.26013  -0.24963
 Alpha virt. eigenvalues --   -0.24803  -0.22682  -0.21487  -0.20604  -0.19596

  Beta  occ. eigenvalues --  -89.40034 -89.37518 -10.69063 -10.67773  -8.47919
  Beta  occ. eigenvalues --   -8.45520  -6.44118  -6.43720  -6.43363  -6.41688
  Beta  occ. eigenvalues --   -6.41582  -6.41273  -1.30277  -1.23365  -1.07699
  Beta  occ. eigenvalues --   -0.98989  -0.91291  -0.88806  -0.83446  -0.81398
  Beta  occ. eigenvalues --   -0.78281
  Beta virt. eigenvalues --   -0.63586  -0.55974  -0.54162  -0.47538  -0.41210
  Beta virt. eigenvalues --   -0.37947  -0.36790  -0.33138  -0.29170  -0.27261
  Beta virt. eigenvalues --   -0.25608  -0.24695  -0.24167  -0.23360  -0.21799

 Mulliken charges and spin densities:
               1          2
     1  S    0.239808  -0.039741
     2  S    0.298868   0.984851
     3  C    0.303399   0.739821
     4  C    0.210236   1.265465
     5  H    0.281059   0.022304
     6  H    0.388730  -0.008970
     7  H    0.277899   0.036270
 Sum of Mulliken charges =   2.00000   3.00000

 Dipole moment (field-independent basis, Debye):
    X=              0.0364    Y=              1.2217    Z=              1.0850  Tot=              1.6343
 Quadrupole moment (field-independent basis, Debye-Ang):
   XX=             10.6161   YY=            -27.4722   ZZ=            -30.4531
   XY=             -1.7007   XZ=              2.9998   YZ=             -0.1737

  Exact polarizability:  88.996  -4.215  39.743   2.292  -0.156  34.812
 Approx polarizability: 143.187 -12.041  69.320   3.222  -0.196  56.658

                      1                      2                      3
                      A                      A                      A
 Frequencies --    131.3820               199.4358               323.5915
 Red. masses --      3.8917                 5.8500                 6.2534
 Frc consts  --      0.0396                 0.1371                 0.3858
 IR Inten    --      3.8792                 1.2431                 4.8565

                      4                      5                      6
                      A                      A                      A
 Frequencies --    343.3872               556.0598               609.8000
 Red. masses --      1.2631                 2.0340                 1.1782
 Frc consts  --      0.0878                 0.3706                 0.2581
 IR Inten    --     29.6755                21.7709                22.8552

                      7                      8                      9
                      A                      A                      A
 Frequencies --    660.6428               703.5185               795.5686
 Red. masses --      1.1447                 2.6637                 3.5965
 Frc consts  --      0.2944                 0.7768                 1.3412
 IR Inten    --     34.6266                20.7814                15.0754

                     10                     11                     12
                      A                      A                      A
 Frequencies --    888.4180               987.6349              1151.4968
 Red. masses --      1.2400                 6.5021                 1.1631
 Frc consts  --      0.5766                 3.7368                 0.9087
 IR Inten    --     14.3761                35.9129                 0.0368

                     13                     14                     15
                      A                      A                      A
 Frequencies --   2441.0895              3045.4949              3135.5043
 Red. masses --      1.0395                 1.0844                 1.0972
 Frc consts  --      3.6495                 5.9261                 6.3553
 IR Inten    --    138.7623               101.6608               320.3545

 - Thermochemistry -
 -------------------
 Temperature   298.150 Kelvin.  Pressure   1.00000 Atm.
 Atom     1 has atomic number 16 and mass  31.97207

 Molecular mass:    90.96762 amu.
 Principal axes and moments of inertia in atomic units:
                           1         2         3
     Eigenvalues --    69.38586 873.14782 929.70579
           X            0.99991  -0.00635   0.01159
           Y            0.00639   0.99997  -0.00362
           Z           -0.01156   0.00370   0.99993
 This molecule is an asymmetric top.
 Rotational symmetry number  1.
 Rotational temperatures (Kelvin)      1.24829     0.09920     0.09316
 Rotational constants (GHZ):          26.01022     2.06694     1.94120
 Zero-point vibrational energy      95539.9 (Joules/Mol)
                                   22.83458 (Kcal/Mol)
 Warning -- explicit consideration of   6 degrees of freedom as
           vibrations may cause significant error
 Vibrational temperatures:    189.03   286.94   465.58   494.06   800.05
          (Kelvin)            877.37   950.52  1012.20  1144.64  1278.23
                             1420.98  1656.74  3512.18  4381.78  4511.29

 Zero-point correction=                           0.036389 (Hartree/Particle)
 Thermal correction to Energy=                    0.041996
 Thermal correction to Enthalpy=                  0.042940
 Thermal correction to Gibbs Free Energy=         0.006162
 Sum of electronic and zero-point Energies=           -873.453867
 Sum of electronic and thermal Energies=              -873.448260
 Sum of electronic and thermal Enthalpies=            -873.447316
 Sum of electronic and thermal Free Energies=         -873.484095

                     E (Thermal)             CV                S
                      KCal/Mol        Cal/Mol-Kelvin    Cal/Mol-Kelvin
 Total                   26.353             18.614             77.408
 Electronic               0.000              0.000              2.755
 Translational            0.889              2.981             39.436
 Rotational               0.889              2.981             25.535
 Vibrational             24.576             12.652              9.682
 Vibration     1          0.612              1.922              2.926
 Vibration     2          0.638              1.841              2.138
 Vibration     3          0.708              1.628              1.292
 Vibration     4          0.722              1.589              1.196
 Vibration     5          0.912              1.126              0.532
 Vibration     6          0.969              1.011              0.433

 Normal termination of Gaussian 09 at Wed Aug  3 21:06:03 2016.
