 Gaussian 09, Revision E.01,
 Gaussian 09:  EM64L-G09RevE.01 30-Nov-2015

 ------------------------------
 #p b3lyp/6-311++G(3df,2p) freq
 ------------------------------

 ---------
 b3lyp opt
 ---------
 Symbolic Z-matrix:
 Charge =  0 Multiplicity = 4

                         Standard orientation:
 ---------------------------------------------------------------------
 Center     Atomic      Atomic             Coordinates (Angstroms)
 Number     Number       Type             X           Y           Z
 ---------------------------------------------------------------------
      1         16           0       -1.032701   -0.010464    0.129784
      2          6           0        1.764807    0.087885    0.094863
      3          6           0        0.505176   -0.367212   -0.497524
      4          1           0        2.117461    1.094267   -0.113576
      5          1           0        2.129060   -0.374773    1.007110
      6          1           0       -1.343203    1.123887   -0.554108
 ---------------------------------------------------------------------

 SCF Done:  E(UB3LYP) =  -476.069151086     A.U. after   14 cycles

 The electronic state is 4-A.
 Alpha  occ. eigenvalues --  -88.89232 -10.23022 -10.20274  -7.97696  -5.93929
 Alpha  occ. eigenvalues --   -5.93643  -5.93526  -0.83335  -0.72994  -0.57265
 Alpha  occ. eigenvalues --   -0.46966  -0.44736  -0.39932  -0.37149  -0.26140
 Alpha  occ. eigenvalues --   -0.22976  -0.19710
 Alpha virt. eigenvalues --   -0.01926   0.00848   0.01462   0.02758   0.04427
 Alpha virt. eigenvalues --    0.05028   0.06057   0.07463   0.08762   0.10203
 Alpha virt. eigenvalues --    0.11144   0.11661   0.12587   0.12904   0.13779

  Beta  occ. eigenvalues --  -88.88963 -10.20554 -10.18820  -7.97425  -5.93730
  Beta  occ. eigenvalues --   -5.93331  -5.92912  -0.79861  -0.68870  -0.52856
  Beta  occ. eigenvalues --   -0.44318  -0.42547  -0.37513  -0.30776
  Beta virt. eigenvalues --   -0.13504  -0.08300  -0.05076  -0.00715   0.01292
  Beta virt. eigenvalues --    0.02324   0.02863   0.04837   0.05632   0.06699
  Beta virt. eigenvalues --    0.07983   0.09397   0.11076   0.11558   0.13127

 Mulliken charges and spin densities:
               1          2
     1  S   -0.009311   0.387399
     2  C   -0.210222   0.945602
     3  C   -0.184638   1.519411
     4  H    0.145419   0.027283
     5  H    0.144956   0.028922
     6  H    0.113796   0.091383
 Sum of Mulliken charges =  -0.00000   3.00000

 Dipole moment (field-independent basis, Debye):
    X=             -0.2879    Y=              1.2371    Z=              0.4001  Tot=              1.3316
 Quadrupole moment (field-independent basis, Debye-Ang):
   XX=            -25.4372   YY=            -25.6687   ZZ=            -27.4782
   XY=             -0.5335   XZ=              1.6475   YZ=             -2.0121

  Exact polarizability:  72.952  -3.724  41.646  -1.834   1.669  41.320
 Approx polarizability: 109.041  -9.833  62.701  -7.850   2.121  61.129

                      1                      2                      3
                      A                      A                      A
 Frequencies --    314.7415               339.7086               442.6137
 Red. masses --      3.0442                 1.3365                 1.0483
 Frc consts  --      0.1777                 0.0909                 0.1210
 IR Inten    --      9.5933                 8.1828                 2.8172

                      4                      5                      6
                      A                      A                      A
 Frequencies --    606.6511               732.5570               873.4658
 Red. masses --      1.4526                 7.4403                 1.1381
 Frc consts  --      0.3150                 2.3525                 0.5116
 IR Inten    --     22.6999                 9.4688                 4.6793

                      7                      8                      9
                      A                      A                      A
 Frequencies --    968.0776              1148.5393              1415.3023
 Red. masses --      1.3553                 6.9972                 1.1239
 Frc consts  --      0.7484                 5.4383                 1.3265
 IR Inten    --      1.8740                 3.0807                 6.7201

                     10                     11                     12
                      A                      A                      A
 Frequencies --   2488.9709              3071.6109              3164.1709
 Red. masses --      1.0393                 1.0470                 1.1153
 Frc consts  --      3.7936                 5.8199                 6.5792
 IR Inten    --      9.8162                13.3103                 5.7202

 - Thermochemistry -
 -------------------
 Temperature   298.150 Kelvin.  Pressure   1.00000 Atm.
 Atom     1 has atomic number 16 and mass  31.97207

 Molecular mass:    58.99555 amu.
 Principal axes and moments of inertia in atomic units:
                           1         2         3
     Eigenvalues --    32.68123 317.19550 325.34258
           X            0.99946   0.02707  -0.01865
           Y           -0.00166   0.60810   0.79386
           Z           -0.03283   0.79340  -0.60781
 This molecule is an asymmetric top.
 Rotational symmetry number  1.
 Rotational temperatures (Kelvin)      2.65026     0.27306     0.26622
 Rotational constants (GHZ):          55.22255     5.68968     5.54720
 Zero-point vibrational energy      93107.8 (Joules/Mol)
                                   22.25330 (Kcal/Mol)
 Warning -- explicit consideration of   4 degrees of freedom as
           vibrations may cause significant error
 Vibrational temperatures:    452.84   488.76   636.82   872.83  1053.98
          (Kelvin)           1256.72  1392.85  1652.49  2036.30  3581.07
                             4419.36  4552.53

 Zero-point correction=                           0.035463 (Hartree/Particle)
 Thermal correction to Energy=                    0.039726
 Thermal correction to Enthalpy=                  0.040670
 Thermal correction to Gibbs Free Energy=         0.008340
 Sum of electronic and zero-point Energies=           -476.033688
 Sum of electronic and thermal Energies=              -476.029425
 Sum of electronic and thermal Enthalpies=            -476.028481
 Sum of electronic and thermal Free Energies=         -476.060811

                     E (Thermal)             CV                S
                      KCal/Mol        Cal/Mol-Kelvin    Cal/Mol-Kelvin
 Total                   24.928             13.661             68.045
 Electronic               0.000              0.000              2.755
 Translational            0.889              2.981             38.145
 Rotational               0.889              2.981             22.738
 Vibrational             23.151              7.699              4.407
 Vibration     1          0.702              1.646              1.337
 Vibration     2          0.720              1.596              1.214
 Vibration     3          0.802              1.377              0.818
 Vibration     4          0.965              1.018              0.438

 Normal termination of Gaussian 09 at Wed Aug  3 21:02:08 2016.
