 Gaussian 09, Revision E.01,
 Gaussian 09:  EM64L-G09RevE.01 30-Nov-2015

 ------------------------------
 #p b3lyp/6-311++G(3df,2p) freq
 ------------------------------

 ---------
 b3lyp opt
 ---------
 Symbolic Z-matrix:
 Charge =  1 Multiplicity = 3

                         Standard orientation:
 ---------------------------------------------------------------------
 Center     Atomic      Atomic             Coordinates (Angstroms)
 Number     Number       Type             X           Y           Z
 ---------------------------------------------------------------------
      1         16           0       -0.634645   -0.878812   -0.000000
      2          6           0        1.092904    1.416328    0.000000
      3          6           0        0.000000    0.615815    0.000000
      4          1           0        2.103623    1.007646    0.000000
      5          1           0        0.985632    2.497817    0.000000
      6          1           0        0.507642   -1.637339   -0.000000
 ---------------------------------------------------------------------

 SCF Done:  E(UB3LYP) =  -475.837571029     A.U. after   14 cycles

 The electronic state is 3-A".
 Alpha  occ. eigenvalues --  -89.16843 -10.50192 -10.47405  -8.25102  -6.21280
 Alpha  occ. eigenvalues --   -6.21267  -6.20805  -1.10765  -1.00787  -0.81763
 Alpha  occ. eigenvalues --   -0.73736  -0.71453  -0.63539  -0.62756  -0.51901
 Alpha  occ. eigenvalues --   -0.49971
 Alpha virt. eigenvalues --   -0.27664  -0.22307  -0.18268  -0.15798  -0.12221
 Alpha virt. eigenvalues --   -0.11951  -0.10037  -0.08507  -0.07310  -0.06339
 Alpha virt. eigenvalues --   -0.06283  -0.05821  -0.04132  -0.02735  -0.01769

  Beta  occ. eigenvalues --  -89.16544 -10.48685 -10.46607  -8.24805  -6.21107
  Beta  occ. eigenvalues --   -6.20660  -6.20338  -1.07889  -0.97678  -0.78774
  Beta  occ. eigenvalues --   -0.71982  -0.68983  -0.61998  -0.58334
  Beta virt. eigenvalues --   -0.41288  -0.35065  -0.23030  -0.21043  -0.17138
  Beta virt. eigenvalues --   -0.14845  -0.11843  -0.11451  -0.09491  -0.08208
  Beta virt. eigenvalues --   -0.07017  -0.05788  -0.05755  -0.04722  -0.03300

 Mulliken charges and spin densities:
               1          2
     1  S    0.234151   0.421641
     2  C   -0.053510   0.453070
     3  C    0.168642   0.955161
     4  H    0.208362   0.047309
     5  H    0.239946   0.018518
     6  H    0.202409   0.104300
 Sum of Mulliken charges =   1.00000   2.00000

 Dipole moment (field-independent basis, Debye):
    X=              2.0561    Y=              0.3975    Z=              0.0000  Tot=              2.0942
 Quadrupole moment (field-independent basis, Debye-Ang):
   XX=            -16.9495   YY=            -11.0964   ZZ=            -23.5117
   XY=              4.5399   XZ=              0.0000   YZ=              0.0000

  Exact polarizability:  41.664  14.923  56.573   0.000   0.000  25.419
 Approx polarizability:  67.627  27.493  96.282   0.000   0.000  37.836

                      1                      2                      3
                     A'                     A"                     A"
 Frequencies --    227.6395               359.9280               653.9821
 Red. masses --      2.7376                 2.3914                 1.0167
 Frc consts  --      0.0836                 0.1825                 0.2562
 IR Inten    --      2.5089                 0.0083                 5.8061

                      4                      5                      6
                     A'                     A'                     A"
 Frequencies --    749.9252               879.9412               955.1234
 Red. masses --      6.7993                 1.1103                 1.3505
 Frc consts  --      2.2530                 0.5065                 0.7259
 IR Inten    --      9.5093                 8.0308                22.1815

                      7                      8                      9
                     A'                     A'                     A'
 Frequencies --   1022.1017              1412.4342              1492.9113
 Red. masses --      1.4516                 1.2465                 4.7003
 Frc consts  --      0.8935                 1.4652                 6.1723
 IR Inten    --      6.5198                29.3889                 6.0171

                     10                     11                     12
                     A'                     A'                     A'
 Frequencies --   2448.1430              3067.7897              3174.5628
 Red. masses --      1.0391                 1.0533                 1.1137
 Frc consts  --      3.6692                 5.8405                 6.6130
 IR Inten    --     19.2418                34.9198                32.9500

 - Thermochemistry -
 -------------------
 Temperature   298.150 Kelvin.  Pressure   1.00000 Atm.
 Atom     1 has atomic number 16 and mass  31.97207

 Molecular mass:    58.99555 amu.
 Principal axes and moments of inertia in atomic units:
                           1         2         3
     Eigenvalues --    18.17699 324.52742 342.70442
           X            0.56727   0.82353   0.00000
           Y            0.82353  -0.56727  -0.00000
           Z            0.00000  -0.00000   1.00000
 This molecule is an asymmetric top.
 Rotational symmetry number  1.
 Rotational temperatures (Kelvin)      4.76502     0.26689     0.25274
 Rotational constants (GHZ):          99.28711     5.56114     5.26617
 Zero-point vibrational energy      98359.8 (Joules/Mol)
                                   23.50857 (Kcal/Mol)
 Warning -- explicit consideration of   2 degrees of freedom as
           vibrations may cause significant error
 Vibrational temperatures:    327.52   517.86   940.93  1078.97  1266.04
          (Kelvin)           1374.21  1470.57  2032.18  2147.96  3522.33
                             4413.86  4567.48

 Zero-point correction=                           0.037463 (Hartree/Particle)
 Thermal correction to Energy=                    0.041540
 Thermal correction to Enthalpy=                  0.042484
 Thermal correction to Gibbs Free Energy=         0.010853
 Sum of electronic and zero-point Energies=           -475.800108
 Sum of electronic and thermal Energies=              -475.796031
 Sum of electronic and thermal Enthalpies=            -475.795087
 Sum of electronic and thermal Free Energies=         -475.826718

                     E (Thermal)             CV                S
                      KCal/Mol        Cal/Mol-Kelvin    Cal/Mol-Kelvin
 Total                   26.067             12.463             66.573
 Electronic               0.000              0.000              2.183
 Translational            0.889              2.981             38.145
 Rotational               0.889              2.981             22.229
 Vibrational             24.289              6.501              4.016
 Vibration     1          0.651              1.799              1.897
 Vibration     2          0.734              1.555              1.122

 Optimization completed.
    -- Stationary point found.
 Normal termination of Gaussian 09 at Wed Aug  3 22:59:41 2016.
