 Gaussian 09, Revision E.01,
 Gaussian 09:  EM64L-G09RevE.01 30-Nov-2015

 ------------------------------
 #p b3lyp/6-311++G(3df,2p) freq
 ------------------------------

 ---------
 b3lyp opt
 ---------
 Symbolic Z-matrix:
 Charge =  1 Multiplicity = 1

                         Standard orientation:
 ---------------------------------------------------------------------
 Center     Atomic      Atomic             Coordinates (Angstroms)
 Number     Number       Type             X           Y           Z
 ---------------------------------------------------------------------
      1         16           0        0.419556    0.015117   -0.065222
      2          6           0       -1.205364   -0.161989    0.042603
      3          1           0        1.216490    1.039239    0.388126
      4          1           0        1.037583   -1.108653    0.348937
      5          1           0       -1.734782    0.799477    0.050879
 ---------------------------------------------------------------------

 SCF Done:  E(RB3LYP) =  -437.683164334     A.U. after   12 cycles

 The electronic state is 1-A.
 Alpha  occ. eigenvalues --  -89.21694 -10.51458  -8.30034  -6.26175  -6.26043
 Alpha  occ. eigenvalues --   -6.25853  -1.12942  -0.91552  -0.78060  -0.71648
 Alpha  occ. eigenvalues --   -0.63158  -0.52477
 Alpha virt. eigenvalues --   -0.37943  -0.25906  -0.24132  -0.21162  -0.15380
 Alpha virt. eigenvalues --   -0.13067  -0.11489  -0.10949  -0.08016  -0.07861
 Alpha virt. eigenvalues --   -0.06152  -0.05379  -0.04793  -0.02137  -0.01016

 Mulliken charges:
               1
     1  S    0.343841
     2  C   -0.083250
     3  H    0.226710
     4  H    0.258039
     5  H    0.254660
 Sum of Mulliken charges =   1.00000

 Dipole moment (field-independent basis, Debye):
    X=              1.7949    Y=              1.2617    Z=              0.8064  Tot=              2.3375
 Quadrupole moment (field-independent basis, Debye-Ang):
   XX=            -11.5259   YY=            -14.9429   ZZ=            -17.4759
   XY=             -2.6242   XZ=              0.6909   YZ=             -0.1159

  Exact polarizability:  41.489   2.884  26.703   0.439   0.023  21.171
 Approx polarizability:  78.852  10.125  41.454  -1.800  -0.803  33.642

                      1                      2                      3
                      A                      A                      A
 Frequencies --    253.1612               696.8023               769.3285
 Red. masses --      1.2540                 1.1100                 2.8484
 Frc consts  --      0.0474                 0.3175                 0.9933
 IR Inten    --     70.7961                85.6177                 8.5565

                      4                      5                      6
                      A                      A                      A
 Frequencies --    899.0543              1059.9313              1233.5676
 Red. masses --      1.1190                 1.4566                 1.0463
 Frc consts  --      0.5329                 0.9642                 0.9381
 IR Inten    --     15.7972                25.9358                15.2323

                      7                      8                      9
                      A                      A                      A
 Frequencies --   2414.0673              2639.7137              3085.3511
 Red. masses --      1.0370                 1.0414                 1.0871
 Frc consts  --      3.5605                 4.2754                 6.0970
 IR Inten    --     18.7344               110.6760                34.6586

 - Thermochemistry -
 -------------------
 Temperature   298.150 Kelvin.  Pressure   1.00000 Atm.
 Atom     1 has atomic number 16 and mass  31.97207

 Molecular mass:    46.99555 amu.
 Principal axes and moments of inertia in atomic units:
                           1         2         3
     Eigenvalues --    12.93654 104.09584 114.16313
           X            0.99843  -0.04958   0.02590
           Y            0.04927   0.99871   0.01257
           Z           -0.02649  -0.01128   0.99959
 This molecule is an asymmetric top.
 Rotational symmetry number  1.
 Rotational temperatures (Kelvin)      6.69528     0.83206     0.75868
 Rotational constants (GHZ):         139.50725    17.33730    15.80844
 Zero-point vibrational energy      78062.2 (Joules/Mol)
                                   18.65731 (Kcal/Mol)
 Warning -- explicit consideration of   1 degrees of freedom as
           vibrations may cause significant error
 Vibrational temperatures:    364.24  1002.54  1106.89  1293.54  1525.00
          (Kelvin)           1774.83  3473.30  3797.95  4439.13

 Zero-point correction=                           0.029732 (Hartree/Particle)
 Thermal correction to Energy=                    0.033347
 Thermal correction to Enthalpy=                  0.034291
 Thermal correction to Gibbs Free Energy=         0.005955
 Sum of electronic and zero-point Energies=           -437.653432
 Sum of electronic and thermal Energies=              -437.649818
 Sum of electronic and thermal Enthalpies=            -437.648873
 Sum of electronic and thermal Free Energies=         -437.677210

                     E (Thermal)             CV                S
                      KCal/Mol        Cal/Mol-Kelvin    Cal/Mol-Kelvin
 Total                   20.925             10.262             59.639
 Electronic               0.000              0.000              0.000
 Translational            0.889              2.981             37.467
 Rotational               0.889              2.981             19.670
 Vibrational             19.148              4.300              2.502
 Vibration     1          0.664              1.757              1.708

 Optimization completed.
    -- Stationary point found.
 Normal termination of Gaussian 09 at Wed Aug  3 20:08:10 2016.
