 Gaussian 09, Revision E.01,
 Gaussian 09:  EM64L-G09RevE.01 30-Nov-2015

 ------------------------------
 #p b3lyp/6-311++G(3df,2p) freq
 ------------------------------

 ---------
 b3lyp opt
 ---------
 Symbolic Z-matrix:
 Charge =  2 Multiplicity = 2

                         Standard orientation:
 ---------------------------------------------------------------------
 Center     Atomic      Atomic             Coordinates (Angstroms)
 Number     Number       Type             X           Y           Z
 ---------------------------------------------------------------------
      1         16           0        0.462014    0.014580   -0.092815
      2          6           0       -1.178149   -0.118491    0.054491
      3          1           0        0.860550    1.165104    0.591687
      4          1           0        0.967866   -1.098598    0.570866
      5          1           0       -2.151739    0.411161   -0.004461
 ---------------------------------------------------------------------

 SCF Done:  E(UB3LYP) =  -437.079139065     A.U. after   16 cycles

 The electronic state is 2-A.
 Alpha  occ. eigenvalues --  -89.52151 -10.88577  -8.60235  -6.56465  -6.56193
 Alpha  occ. eigenvalues --   -6.56000  -1.42835  -1.20195  -1.06108  -1.03817
 Alpha  occ. eigenvalues --   -0.93079  -0.85593
 Alpha virt. eigenvalues --   -0.69941  -0.52168  -0.50303  -0.48767  -0.36758
 Alpha virt. eigenvalues --   -0.35188  -0.31580  -0.30777  -0.29222  -0.27507
 Alpha virt. eigenvalues --   -0.25699  -0.23560  -0.21151  -0.19903  -0.17789

  Beta  occ. eigenvalues --  -89.52210 -10.86820  -8.60277  -6.56498  -6.56247
  Beta  occ. eigenvalues --   -6.56114  -1.41434  -1.17209  -1.04778  -1.02659
  Beta  occ. eigenvalues --   -0.92856
  Beta virt. eigenvalues --   -0.67999  -0.67642  -0.51568  -0.49326  -0.47308
  Beta virt. eigenvalues --   -0.36665  -0.34391  -0.31194  -0.30573  -0.28468
  Beta virt. eigenvalues --   -0.26710  -0.25204  -0.22461  -0.21071  -0.19642

 Mulliken charges and spin densities:
               1          2
     1  S    0.585798  -0.020660
     2  C    0.340703   0.946236
     3  H    0.351153   0.051936
     4  H    0.355728   0.026197
     5  H    0.366618  -0.003709
 Sum of Mulliken charges =   2.00000   1.00000

 Dipole moment (field-independent basis, Debye):
    X=             -0.9391    Y=              0.4959    Z=              1.3598  Tot=              1.7253
 Quadrupole moment (field-independent basis, Debye-Ang):
   XX=             -0.5511   YY=            -10.4637   ZZ=            -14.0642
   XY=             -1.2010   XZ=              1.4082   YZ=              0.0657

  Exact polarizability:  32.092   0.158  20.678   0.227  -0.064  17.224
 Approx polarizability:  58.659   2.119  31.256  -2.840  -0.288  26.859

                      1                      2                      3
                      A                      A                      A
 Frequencies --    416.6600               539.6995               753.1559
 Red. masses --      1.2813                 1.1155                 1.1854
 Frc consts  --      0.1311                 0.1914                 0.3962
 IR Inten    --    139.7321                89.7262                17.7134

                      4                      5                      6
                      A                      A                      A
 Frequencies --    807.4110               935.5190              1102.1044
 Red. masses --      1.3157                 2.7238                 1.0876
 Frc consts  --      0.5054                 1.4046                 0.7783
 IR Inten    --      9.0527                32.6736                24.7224

                      7                      8                      9
                      A                      A                      A
 Frequencies --   2270.4495              2318.8478              2972.0436
 Red. masses --      1.0333                 1.0463                 1.1012
 Frc consts  --      3.1383                 3.3149                 5.7307
 IR Inten    --    342.0167               429.7080               347.0981

 - Thermochemistry -
 -------------------
 Temperature   298.150 Kelvin.  Pressure   1.00000 Atm.
 Atom     1 has atomic number 16 and mass  31.97207

 Molecular mass:    46.99555 amu.
 Principal axes and moments of inertia in atomic units:
                           1         2         3
     Eigenvalues --    13.63542 110.10420 117.13144
           X            0.99872  -0.03558   0.03582
           Y            0.03492   0.99921   0.01884
           Z           -0.03646  -0.01757   0.99918
 This molecule is an asymmetric top.
 Rotational symmetry number  1.
 Rotational temperatures (Kelvin)      6.35212     0.78665     0.73946
 Rotational constants (GHZ):         132.35682    16.39121    15.40783
 Zero-point vibrational energy      72469.1 (Joules/Mol)
                                   17.32054 (Kcal/Mol)
 Warning -- explicit consideration of   2 degrees of freedom as
           vibrations may cause significant error
 Vibrational temperatures:    599.48   776.51  1083.62  1161.68  1346.00
          (Kelvin)           1585.68  3266.67  3336.30  4276.10

 Zero-point correction=                           0.027602 (Hartree/Particle)
 Thermal correction to Energy=                    0.031166
 Thermal correction to Enthalpy=                  0.032110
 Thermal correction to Gibbs Free Energy=         0.003245
 Sum of electronic and zero-point Energies=           -437.051537
 Sum of electronic and thermal Energies=              -437.047973
 Sum of electronic and thermal Enthalpies=            -437.047029
 Sum of electronic and thermal Free Energies=         -437.075894

                     E (Thermal)             CV                S
                      KCal/Mol        Cal/Mol-Kelvin    Cal/Mol-Kelvin
 Total                   19.557             10.667             60.751
 Electronic               0.000              0.000              1.377
 Translational            0.889              2.981             37.467
 Rotational               0.889              2.981             19.803
 Vibrational             17.780              4.705              2.103
 Vibration     1          0.780              1.434              0.903
 Vibration     2          0.895              1.162              0.566

 Optimization completed.
    -- Stationary point found.
 Normal termination of Gaussian 09 at Wed Aug  3 20:11:04 2016.
