 Gaussian 09, Revision E.01,
 Gaussian 09:  EM64L-G09RevE.01 30-Nov-2015

 ------------------------------
 #p b3lyp/6-311++G(3df,2p) freq
 ------------------------------

 ---------
 b3lyp opt
 ---------
 Symbolic Z-matrix:
 Charge =  1 Multiplicity = 1

                         Standard orientation:
 ---------------------------------------------------------------------
 Center     Atomic      Atomic             Coordinates (Angstroms)
 Number     Number       Type             X           Y           Z
 ---------------------------------------------------------------------
      1         16           0        0.607078    0.302283    0.028229
      2         16           0       -1.452328   -0.140228   -0.090508
      3          6           0        2.034888   -0.400395   -0.027458
      4          1           0        0.778120    1.638087   -0.035249
      5          1           0       -1.540483   -0.336512    1.243887
      6          1           0        2.077036   -1.492092   -0.047424
 ---------------------------------------------------------------------

 SCF Done:  E(RB3LYP) =  -835.932280033     A.U. after   12 cycles

 The electronic state is 1-A.
 Alpha  occ. eigenvalues --  -89.20093 -89.11466 -10.48730  -8.28134  -8.19869
 Alpha  occ. eigenvalues --   -6.24308  -6.24108  -6.24027  -6.16361  -6.15840
 Alpha  occ. eigenvalues --   -6.15219  -1.11798  -0.98153  -0.86455  -0.71872
 Alpha  occ. eigenvalues --   -0.70306  -0.64880  -0.58222  -0.51511  -0.49516
 Alpha virt. eigenvalues --   -0.34378  -0.31731  -0.21488  -0.20812  -0.17003
 Alpha virt. eigenvalues --   -0.12946  -0.11475  -0.10765  -0.09156  -0.08665
 Alpha virt. eigenvalues --   -0.08229  -0.07480  -0.06562  -0.05193  -0.04036

 Mulliken charges:
               1
     1  S    0.231594
     2  S    0.128309
     3  C   -0.059727
     4  H    0.239027
     5  H    0.200343
     6  H    0.260454
 Sum of Mulliken charges =   1.00000

 Dipole moment (field-independent basis, Debye):
    X=              0.6522    Y=              0.0804    Z=              0.7898  Tot=              1.0274
 Quadrupole moment (field-independent basis, Debye-Ang):
   XX=            -21.6154   YY=            -24.9932   ZZ=            -28.0077
   XY=             -1.3338   XZ=             -1.8434   YZ=             -0.6586

  Exact polarizability:  87.503  -2.281  41.647  -1.820  -0.103  35.154
 Approx polarizability: 199.709  -8.546  66.928  -2.907  -0.373  60.255

                      1                      2                      3
                      A                      A                      A
 Frequencies --     97.0865               201.3233               252.9227
 Red. masses --      1.3605                 1.3717                 3.8295
 Frc consts  --      0.0076                 0.0328                 0.1443
 IR Inten    --     17.4987                14.1302                18.4498

                      4                      5                      6
                      A                      A                      A
 Frequencies --    417.2676               747.8597               809.8053
 Red. masses --     13.0921                 1.5871                 1.0983
 Frc consts  --      1.3430                 0.5230                 0.4244
 IR Inten    --     19.9886               121.6860                38.5110

                      7                      8                      9
                      A                      A                      A
 Frequencies --    927.7204               970.1943              1105.3958
 Red. masses --      1.1583                 1.5535                 1.5633
 Frc consts  --      0.5874                 0.8616                 1.1254
 IR Inten    --     24.9108                12.9296                44.7634

                     10                     11                     12
                      A                      A                      A
 Frequencies --   2622.6620              2628.2490              3131.2445
 Red. masses --      1.0401                 1.0390                 1.0902
 Frc consts  --      4.2152                 4.2286                 6.2979
 IR Inten    --     87.5253                48.1132                45.7546

 - Thermochemistry -
 -------------------
 Temperature   298.150 Kelvin.  Pressure   1.00000 Atm.
 Atom     1 has atomic number 16 and mass  31.97207

 Molecular mass:    78.96762 amu.
 Principal axes and moments of inertia in atomic units:
                           1         2         3
     Eigenvalues --    44.04945 493.08360 524.30798
           X            0.99984  -0.01094  -0.01446
           Y            0.01029   0.99897  -0.04410
           Z            0.01493   0.04394   0.99892
 This molecule is an asymmetric top.
 Rotational symmetry number  1.
 Rotational temperatures (Kelvin)      1.96629     0.17566     0.16520
 Rotational constants (GHZ):          40.97080     3.66011     3.44214
 Zero-point vibrational energy      83210.6 (Joules/Mol)
                                   19.88782 (Kcal/Mol)
 Warning -- explicit consideration of   4 degrees of freedom as
           vibrations may cause significant error
 Vibrational temperatures:    139.69   289.66   363.90   600.35  1076.00
          (Kelvin)           1165.13  1334.78  1395.89  1590.42  3773.42
                             3781.46  4505.16

 Zero-point correction=                           0.031693 (Hartree/Particle)
 Thermal correction to Energy=                    0.036885
 Thermal correction to Enthalpy=                  0.037829
 Thermal correction to Gibbs Free Energy=         0.003643
 Sum of electronic and zero-point Energies=           -835.900587
 Sum of electronic and thermal Energies=              -835.895395
 Sum of electronic and thermal Enthalpies=            -835.894451
 Sum of electronic and thermal Free Energies=         -835.928637

                     E (Thermal)             CV                S
                      KCal/Mol        Cal/Mol-Kelvin    Cal/Mol-Kelvin
 Total                   23.146             15.468             71.951
 Electronic               0.000              0.000              0.000
 Translational            0.889              2.981             39.014
 Rotational               0.889              2.981             23.947
 Vibrational             21.368              9.507              8.990
 Vibration     1          0.603              1.951              3.512
 Vibration     2          0.638              1.838              2.121
 Vibration     3          0.664              1.758              1.710
 Vibration     4          0.780              1.433              0.901

 Normal termination of Gaussian 09 at Wed Aug  3 21:12:38 2016.
