 Gaussian 09, Revision E.01,
 Gaussian 09:  EM64L-G09RevE.01 30-Nov-2015

 ------------------------------
 #p b3lyp/6-311++G(3df,2p) freq
 ------------------------------

 ---------
 b3lyp opt
 ---------
 Symbolic Z-matrix:
 Charge =  0 Multiplicity = 2

                         Standard orientation:
 ---------------------------------------------------------------------
 Center     Atomic      Atomic             Coordinates (Angstroms)
 Number     Number       Type             X           Y           Z
 ---------------------------------------------------------------------
      1         16           0       -0.441319   -0.029254   -0.107248
      2          6           0        1.244355    0.170432    0.084641
      3          1           0       -1.154032   -0.821380    0.793054
      4          1           0       -0.941416    1.093545    0.446701
      5          1           0        1.690423   -0.826690   -0.031641
 ---------------------------------------------------------------------

 SCF Done:  E(UB3LYP) =  -437.979685977     A.U. after   15 cycles

 The electronic state is 2-A.
 Alpha  occ. eigenvalues --  -88.93663 -10.17825  -8.01789  -5.98001  -5.97849
 Alpha  occ. eigenvalues --   -5.97476  -0.84226  -0.63409  -0.49473  -0.43033
 Alpha  occ. eigenvalues --   -0.38273  -0.24552  -0.20670
 Alpha virt. eigenvalues --   -0.03382  -0.02538  -0.00134   0.02955   0.04112
 Alpha virt. eigenvalues --    0.05436   0.07086   0.09051   0.09529   0.09871
 Alpha virt. eigenvalues --    0.10081   0.11051   0.14153   0.16179   0.17567

  Beta  occ. eigenvalues --  -88.93648 -10.16596  -8.01757  -5.97998  -5.97851
  Beta  occ. eigenvalues --   -5.97397  -0.83394  -0.60847  -0.49007  -0.41967
  Beta  occ. eigenvalues --   -0.36729  -0.22713
  Beta virt. eigenvalues --   -0.07834  -0.03024  -0.01968   0.00163   0.03091
  Beta virt. eigenvalues --    0.04243   0.05573   0.07341   0.09124   0.09691
  Beta virt. eigenvalues --    0.10304   0.11042   0.11748   0.14495   0.16475

 Mulliken charges and spin densities:
               1          2
     1  S    0.135170   0.056110
     2  C   -0.520550   0.876330
     3  H    0.074569   0.076546
     4  H    0.156928   0.010295
     5  H    0.153883  -0.019282
 Sum of Mulliken charges =  -0.00000   1.00000

 Dipole moment (field-independent basis, Debye):
    X=             -3.0454    Y=             -1.0771    Z=              0.5649  Tot=              3.2793
 Quadrupole moment (field-independent basis, Debye-Ang):
   XX=            -23.2118   YY=            -20.1968   ZZ=            -21.7992
   XY=             -3.2113   XZ=             -1.3086   YZ=              0.0812

  Exact polarizability:  57.102   5.565  35.706  -3.078  -1.195  32.198
 Approx polarizability:  95.237  12.650  54.836  -6.641  -2.143  45.808

                      1                      2                      3
                      A                      A                      A
 Frequencies --    447.8958               612.3111               686.8948
 Red. masses --      1.1011                 3.6496                 1.3166
 Frc consts  --      0.1301                 0.8062                 0.3660
 IR Inten    --     38.1221                87.6010                33.8099

                      4                      5                      6
                      A                      A                      A
 Frequencies --    802.1854              1081.8340              1249.6628
 Red. masses --      1.1111                 1.1946                 1.0328
 Frc consts  --      0.4213                 0.8237                 0.9503
 IR Inten    --     27.9443                 0.7269                30.9377

                      7                      8                      9
                      A                      A                      A
 Frequencies --   2181.7632              2596.1489              3028.9882
 Red. masses --      1.0377                 1.0383                 1.0832
 Frc consts  --      2.9103                 4.1231                 5.8554
 IR Inten    --    253.8329                 5.7510                16.1010

 - Thermochemistry -
 -------------------
 Temperature   298.150 Kelvin.  Pressure   1.00000 Atm.
 Atom     1 has atomic number 16 and mass  31.97207

 Molecular mass:    46.99555 amu.
 Principal axes and moments of inertia in atomic units:
                           1         2         3
     Eigenvalues --    14.48490 111.61225 117.60848
           X            0.99737  -0.05619  -0.04580
           Y            0.05404   0.99744  -0.04691
           Z            0.04832   0.04431   0.99785
 This molecule is an asymmetric top.
 Rotational symmetry number  1.
 Rotational temperatures (Kelvin)      5.97959     0.77602     0.73646
 Rotational constants (GHZ):         124.59466    16.16974    15.34533
 Zero-point vibrational energy      75889.2 (Joules/Mol)
                                   18.13796 (Kcal/Mol)
 Warning -- explicit consideration of   2 degrees of freedom as
           vibrations may cause significant error
 Vibrational temperatures:    644.42   880.98   988.29  1154.16  1556.52
          (Kelvin)           1797.98  3139.07  3735.27  4358.03

 Zero-point correction=                           0.028905 (Hartree/Particle)
 Thermal correction to Energy=                    0.032393
 Thermal correction to Enthalpy=                  0.033337
 Thermal correction to Gibbs Free Energy=         0.004551
 Sum of electronic and zero-point Energies=           -437.950781
 Sum of electronic and thermal Energies=              -437.947293
 Sum of electronic and thermal Enthalpies=            -437.946349
 Sum of electronic and thermal Free Energies=         -437.975135

                     E (Thermal)             CV                S
                      KCal/Mol        Cal/Mol-Kelvin    Cal/Mol-Kelvin
 Total                   20.327             10.312             60.585
 Electronic               0.000              0.000              1.377
 Translational            0.889              2.981             37.467
 Rotational               0.889              2.981             19.881
 Vibrational             18.549              4.351              1.860
 Vibration     1          0.807              1.366              0.802
 Vibration     2          0.972              1.006              0.429

 Optimization completed.
    -- Stationary point found.
 Normal termination of Gaussian 09 at Wed Aug  3 20:08:38 2016.
