 Gaussian 09, Revision E.01,
 Gaussian 09:  EM64L-G09RevE.01 30-Nov-2015

 ------------------------------
 #p b3lyp/6-311++G(3df,2p) freq
 ------------------------------

 ---------
 b3lyp opt
 ---------
 Symbolic Z-matrix:
 Charge =  1 Multiplicity = 3

                         Standard orientation:
 ---------------------------------------------------------------------
 Center     Atomic      Atomic             Coordinates (Angstroms)
 Number     Number       Type             X           Y           Z
 ---------------------------------------------------------------------
      1         16           0       -1.430618   -0.130937    0.106526
      2         16           0        1.385588   -0.234130   -0.027956
      3          6           0        0.000632    0.788777   -0.244572
      4          1           0       -1.267373   -1.117604   -0.808599
      5          1           0        1.973577    0.382381    1.030809
      6          1           0        0.010486    1.843634   -0.011898
 ---------------------------------------------------------------------

 SCF Done:  E(UB3LYP) =  -835.979148126     A.U. after   14 cycles

 The electronic state is 3-A.
 Alpha  occ. eigenvalues --  -89.14755 -89.14708 -10.46701  -8.22982  -8.22963
 Alpha  occ. eigenvalues --   -6.19360  -6.19359  -6.19032  -6.19029  -6.18747
 Alpha  occ. eigenvalues --   -6.18650  -1.09652  -1.00075  -0.85014  -0.72526
 Alpha  occ. eigenvalues --   -0.68671  -0.62855  -0.61882  -0.57572  -0.51805
 Alpha  occ. eigenvalues --   -0.45179
 Alpha virt. eigenvalues --   -0.23577  -0.20251  -0.18897  -0.17058  -0.13407
 Alpha virt. eigenvalues --   -0.12193  -0.10574  -0.09792  -0.08790  -0.07666
 Alpha virt. eigenvalues --   -0.07397  -0.06603  -0.04523  -0.03939  -0.03091

  Beta  occ. eigenvalues --  -89.14318 -89.14292 -10.45476  -8.22581  -8.22570
  Beta  occ. eigenvalues --   -6.18829  -6.18810  -6.18465  -6.18451  -6.18005
  Beta  occ. eigenvalues --   -6.18004  -1.07005  -0.97419  -0.82234  -0.71142
  Beta  occ. eigenvalues --   -0.67118  -0.60117  -0.59893  -0.52920
  Beta virt. eigenvalues --   -0.41098  -0.32139  -0.22790  -0.18410  -0.17760
  Beta virt. eigenvalues --   -0.15952  -0.12827  -0.11805  -0.10239  -0.08965
  Beta virt. eigenvalues --   -0.07867  -0.07380  -0.07129  -0.06381  -0.03802

 Mulliken charges and spin densities:
               1          2
     1  S    0.233789   0.657624
     2  S    0.256691   0.619098
     3  C   -0.098937   0.692654
     4  H    0.194742   0.019955
     5  H    0.193137   0.037406
     6  H    0.220577  -0.026736
 Sum of Mulliken charges =   1.00000   2.00000

 Dipole moment (field-independent basis, Debye):
    X=              0.5177    Y=              0.3176    Z=              0.3411  Tot=              0.6966
 Quadrupole moment (field-independent basis, Debye-Ang):
   XX=            -17.8526   YY=            -25.7151   ZZ=            -28.8111
   XY=              2.0142   XZ=              2.8625   YZ=              2.0515

  Exact polarizability:  85.355   1.247  41.394   2.807   0.609  36.093
 Approx polarizability: 157.598  -0.048  68.293   2.471   1.513  58.957

                      1                      2                      3
                      A                      A                      A
 Frequencies --    228.1628               347.2204               381.3885
 Red. masses --      5.0630                 1.2708                 1.0794
 Frc consts  --      0.1553                 0.0903                 0.0925
 IR Inten    --      0.9443                 5.6061                62.0685

                      4                      5                      6
                      A                      A                      A
 Frequencies --    492.9654               716.5854               831.5315
 Red. masses --      1.2892                 4.2703                 5.2325
 Frc consts  --      0.1846                 1.2919                 2.1317
 IR Inten    --     39.3698                 3.8893                18.3526

                      7                      8                      9
                      A                      A                      A
 Frequencies --    884.6498               972.8472              1203.3735
 Red. masses --      1.0839                 1.2999                 1.1433
 Frc consts  --      0.4998                 0.7249                 0.9754
 IR Inten    --      5.3295                18.2389                 8.4665

                     10                     11                     12
                      A                      A                      A
 Frequencies --   2558.4136              2583.6090              3207.4162
 Red. masses --      1.0393                 1.0394                 1.0896
 Frc consts  --      4.0079                 4.0876                 6.6045
 IR Inten    --     51.6014                20.4892                29.5472

 - Thermochemistry -
 -------------------
 Temperature   298.150 Kelvin.  Pressure   1.00000 Atm.
 Atom     1 has atomic number 16 and mass  31.97207

 Molecular mass:    78.96762 amu.
 Principal axes and moments of inertia in atomic units:
                           1         2         3
     Eigenvalues --    61.80940 482.39468 525.50470
           X            0.99956   0.01556   0.02507
           Y           -0.01823   0.99377   0.10992
           Z           -0.02320  -0.11032   0.99362
 This molecule is an asymmetric top.
 Rotational symmetry number  1.
 Rotational temperatures (Kelvin)      1.40130     0.17955     0.16482
 Rotational constants (GHZ):          29.19849     3.74121     3.43430
 Zero-point vibrational energy      86180.0 (Joules/Mol)
                                   20.59750 (Kcal/Mol)
 Warning -- explicit consideration of   4 degrees of freedom as
           vibrations may cause significant error
 Vibrational temperatures:    328.28   499.57   548.73   709.27  1031.01
          (Kelvin)           1196.39  1272.81  1399.71  1731.38  3680.98
                             3717.23  4614.75

 Zero-point correction=                           0.032824 (Hartree/Particle)
 Thermal correction to Energy=                    0.037387
 Thermal correction to Enthalpy=                  0.038331
 Thermal correction to Gibbs Free Energy=         0.004593
 Sum of electronic and zero-point Energies=           -835.946324
 Sum of electronic and thermal Energies=              -835.941761
 Sum of electronic and thermal Enthalpies=            -835.940817
 Sum of electronic and thermal Free Energies=         -835.974555

                     E (Thermal)             CV                S
                      KCal/Mol        Cal/Mol-Kelvin    Cal/Mol-Kelvin
 Total                   23.461             14.649             71.007
 Electronic               0.000              0.000              2.183
 Translational            0.889              2.981             39.014
 Rotational               0.889              2.981             24.264
 Vibrational             21.683              8.687              5.546
 Vibration     1          0.651              1.798              1.893
 Vibration     2          0.725              1.581              1.179
 Vibration     3          0.751              1.510              1.034
 Vibration     4          0.849              1.266              0.676

 Optimization completed.
    -- Stationary point found.
 Normal termination of Gaussian 09 at Wed Aug  3 20:09:58 2016.
