 Gaussian 09, Revision E.01,
 Gaussian 09:  EM64L-G09RevE.01 30-Nov-2015

 ------------------------------
 #p b3lyp/6-311++G(3df,2p) freq
 ------------------------------

 ---------
 b3lyp opt
 ---------
 Symbolic Z-matrix:
 Charge =  0 Multiplicity = 2

                         Standard orientation:
 ---------------------------------------------------------------------
 Center     Atomic      Atomic             Coordinates (Angstroms)
 Number     Number       Type             X           Y           Z
 ---------------------------------------------------------------------
      1         16           0        1.537837   -0.098966   -0.044941
      2         16           0       -1.473049   -0.233517   -0.057305
      3          6           0        0.000803    0.681602    0.093163
      4          1           0        1.259467   -1.193654    0.690350
      5          1           0       -0.003704    1.743783   -0.098816
      6          1           0       -2.297186    0.679991    0.485424
 ---------------------------------------------------------------------

 SCF Done:  E(UB3LYP) =  -836.318243632     A.U. after   14 cycles

 The electronic state is 2-A.
 Alpha  occ. eigenvalues --  -88.87350 -88.87270 -10.22881  -7.95891  -7.95810
 Alpha  occ. eigenvalues --   -5.92205  -5.92116  -5.91871  -5.91763  -5.91493
 Alpha  occ. eigenvalues --   -5.91445  -0.83559  -0.75021  -0.61085  -0.48168
 Alpha  occ. eigenvalues --   -0.44308  -0.39328  -0.36376  -0.33001  -0.27702
 Alpha  occ. eigenvalues --   -0.18323
 Alpha virt. eigenvalues --   -0.02544  -0.00949  -0.00084   0.02109   0.02326
 Alpha virt. eigenvalues --    0.04398   0.05897   0.06197   0.07190   0.07583
 Alpha virt. eigenvalues --    0.08797   0.09581   0.09802   0.10824   0.11466

  Beta  occ. eigenvalues --  -88.87270 -88.87197 -10.21700  -7.95816  -7.95739
  Beta  occ. eigenvalues --   -5.92166  -5.92092  -5.91814  -5.91739  -5.91244
  Beta  occ. eigenvalues --   -5.91174  -0.82232  -0.74520  -0.59184  -0.47650
  Beta  occ. eigenvalues --   -0.43617  -0.37645  -0.35664  -0.30767  -0.26340
  Beta virt. eigenvalues --   -0.07657  -0.02290  -0.00586   0.00235   0.02330
  Beta virt. eigenvalues --    0.02412   0.04480   0.06058   0.06248   0.07231
  Beta virt. eigenvalues --    0.07721   0.09051   0.09813   0.10270   0.11101

 Mulliken charges and spin densities:
               1          2
     1  S   -0.193157   0.146176
     2  S   -0.209353   0.156414
     3  C   -0.024980   0.696645
     4  H    0.124857   0.022462
     5  H    0.164372  -0.025121
     6  H    0.138260   0.003424
 Sum of Mulliken charges =  -0.00000   1.00000

 Dipole moment (field-independent basis, Debye):
    X=             -0.6400    Y=              0.5631    Z=              0.5305  Tot=              1.0041
 Quadrupole moment (field-independent basis, Debye-Ang):
   XX=            -32.5533   YY=            -30.9673   ZZ=            -35.7581
   XY=             -2.7011   XZ=             -0.7920   YZ=             -0.9645

  Exact polarizability:  79.052  -1.684  50.473   0.624   0.022  45.292
 Approx polarizability: 116.173  -3.599  82.674  -0.682  -0.398  69.381

                      1                      2                      3
                      A                      A                      A
 Frequencies --    167.2356               256.1959               270.0398
 Red. masses --      1.1987                 6.9017                 1.0549
 Frc consts  --      0.0198                 0.2669                 0.0453
 IR Inten    --     15.9277                 0.9791                29.0264

                      4                      5                      6
                      A                      A                      A
 Frequencies --    391.7953               663.8321               857.6385
 Red. masses --      1.4325                 3.8155                 2.5251
 Frc consts  --      0.1296                 0.9906                 1.0943
 IR Inten    --     39.2851                 2.1427                20.0749

                      7                      8                      9
                      A                      A                      A
 Frequencies --    914.4058              1012.3761              1239.9210
 Red. masses --      1.2979                 1.3370                 1.1956
 Frc consts  --      0.6394                 0.8074                 1.0830
 IR Inten    --      6.7438                11.8003                20.6737

                     10                     11                     12
                      A                      A                      A
 Frequencies --   2614.5518              2652.5747              3194.7345
 Red. masses --      1.0384                 1.0386                 1.0873
 Frc consts  --      4.1824                 4.3056                 6.5384
 IR Inten    --      2.5826                 0.9624                 0.0822

 - Thermochemistry -
 -------------------
 Temperature   298.150 Kelvin.  Pressure   1.00000 Atm.
 Atom     1 has atomic number 16 and mass  31.97207

 Molecular mass:    78.96762 amu.
 Principal axes and moments of inertia in atomic units:
                           1         2         3
     Eigenvalues --    48.20548 546.05114 587.46283
           X            0.99976  -0.02201  -0.00058
           Y            0.02195   0.99824  -0.05516
           Z            0.00179   0.05514   0.99848
 This molecule is an asymmetric top.
 Rotational symmetry number  1.
 Rotational temperatures (Kelvin)      1.79676     0.15862     0.14744
 Rotational constants (GHZ):          37.43851     3.30508     3.07209
 Zero-point vibrational energy      85146.0 (Joules/Mol)
                                   20.35038 (Kcal/Mol)
 Warning -- explicit consideration of   4 degrees of freedom as
           vibrations may cause significant error
 Vibrational temperatures:    240.61   368.61   388.53   563.71   955.11
          (Kelvin)           1233.95  1315.62  1456.58  1783.97  3761.75
                             3816.46  4596.50

 Zero-point correction=                           0.032430 (Hartree/Particle)
 Thermal correction to Energy=                    0.037423
 Thermal correction to Enthalpy=                  0.038367
 Thermal correction to Gibbs Free Energy=         0.004082
 Sum of electronic and zero-point Energies=           -836.285813
 Sum of electronic and thermal Energies=              -836.280821
 Sum of electronic and thermal Enthalpies=            -836.279876
 Sum of electronic and thermal Free Energies=         -836.314161

                     E (Thermal)             CV                S
                      KCal/Mol        Cal/Mol-Kelvin    Cal/Mol-Kelvin
 Total                   23.483             15.300             72.159
 Electronic               0.000              0.000              1.377
 Translational            0.889              2.981             39.014
 Rotational               0.889              2.981             24.251
 Vibrational             21.706              9.338              7.516
 Vibration     1          0.624              1.883              2.466
 Vibration     2          0.666              1.752              1.688
 Vibration     3          0.674              1.728              1.596
 Vibration     4          0.759              1.488              0.993

 Normal termination of Gaussian 09 at Wed Aug  3 21:11:07 2016.
