 Gaussian 09, Revision E.01,
 Gaussian 09:  EM64L-G09RevE.01 30-Nov-2015

 ------------------------------
 #p b3lyp/6-311++G(3df,2p) freq
 ------------------------------

 ---------
 b3lyp opt
 ---------
 Symbolic Z-matrix:
 Charge =  1 Multiplicity = 3

                         Standard orientation:
 ---------------------------------------------------------------------
 Center     Atomic      Atomic             Coordinates (Angstroms)
 Number     Number       Type             X           Y           Z
 ---------------------------------------------------------------------
      1         16           0        0.037405   -0.484791   -0.000000
      2          6           0        0.037405    1.225381    0.000000
      3          1           0       -0.851196   -0.751955    0.998142
      4          1           0       -0.851196   -0.751955   -0.998142
      5          1           0        0.879489    1.908274    0.000000
 ---------------------------------------------------------------------

 SCF Done:  E(UB3LYP) =  -437.685474845     A.U. after   12 cycles

 The electronic state is 3-A".
 Alpha  occ. eigenvalues --  -89.21075 -10.50267  -8.29289  -6.25415  -6.25363
 Alpha  occ. eigenvalues --   -6.25028  -1.12189  -0.91155  -0.75934  -0.72421
 Alpha  occ. eigenvalues --   -0.67808  -0.52736  -0.51882
 Alpha virt. eigenvalues --   -0.25029  -0.24983  -0.22709  -0.14031  -0.12420
 Alpha virt. eigenvalues --   -0.11502  -0.09459  -0.08950  -0.07163  -0.06312
 Alpha virt. eigenvalues --   -0.05429  -0.04953  -0.04158  -0.01086  -0.00178

  Beta  occ. eigenvalues --  -89.21054 -10.47371  -8.29254  -6.25385  -6.25374
  Beta  occ. eigenvalues --   -6.24897  -1.10324  -0.85641  -0.74490  -0.70409
  Beta  occ. eigenvalues --   -0.64899
  Beta virt. eigenvalues --   -0.35599  -0.35334  -0.23852  -0.22957  -0.21240
  Beta virt. eigenvalues --   -0.13279  -0.12187  -0.11167  -0.09123  -0.08325
  Beta virt. eigenvalues --   -0.05822  -0.05046  -0.04649  -0.04108  -0.03263

 Mulliken charges and spin densities:
               1          2
     1  S    0.320912   0.104756
     2  C   -0.036287   1.761810
     3  H    0.234546   0.063646
     4  H    0.234546   0.063646
     5  H    0.246284   0.006141
 Sum of Mulliken charges =   1.00000   2.00000

 Dipole moment (field-independent basis, Debye):
    X=             -0.7104    Y=             -0.4946    Z=             -0.0000  Tot=              0.8656
 Quadrupole moment (field-independent basis, Debye-Ang):
   XX=            -15.6321   YY=            -12.1526   ZZ=            -15.3166
   XY=              3.6010   XZ=              0.0000   YZ=             -0.0000

  Exact polarizability:  23.502   3.138  34.658   0.000  -0.000  23.591
 Approx polarizability:  34.604   3.786  51.491   0.000   0.000  35.752

                      1                      2                      3
                     A"                     A'                     A'
 Frequencies --    299.1415               747.5894               777.9784
 Red. masses --      1.1329                 1.2078                 4.3923
 Frc consts  --      0.0597                 0.3977                 1.5663
 IR Inten    --     42.7873                30.2402                 4.6077

                      4                      5                      6
                     A"                     A'                     A'
 Frequencies --    869.0217               956.9973              1181.2556
 Red. masses --      1.0712                 1.2501                 1.0319
 Frc consts  --      0.4767                 0.6745                 0.8484
 IR Inten    --      1.6889                 0.2627                 6.9316

                      7                      8                      9
                     A"                     A'                     A'
 Frequencies --   2520.9286              2521.0391              3194.2006
 Red. masses --      1.0421                 1.0338                 1.0911
 Frc consts  --      3.9021                 3.8710                 6.5590
 IR Inten    --     58.8357                43.0411                76.0580

 - Thermochemistry -
 -------------------
 Temperature   298.150 Kelvin.  Pressure   1.00000 Atm.
 Atom     1 has atomic number 16 and mass  31.97207

 Molecular mass:    46.99555 amu.
 Principal axes and moments of inertia in atomic units:
                           1         2         3
     Eigenvalues --    14.23735 116.51210 116.61732
           X            0.10376   0.00000   0.99460
           Y            0.99460  -0.00000  -0.10376
           Z            0.00000   1.00000  -0.00000
 This molecule is an asymmetric top.
 Rotational symmetry number  1.
 Rotational temperatures (Kelvin)      6.08356     0.74339     0.74272
 Rotational constants (GHZ):         126.76100    15.48973    15.47576
 Zero-point vibrational energy      78164.9 (Joules/Mol)
                                   18.68186 (Kcal/Mol)
 Warning -- explicit consideration of   1 degrees of freedom as
           vibrations may cause significant error
 Vibrational temperatures:    430.40  1075.61  1119.34  1250.33  1376.90
          (Kelvin)           1699.56  3627.05  3627.21  4595.74

 Zero-point correction=                           0.029771 (Hartree/Particle)
 Thermal correction to Energy=                    0.033327
 Thermal correction to Enthalpy=                  0.034272
 Thermal correction to Gibbs Free Energy=         0.004925
 Sum of electronic and zero-point Energies=           -437.655703
 Sum of electronic and thermal Energies=              -437.652147
 Sum of electronic and thermal Enthalpies=            -437.651203
 Sum of electronic and thermal Free Energies=         -437.680549

                     E (Thermal)             CV                S
                      KCal/Mol        Cal/Mol-Kelvin    Cal/Mol-Kelvin
 Total                   20.913             10.257             61.764
 Electronic               0.000              0.000              2.183
 Translational            0.889              2.981             37.467
 Rotational               0.889              2.981             19.898
 Vibrational             19.136              4.295              2.216
 Vibration     1          0.692              1.675              1.422

 Optimization completed.
    -- Stationary point found.
 Normal termination of Gaussian 09 at Wed Aug  3 22:48:04 2016.
