 Gaussian 09, Revision E.01,
 Gaussian 09:  EM64L-G09RevE.01 30-Nov-2015

 ------------------------------
 #p b3lyp/6-311++G(3df,2p) freq
 ------------------------------

 ---------
 b3lyp opt
 ---------
 Symbolic Z-matrix:
 Charge =  1 Multiplicity = 3

                         Standard orientation:
 ---------------------------------------------------------------------
 Center     Atomic      Atomic             Coordinates (Angstroms)
 Number     Number       Type             X           Y           Z
 ---------------------------------------------------------------------
      1         16           0        0.359665   -0.000118    0.000140
      2          6           0       -1.483755   -0.000167    0.000189
      3          1           0        1.052156   -0.234363    1.161862
      4          1           0        1.049273   -0.888724   -0.786383
      5          1           0        1.046466    1.125974   -0.378853
 ---------------------------------------------------------------------

 SCF Done:  E(UB3LYP) =  -437.569365879     A.U. after   12 cycles

 The electronic state is 3-A.
 Alpha  occ. eigenvalues --  -89.25257 -10.49477  -8.33244  -6.29319  -6.29319
 Alpha  occ. eigenvalues --   -6.29115  -1.13812  -0.89056  -0.78287  -0.78279
 Alpha  occ. eigenvalues --   -0.60180  -0.48603  -0.48597
 Alpha virt. eigenvalues --   -0.28281  -0.26355  -0.26346  -0.24537  -0.14001
 Alpha virt. eigenvalues --   -0.13997  -0.11235  -0.09012  -0.08997  -0.08763
 Alpha virt. eigenvalues --   -0.05175  -0.05172  -0.04883  -0.02047  -0.01472

  Beta  occ. eigenvalues --  -89.25291 -10.47193  -8.33238  -6.29321  -6.29321
  Beta  occ. eigenvalues --   -6.29121  -1.12580  -0.83331  -0.77022  -0.77013
  Beta  occ. eigenvalues --   -0.55567
  Beta virt. eigenvalues --   -0.34600  -0.34586  -0.26669  -0.23970  -0.22712
  Beta virt. eigenvalues --   -0.22691  -0.13827  -0.13820  -0.10560  -0.08216
  Beta virt. eigenvalues --   -0.07141  -0.07121  -0.04635  -0.04351  -0.04346

 Mulliken charges and spin densities:
               1          2
     1  S    0.303914   0.213303
     2  C   -0.034838   1.574537
     3  H    0.243605   0.070826
     4  H    0.243635   0.070724
     5  H    0.243684   0.070609
 Sum of Mulliken charges =   1.00000   2.00000

 Dipole moment (field-independent basis, Debye):
    X=              4.1556    Y=              0.0023    Z=             -0.0026  Tot=              4.1556
 Quadrupole moment (field-independent basis, Debye-Ang):
   XX=            -15.3522   YY=            -15.7174   ZZ=            -15.7193
   XY=             -0.0020   XZ=              0.0022   YZ=             -0.0000

  Exact polarizability:  48.902  -0.009  26.454   0.009  -0.001  26.459
 Approx polarizability:  92.240  -0.036  39.513   0.040   0.001  39.521

                      1                      2                      3
                      A                      A                      A
 Frequencies --    322.2051               324.4520               401.5634
 Red. masses --      1.2001                 1.2001                 9.5707
 Frc consts  --      0.0734                 0.0744                 0.9093
 IR Inten    --     12.4180                12.3360                 5.2572

                      4                      5                      6
                      A                      A                      A
 Frequencies --   1093.4998              1139.8074              1140.2999
 Red. masses --      1.0946                 1.0311                 1.0311
 Frc consts  --      0.7711                 0.7893                 0.7900
 IR Inten    --     18.6890                 1.2095                 1.2331

                      7                      8                      9
                      A                      A                      A
 Frequencies --   2404.2381              2405.4406              2433.2017
 Red. masses --      1.0446                 1.0446                 1.0260
 Frc consts  --      3.5576                 3.5612                 3.5789
 IR Inten    --     43.7960                44.1246                 3.9929

 - Thermochemistry -
 -------------------
 Temperature   298.150 Kelvin.  Pressure   1.00000 Atm.
 Atom     1 has atomic number 16 and mass  31.97207

 Molecular mass:    46.99555 amu.
 Principal axes and moments of inertia in atomic units:
                           1         2         3
     Eigenvalues --    15.20374 127.85346 127.85607
           X            1.00000  -0.00002   0.00002
           Y            0.00002   1.00000   0.00032
           Z           -0.00002  -0.00032   1.00000
 This molecule is an asymmetric top.
 Rotational symmetry number  1.
 Rotational temperatures (Kelvin)      5.69687     0.67745     0.67743
 Rotational constants (GHZ):         118.70373    14.11570    14.11541
 Zero-point vibrational energy      69770.4 (Joules/Mol)
                                   16.67554 (Kcal/Mol)
 Warning -- explicit consideration of   3 degrees of freedom as
           vibrations may cause significant error
 Vibrational temperatures:    463.58   466.81   577.76  1573.30  1639.93
          (Kelvin)           1640.64  3459.16  3460.89  3500.83

 Zero-point correction=                           0.026574 (Hartree/Particle)
 Thermal correction to Energy=                    0.030567
 Thermal correction to Enthalpy=                  0.031511
 Thermal correction to Gibbs Free Energy=         0.001335
 Sum of electronic and zero-point Energies=           -437.542792
 Sum of electronic and thermal Energies=              -437.538799
 Sum of electronic and thermal Enthalpies=            -437.537855
 Sum of electronic and thermal Free Energies=         -437.568031

                     E (Thermal)             CV                S
                      KCal/Mol        Cal/Mol-Kelvin    Cal/Mol-Kelvin
 Total                   19.181             11.473             63.511
 Electronic               0.000              0.000              2.183
 Translational            0.889              2.981             37.467
 Rotational               0.889              2.981             20.147
 Vibrational             17.403              5.512              3.714
 Vibration     1          0.707              1.631              1.299
 Vibration     2          0.709              1.627              1.288
 Vibration     3          0.767              1.467              0.957

 Normal termination of Gaussian 09 at Wed Aug  3 20:11:02 2016.
