 Gaussian 09, Revision E.01,
 Gaussian 09:  EM64L-G09RevE.01 30-Nov-2015

 ------------------------------
 #p b3lyp/6-311++G(3df,2p) freq
 ------------------------------

 ---------
 b3lyp opt
 ---------
 Symbolic Z-matrix:
 Charge =  0 Multiplicity = 2

                         Standard orientation:
 ---------------------------------------------------------------------
 Center     Atomic      Atomic             Coordinates (Angstroms)
 Number     Number       Type             X           Y           Z
 ---------------------------------------------------------------------
      1         16           0        0.295227   -0.012833    0.000516
      2          6           0       -1.323812   -0.021806    0.000984
      3          1           0        1.211779   -0.426333    1.015233
      4          1           0        1.208502   -0.500932   -0.982584
      5          1           0        0.798951    1.263423   -0.046814
 ---------------------------------------------------------------------

 SCF Done:  E(UB3LYP) =  -437.848836146     A.U. after   19 cycles

 The electronic state is 2-A.
 Alpha  occ. eigenvalues --  -88.98521 -10.18931  -8.05949  -6.02204  -6.01918
 Alpha  occ. eigenvalues --   -6.01916  -0.88138  -0.63939  -0.52284  -0.48948
 Alpha  occ. eigenvalues --   -0.30791  -0.23605  -0.21386
 Alpha virt. eigenvalues --   -0.06481  -0.03400  -0.00337   0.00090   0.03137
 Alpha virt. eigenvalues --    0.04608   0.05830   0.07788   0.08152   0.09169
 Alpha virt. eigenvalues --    0.10261   0.11259   0.11919   0.14459   0.17486

  Beta  occ. eigenvalues --  -88.98540 -10.17942  -8.05939  -6.02159  -6.01954
  Beta  occ. eigenvalues --   -6.01908  -0.87020  -0.61445  -0.50550  -0.48710
  Beta  occ. eigenvalues --   -0.28727  -0.20330
  Beta virt. eigenvalues --   -0.11797  -0.06047  -0.01999  -0.00133   0.00751
  Beta virt. eigenvalues --    0.03659   0.04842   0.06082   0.08162   0.08188
  Beta virt. eigenvalues --    0.09361   0.10718   0.12137   0.12522   0.14778

 Mulliken charges and spin densities:
               1          2
     1  S    0.269277   0.143956
     2  C   -0.559671   0.677540
     3  H    0.072119   0.024123
     4  H    0.072823   0.025111
     5  H    0.145452   0.129270
 Sum of Mulliken charges =  -0.00000   1.00000

 Dipole moment (field-independent basis, Debye):
    X=              4.5988    Y=              0.4683    Z=             -0.0246  Tot=              4.6226
 Quadrupole moment (field-independent basis, Debye-Ang):
   XX=            -26.3076   YY=            -19.5252   ZZ=            -22.2986
   XY=              0.4893   XZ=             -0.0197   YZ=             -0.0953

  Exact polarizability:  66.787  -2.229  33.567   0.115   0.388  44.533
 Approx polarizability: 137.704  -6.613  50.238   0.339   0.423  62.189

                      1                      2                      3
                      A                      A                      A
 Frequencies --    286.0543               593.9799               921.3534
 Red. masses --      1.1804                 1.2753                 5.6931
 Frc consts  --      0.0569                 0.2651                 2.8474
 IR Inten    --    249.1411                20.3476                 1.3702

                      4                      5                      6
                      A                      A                      A
 Frequencies --    931.7057              1110.6516              1359.8875
 Red. masses --      1.0865                 1.0947                 1.0980
 Frc consts  --      0.5557                 0.7956                 1.1964
 IR Inten    --     29.4329                 5.4200                86.9492

                      7                      8                      9
                      A                      A                      A
 Frequencies --   1715.3193              2003.8699              2318.2148
 Red. masses --      1.0488                 1.0397                 1.0348
 Frc consts  --      1.8182                 2.4598                 3.2764
 IR Inten    --    650.8450               435.7328                48.3909

 - Thermochemistry -
 -------------------
 Temperature   298.150 Kelvin.  Pressure   1.00000 Atm.
 Atom     1 has atomic number 16 and mass  31.97207

 Molecular mass:    46.99555 amu.
 Principal axes and moments of inertia in atomic units:
                           1         2         3
     Eigenvalues --    14.52392 104.30239 104.44197
           X            0.99999  -0.00354   0.00016
           Y            0.00354   0.99999   0.00301
           Z           -0.00017  -0.00301   1.00000
 This molecule is an asymmetric top.
 Rotational symmetry number  1.
 Rotational temperatures (Kelvin)      5.96353     0.83041     0.82930
 Rotational constants (GHZ):         124.25993    17.30297    17.27985
 Zero-point vibrational energy      67236.3 (Joules/Mol)
                                   16.06987 (Kcal/Mol)
 Warning -- explicit consideration of   2 degrees of freedom as
           vibrations may cause significant error
 Vibrational temperatures:    411.57   854.60  1325.62  1340.51  1597.98
          (Kelvin)           1956.57  2467.96  2883.12  3335.39

 Zero-point correction=                           0.025609 (Hartree/Particle)
 Thermal correction to Energy=                    0.029176
 Thermal correction to Enthalpy=                  0.030120
 Thermal correction to Gibbs Free Energy=         0.001214
 Sum of electronic and zero-point Energies=           -437.823227
 Sum of electronic and thermal Energies=              -437.819660
 Sum of electronic and thermal Enthalpies=            -437.818716
 Sum of electronic and thermal Free Energies=         -437.847623

                     E (Thermal)             CV                S
                      KCal/Mol        Cal/Mol-Kelvin    Cal/Mol-Kelvin
 Total                   18.308             10.078             60.839
 Electronic               0.000              0.000              1.377
 Translational            0.889              2.981             37.467
 Rotational               0.889              2.981             19.698
 Vibrational             16.531              4.116              2.296
 Vibration     1          0.684              1.700              1.497
 Vibration     2          0.952              1.045              0.460

 Optimization completed.
    -- Stationary point found.
 Normal termination of Gaussian 09 at Wed Aug  3 20:08:46 2016.
