 Gaussian 09, Revision E.01,
 Gaussian 09:  EM64L-G09RevE.01 30-Nov-2015

 ------------------------------
 #p b3lyp/6-311++G(3df,2p) freq
 ------------------------------

 ---------
 b3lyp opt
 ---------
 Symbolic Z-matrix:
 Charge =  1 Multiplicity = 1

                         Standard orientation:
 ---------------------------------------------------------------------
 Center     Atomic      Atomic             Coordinates (Angstroms)
 Number     Number       Type             X           Y           Z
 ---------------------------------------------------------------------
      1         16           0        1.586479   -0.189848    0.008108
      2         16           0       -1.501157   -0.108164   -0.099409
      3          6           0        0.279349    0.666884    0.002607
      4          1           0       -1.184713   -1.328633    0.384431
      5          1           0       -1.989069    0.352774    1.076054
      6          1           0        0.132533    1.742745   -0.015308
 ---------------------------------------------------------------------

 SCF Done:  E(RB3LYP) =  -836.027186253     A.U. after   12 cycles

 The electronic state is 1-A.
 Alpha  occ. eigenvalues --  -89.16531 -89.08010 -10.49325  -8.24987  -8.16568
 Alpha  occ. eigenvalues --   -6.21120  -6.21042  -6.20636  -6.12880  -6.12662
 Alpha  occ. eigenvalues --   -6.11966  -1.07544  -1.00536  -0.81983  -0.72522
 Alpha  occ. eigenvalues --   -0.67442  -0.64371  -0.61346  -0.54435  -0.46286
 Alpha virt. eigenvalues --   -0.31445  -0.26486  -0.23602  -0.20564  -0.13874
 Alpha virt. eigenvalues --   -0.12179  -0.10798  -0.10576  -0.09543  -0.08618
 Alpha virt. eigenvalues --   -0.07937  -0.07561  -0.06012  -0.05118  -0.03398

 Mulliken charges:
               1
     1  S    0.132259
     2  S    0.183019
     3  C    0.006697
     4  H    0.212940
     5  H    0.217666
     6  H    0.247419
 Sum of Mulliken charges =   1.00000

 Dipole moment (field-independent basis, Debye):
    X=             -3.2725    Y=              0.2545    Z=              1.0977  Tot=              3.4611
 Quadrupole moment (field-independent basis, Debye-Ang):
   XX=            -18.3152   YY=            -25.1610   ZZ=            -28.4203
   XY=             -0.1569   XZ=             -2.6442   YZ=             -0.0565

  Exact polarizability:  74.654  -1.769  41.931  -1.645  -0.026  34.211
 Approx polarizability: 137.653 -15.009  73.379  -1.725   0.122  57.044

                      1                      2                      3
                      A                      A                      A
 Frequencies --    101.8519               218.8498               396.3998
 Red. masses --      1.2326                10.7561                 4.4045
 Frc consts  --      0.0075                 0.3035                 0.4078
 IR Inten    --     20.1036                22.8206                97.4059

                      4                      5                      6
                      A                      A                      A
 Frequencies --    644.6232               780.8922               824.6968
 Red. masses --      1.0611                 1.2271                 1.4525
 Frc consts  --      0.2598                 0.4409                 0.5820
 IR Inten    --     13.2228                19.5025                32.8202

                      7                      8                      9
                      A                      A                      A
 Frequencies --   1146.0029              1181.4853              1255.2115
 Red. masses --      2.8045                 1.0416                 1.3802
 Frc consts  --      2.1701                 0.8567                 1.2812
 IR Inten    --     54.4586                 6.2710               105.5407

                     10                     11                     12
                      A                      A                      A
 Frequencies --   2605.8009              2636.1872              3144.8828
 Red. masses --      1.0369                 1.0401                 1.0953
 Frc consts  --      4.1483                 4.2588                 6.3826
 IR Inten    --     61.3897                46.5124                16.1158

 - Thermochemistry -
 -------------------
 Temperature   298.150 Kelvin.  Pressure   1.00000 Atm.
 Atom     1 has atomic number 16 and mass  31.97207

 Molecular mass:    78.96762 amu.
 Principal axes and moments of inertia in atomic units:
                           1         2         3
     Eigenvalues --    47.77452 572.70446 609.32376
           X            0.99983   0.00694  -0.01682
           Y           -0.00721   0.99985  -0.01565
           Z            0.01671   0.01577   0.99974
 This molecule is an asymmetric top.
 Rotational symmetry number  1.
 Rotational temperatures (Kelvin)      1.81297     0.15124     0.14215
 Rotational constants (GHZ):          37.77623     3.15126     2.96188
 Zero-point vibrational energy      89342.4 (Joules/Mol)
                                   21.35335 (Kcal/Mol)
 Warning -- explicit consideration of   3 degrees of freedom as
           vibrations may cause significant error
 Vibrational temperatures:    146.54   314.88   570.33   927.47  1123.53
          (Kelvin)           1186.55  1648.84  1699.89  1805.97  3749.16
                             3792.88  4524.78

 Zero-point correction=                           0.034029 (Hartree/Particle)
 Thermal correction to Energy=                    0.038782
 Thermal correction to Enthalpy=                  0.039726
 Thermal correction to Gibbs Free Energy=         0.006171
 Sum of electronic and zero-point Energies=           -835.993158
 Sum of electronic and thermal Energies=              -835.988404
 Sum of electronic and thermal Enthalpies=            -835.987460
 Sum of electronic and thermal Free Energies=         -836.021015

                     E (Thermal)             CV                S
                      KCal/Mol        Cal/Mol-Kelvin    Cal/Mol-Kelvin
 Total                   24.336             14.066             70.623
 Electronic               0.000              0.000              0.000
 Translational            0.889              2.981             39.014
 Rotational               0.889              2.981             24.326
 Vibrational             22.559              8.104              7.283
 Vibration     1          0.604              1.948              3.419
 Vibration     2          0.647              1.812              1.969
 Vibration     3          0.763              1.478              0.976

 Normal termination of Gaussian 09 at Wed Aug  3 21:10:06 2016.
