 Gaussian 09, Revision E.01,
 Gaussian 09:  EM64L-G09RevE.01 30-Nov-2015

 ------------------------------
 #p b3lyp/6-311++G(3df,2p) freq
 ------------------------------

 ---------
 b3lyp opt
 ---------
 Symbolic Z-matrix:
 Charge =  1 Multiplicity = 1

                         Standard orientation:
 ---------------------------------------------------------------------
 Center     Atomic      Atomic             Coordinates (Angstroms)
 Number     Number       Type             X           Y           Z
 ---------------------------------------------------------------------
      1         16           0        0.556127   -0.574800   -0.000176
      2         16           0       -1.305973    0.279326   -0.000157
      3          6           0        1.635996    0.615534    0.000408
      4          1           0        2.674124    0.300307   -0.000208
      5          1           0       -1.888762   -0.937973    0.002882
      6          1           0        1.396210    1.672044    0.000203
 ---------------------------------------------------------------------

 SCF Done:  E(RB3LYP) =  -836.053031354     A.U. after   11 cycles

 The electronic state is 1-A.
 Alpha  occ. eigenvalues --  -89.17525 -89.11570 -10.47689  -8.25654  -8.20006
 Alpha  occ. eigenvalues --   -6.21842  -6.21605  -6.21406  -6.16427  -6.15962
 Alpha  occ. eigenvalues --   -6.15444  -1.10803  -0.97993  -0.84426  -0.72698
 Alpha  occ. eigenvalues --   -0.68169  -0.64524  -0.60966  -0.57050  -0.49078
 Alpha virt. eigenvalues --   -0.33746  -0.27690  -0.20179  -0.18133  -0.13663
 Alpha virt. eigenvalues --   -0.12818  -0.11963  -0.10286  -0.09176  -0.07927
 Alpha virt. eigenvalues --   -0.07186  -0.06559  -0.05949  -0.03952  -0.03780

 Mulliken charges:
               1
     1  S    0.333902
     2  S    0.110788
     3  C   -0.076236
     4  H    0.204093
     5  H    0.200748
     6  H    0.226705
 Sum of Mulliken charges =   1.00000

 Dipole moment (field-independent basis, Debye):
    X=              1.6058    Y=              0.1948    Z=              0.0019  Tot=              1.6176
 Quadrupole moment (field-independent basis, Debye-Ang):
   XX=            -14.5356   YY=            -24.9776   ZZ=            -31.3723
   XY=              3.5912   XZ=             -0.0069   YZ=             -0.0054

  Exact polarizability:  74.040   4.511  42.049   0.002  -0.000  32.197
 Approx polarizability: 148.540  11.525  77.474   0.021   0.003  51.014

                      1                      2                      3
                      A                      A                      A
 Frequencies --    190.2871               278.0165               507.1348
 Red. masses --      1.0870                 3.4830                12.8132
 Frc consts  --      0.0232                 0.1586                 1.9416
 IR Inten    --     23.2740                 1.3340                19.7417

                      4                      5                      6
                      A                      A                      A
 Frequencies --    610.4715               884.5887               949.8749
 Red. masses --      1.0659                 1.1111                 1.2704
 Frc consts  --      0.2340                 0.5123                 0.6753
 IR Inten    --      1.3301                 2.6719                46.3640

                      7                      8                      9
                      A                      A                      A
 Frequencies --    978.6279              1056.5560              1434.9232
 Red. masses --      1.3865                 3.5029                 1.1786
 Frc consts  --      0.7823                 2.3039                 1.4298
 IR Inten    --     11.8595                11.6344                11.2697

                     10                     11                     12
                      A                      A                      A
 Frequencies --   2647.5615              3119.5434              3237.4428
 Red. masses --      1.0391                 1.0513                 1.1237
 Frc consts  --      4.2913                 6.0276                 6.9390
 IR Inten    --     53.2585                65.3598                46.7173

 - Thermochemistry -
 -------------------
 Temperature   298.150 Kelvin.  Pressure   1.00000 Atm.
 Atom     1 has atomic number 16 and mass  31.97207

 Molecular mass:    78.96762 amu.
 Principal axes and moments of inertia in atomic units:
                           1         2         3
     Eigenvalues --    75.40825 391.08642 466.49459
           X            0.99847   0.05528  -0.00006
           Y           -0.05528   0.99847  -0.00012
           Z            0.00005   0.00013   1.00000
 This molecule is an asymmetric top.
 Rotational symmetry number  1.
 Rotational temperatures (Kelvin)      1.14860     0.22147     0.18567
 Rotational constants (GHZ):          23.93294     4.61469     3.86873
 Zero-point vibrational energy      95073.4 (Joules/Mol)
                                   22.72308 (Kcal/Mol)
 Warning -- explicit consideration of   4 degrees of freedom as
           vibrations may cause significant error
 Vibrational temperatures:    273.78   400.00   729.65   878.33  1272.72
          (Kelvin)           1366.66  1408.03  1520.15  2064.53  3809.25
                             4488.32  4657.95

 Zero-point correction=                           0.036212 (Hartree/Particle)
 Thermal correction to Energy=                    0.040620
 Thermal correction to Enthalpy=                  0.041564
 Thermal correction to Gibbs Free Energy=         0.009042
 Sum of electronic and zero-point Energies=           -836.016820
 Sum of electronic and thermal Energies=              -836.012412
 Sum of electronic and thermal Enthalpies=            -836.011467
 Sum of electronic and thermal Free Energies=         -836.043989

                     E (Thermal)             CV                S
                      KCal/Mol        Cal/Mol-Kelvin    Cal/Mol-Kelvin
 Total                   25.489             13.545             68.447
 Electronic               0.000              0.000              0.000
 Translational            0.889              2.981             39.014
 Rotational               0.889              2.981             24.135
 Vibrational             23.712              7.584              5.298
 Vibration     1          0.634              1.853              2.225
 Vibration     2          0.679              1.714              1.546
 Vibration     3          0.862              1.234              0.641
 Vibration     4          0.970              1.010              0.432

 Normal termination of Gaussian 09 at Wed Aug  3 21:12:37 2016.
