 Gaussian 09, Revision E.01,
 Gaussian 09:  EM64L-G09RevE.01 30-Nov-2015

 ------------------------------
 #p b3lyp/6-311++G(3df,2p) freq
 ------------------------------

 ---------
 b3lyp opt
 ---------
 Symbolic Z-matrix:
 Charge =  2 Multiplicity = 4

                         Standard orientation:
 ---------------------------------------------------------------------
 Center     Atomic      Atomic             Coordinates (Angstroms)
 Number     Number       Type             X           Y           Z
 ---------------------------------------------------------------------
      1         16           0       -0.000000   -0.000000    0.338471
      2          6           0        0.000000    0.000000   -1.339245
      3          1           0       -0.000000    1.288380    0.873310
      4          1           0       -1.115770   -0.644190    0.873310
      5          1           0        1.115770   -0.644190    0.873310
 ---------------------------------------------------------------------

 SCF Done:  E(UB3LYP) =  -436.940045137     A.U. after   12 cycles

 The electronic state is 4-A1.
 Alpha  occ. eigenvalues --  -89.56691 -10.84913  -8.64396  -6.60659  -6.60354
 Alpha  occ. eigenvalues --   -6.60354  -1.45202  -1.20761  -1.06897  -1.06897
 Alpha  occ. eigenvalues --   -0.94103  -0.81769  -0.81769
 Alpha virt. eigenvalues --   -0.52853  -0.51961  -0.51961  -0.50740  -0.35781
 Alpha virt. eigenvalues --   -0.35781  -0.29356  -0.29356  -0.29138  -0.27577
 Alpha virt. eigenvalues --   -0.20890  -0.20890  -0.20880  -0.17753  -0.17551

  Beta  occ. eigenvalues --  -89.56627 -10.79952  -8.64283  -6.60341  -6.60329
  Beta  occ. eigenvalues --   -6.60329  -1.42374  -1.13282  -1.05185  -1.05185
  Beta virt. eigenvalues --   -0.70071  -0.62777  -0.62777  -0.51416  -0.48099
  Beta virt. eigenvalues --   -0.48099  -0.46689  -0.34366  -0.34366  -0.26881
  Beta virt. eigenvalues --   -0.26303  -0.26303  -0.25978  -0.19816  -0.19816

 Mulliken charges and spin densities:
               1          2
     1  S    0.535969   0.250305
     2  C    0.433573   2.533318
     3  H    0.343486   0.072126
     4  H    0.343486   0.072126
     5  H    0.343486   0.072126
 Sum of Mulliken charges =   2.00000   3.00000

 Dipole moment (field-independent basis, Debye):
    X=             -0.0000    Y=             -0.0000    Z=              1.8798  Tot=              1.8798
 Quadrupole moment (field-independent basis, Debye-Ang):
   XX=            -11.1394   YY=            -11.1394   ZZ=             -5.5838
   XY=              0.0000   XZ=             -0.0000   YZ=             -0.0000

  Exact polarizability:  19.665   0.000  19.664  -0.000  -0.000  28.866
 Approx polarizability:  28.499  -0.000  28.499  -0.000  -0.000  46.178

                      1                      2                      3
                      E                      E                     A1
 Frequencies --    726.9978               726.9985               878.5925
 Red. masses --      1.2094                 1.2094                11.2930
 Frc consts  --      0.3766                 0.3766                 5.1361
 IR Inten    --      8.6529                 8.6531                 1.4230

                      4                      5                      6
                     A1                      E                      E
 Frequencies --   1060.8766              1077.7325              1077.7327
 Red. masses --      1.0824                 1.0234                 1.0234
 Frc consts  --      0.7177                 0.7004                 0.7004
 IR Inten    --      5.2217                 8.3225                 8.3224

                      7                      8                      9
                     A1                      E                      E
 Frequencies --   2275.1198              2275.2599              2275.2606
 Red. masses --      1.0201                 1.0521                 1.0521
 Frc consts  --      3.1111                 3.2091                 3.2091
 IR Inten    --    148.7240               381.6973               381.6947

 - Thermochemistry -
 -------------------
 Temperature   298.150 Kelvin.  Pressure   1.00000 Atm.
 Atom     1 has atomic number 16 and mass  31.97207

 Molecular mass:    46.99555 amu.
 Principal axes and moments of inertia in atomic units:
                           1         2         3
     Eigenvalues --    17.92225 106.61834 106.61834
           X           -0.00000   0.70135   0.71282
           Y           -0.00000   0.71282  -0.70135
           Z            1.00000   0.00000   0.00000
 This molecule is a prolate symmetric top.
 Rotational symmetry number  3.
 Rotational temperatures (Kelvin)      4.83275     0.81237     0.81237
 Rotational constants (GHZ):         100.69839    16.92712    16.92712
 Zero-point vibrational energy      74016.4 (Joules/Mol)
                                   17.69034 (Kcal/Mol)
 Vibrational temperatures:   1045.99  1045.99  1264.10  1526.36  1550.61
          (Kelvin)           1550.61  3273.39  3273.59  3273.59

 Zero-point correction=                           0.028191 (Hartree/Particle)
 Thermal correction to Energy=                    0.031371
 Thermal correction to Enthalpy=                  0.032315
 Thermal correction to Gibbs Free Energy=         0.004329
 Sum of electronic and zero-point Energies=           -436.911854
 Sum of electronic and thermal Energies=              -436.908674
 Sum of electronic and thermal Enthalpies=            -436.907730
 Sum of electronic and thermal Free Energies=         -436.935716

                     E (Thermal)             CV                S
                      KCal/Mol        Cal/Mol-Kelvin    Cal/Mol-Kelvin
 Total                   19.686              8.975             58.902
 Electronic               0.000              0.000              2.755
 Translational            0.889              2.981             37.467
 Rotational               0.889              2.981             17.766
 Vibrational             17.908              3.013              0.914

 Optimization completed.
    -- Stationary point found.
 Normal termination of Gaussian 09 at Wed Aug  3 22:47:57 2016.
