 Gaussian 09, Revision E.01,
 Gaussian 09:  EM64L-G09RevE.01 30-Nov-2015

 ------------------------------
 #p b3lyp/6-311++G(3df,2p) freq
 ------------------------------

 ---------
 b3lyp opt
 ---------
 Symbolic Z-matrix:
 Charge =  0 Multiplicity = 2

                         Standard orientation:
 ---------------------------------------------------------------------
 Center     Atomic      Atomic             Coordinates (Angstroms)
 Number     Number       Type             X           Y           Z
 ---------------------------------------------------------------------
      1         16           0       -0.579636   -0.621924    0.033540
      2         16           0        1.343700    0.209956   -0.106418
      3          6           0       -1.643880    0.699411   -0.001388
      4          1           0       -2.606516    0.545402   -0.465834
      5          1           0        1.626725    0.197573    1.209089
      6          1           0       -1.381947    1.652046    0.431128
 ---------------------------------------------------------------------

 SCF Done:  E(UB3LYP) =  -836.319858310     A.U. after   16 cycles

 The electronic state is 2-A.
 Alpha  occ. eigenvalues --  -88.89388 -88.87744 -10.20610  -7.97626  -7.96228
 Alpha  occ. eigenvalues --   -5.93997  -5.93528  -5.93311  -5.92637  -5.92268
 Alpha  occ. eigenvalues --   -5.91643  -0.83397  -0.73355  -0.61455  -0.47079
 Alpha  occ. eigenvalues --   -0.44698  -0.41291  -0.35438  -0.31731  -0.27399
 Alpha  occ. eigenvalues --   -0.20060
 Alpha virt. eigenvalues --   -0.05477  -0.01801   0.00316   0.02377   0.03077
 Alpha virt. eigenvalues --    0.04311   0.04926   0.06278   0.06628   0.07325
 Alpha virt. eigenvalues --    0.08656   0.09440   0.10526   0.12012   0.12241

  Beta  occ. eigenvalues --  -88.89282 -88.87699 -10.19471  -7.97523  -7.96188
  Beta  occ. eigenvalues --   -5.93961  -5.93498  -5.92923  -5.92530  -5.92208
  Beta  occ. eigenvalues --   -5.91612  -0.82415  -0.72168  -0.59634  -0.46399
  Beta  occ. eigenvalues --   -0.44071  -0.40430  -0.34595  -0.28923  -0.27153
  Beta virt. eigenvalues --   -0.09347  -0.04376  -0.01737   0.00600   0.02419
  Beta virt. eigenvalues --    0.03252   0.04474   0.05117   0.06395   0.06647
  Beta virt. eigenvalues --    0.07527   0.08892   0.09914   0.10925   0.12389

 Mulliken charges and spin densities:
               1          2
     1  S    0.003726   0.177859
     2  S   -0.140463   0.068375
     3  C   -0.273247   0.793419
     4  H    0.136233  -0.021340
     5  H    0.130073   0.001803
     6  H    0.143678  -0.020115
 Sum of Mulliken charges =  -0.00000   1.00000

 Dipole moment (field-independent basis, Debye):
    X=             -0.3295    Y=              0.6034    Z=              0.7504  Tot=              1.0177
 Quadrupole moment (field-independent basis, Debye-Ang):
   XX=            -31.1133   YY=            -34.2207   ZZ=            -33.3304
   XY=             -0.2092   XZ=              2.3622   YZ=              0.5803

  Exact polarizability:  79.906  -2.721  52.824   0.624   0.180  44.344
 Approx polarizability: 126.601  -0.614  84.874   1.095  -0.302  71.109

                      1                      2                      3
                      A                      A                      A
 Frequencies --    206.2323               235.6087               307.7211
 Red. masses --      1.1517                 2.7890                 1.2519
 Frc consts  --      0.0289                 0.0912                 0.0698
 IR Inten    --      5.0578                 9.2540                17.3192

                      4                      5                      6
                      A                      A                      A
 Frequencies --    441.9124               461.6467               806.6501
 Red. masses --      1.7139                 2.9609                 3.6147
 Frc consts  --      0.1972                 0.3718                 1.3858
 IR Inten    --     33.5094                34.9929                 3.2108

                      7                      8                      9
                      A                      A                      A
 Frequencies --    867.5487               924.4814              1397.0342
 Red. masses --      1.1712                 1.2711                 1.1168
 Frc consts  --      0.5193                 0.6401                 1.2842
 IR Inten    --      2.2811                 1.3095                 0.6420

                     10                     11                     12
                      A                      A                      A
 Frequencies --   2643.8219              3140.4884              3265.9992
 Red. masses --      1.0393                 1.0455                 1.1229
 Frc consts  --      4.2802                 6.0751                 7.0572
 IR Inten    --      0.3241                 0.7372                 0.0558

 - Thermochemistry -
 -------------------
 Temperature   298.150 Kelvin.  Pressure   1.00000 Atm.
 Atom     1 has atomic number 16 and mass  31.97207

 Molecular mass:    78.96762 amu.
 Principal axes and moments of inertia in atomic units:
                           1         2         3
     Eigenvalues --    88.33604 409.37758 482.13110
           X            0.99901  -0.03881   0.02195
           Y            0.03811   0.99877   0.03173
           Z           -0.02315  -0.03086   0.99926
 This molecule is an asymmetric top.
 Rotational symmetry number  1.
 Rotational temperatures (Kelvin)      0.98050     0.21157     0.17965
 Rotational constants (GHZ):          20.43041     4.40850     3.74326
 Zero-point vibrational energy      87920.4 (Joules/Mol)
                                   21.01348 (Kcal/Mol)
 Warning -- explicit consideration of   5 degrees of freedom as
           vibrations may cause significant error
 Vibrational temperatures:    296.72   338.99   442.74   635.81   664.21
          (Kelvin)           1160.59  1248.21  1330.12  2010.02  3803.87
                             4518.46  4699.04

 Zero-point correction=                           0.033487 (Hartree/Particle)
 Thermal correction to Energy=                    0.038507
 Thermal correction to Enthalpy=                  0.039452
 Thermal correction to Gibbs Free Energy=         0.005177
 Sum of electronic and zero-point Energies=           -836.286371
 Sum of electronic and thermal Energies=              -836.281351
 Sum of electronic and thermal Enthalpies=            -836.280407
 Sum of electronic and thermal Free Energies=         -836.314681

                     E (Thermal)             CV                S
                      KCal/Mol        Cal/Mol-Kelvin    Cal/Mol-Kelvin
 Total                   24.164             15.713             72.137
 Electronic               0.000              0.000              1.377
 Translational            0.889              2.981             39.014
 Rotational               0.889              2.981             24.370
 Vibrational             22.386              9.751              7.375
 Vibration     1          0.641              1.831              2.077
 Vibration     2          0.655              1.786              1.836
 Vibration     3          0.698              1.659              1.375
 Vibration     4          0.802              1.379              0.821
 Vibration     5          0.819              1.335              0.761

 Normal termination of Gaussian 09 at Wed Aug  3 21:11:11 2016.
