 Gaussian 09, Revision E.01,
 Gaussian 09:  EM64L-G09RevE.01 30-Nov-2015

 ------------------------------
 #p b3lyp/6-311++G(3df,2p) freq
 ------------------------------

 ---------
 b3lyp opt
 ---------
 Symbolic Z-matrix:
 Charge =  1 Multiplicity = 1

                         Standard orientation:
 ---------------------------------------------------------------------
 Center     Atomic      Atomic             Coordinates (Angstroms)
 Number     Number       Type             X           Y           Z
 ---------------------------------------------------------------------
      1         16           0        0.000000   -1.470610   -0.217442
      2         16           0       -0.000000    1.470610   -0.217442
      3          6           0       -0.000000   -0.000000    0.584896
      4          1           0       -0.000000   -2.239462    0.890263
      5          1           0       -0.000000   -0.000000    1.668250
      6          1           0       -0.000000    2.239462    0.890263
 ---------------------------------------------------------------------

 SCF Done:  E(RB3LYP) =  -836.069236738     A.U. after   10 cycles

 The electronic state is 1-A1.
 Alpha  occ. eigenvalues --  -89.12462 -89.12462 -10.50870  -8.20970  -8.20967
 Alpha  occ. eigenvalues --   -6.17231  -6.17230  -6.16814  -6.16814  -6.16681
 Alpha  occ. eigenvalues --   -6.16681  -1.09679  -1.00163  -0.83224  -0.75282
 Alpha  occ. eigenvalues --   -0.67063  -0.61759  -0.60045  -0.57807  -0.50082
 Alpha virt. eigenvalues --   -0.32438  -0.23997  -0.18759  -0.18439  -0.14673
 Alpha virt. eigenvalues --   -0.13790  -0.12259  -0.10023  -0.07787  -0.07247
 Alpha virt. eigenvalues --   -0.07006  -0.06595  -0.06488  -0.06072  -0.05468

 Mulliken charges:
               1
     1  S    0.059919
     2  S    0.059919
     3  C    0.234045
     4  H    0.211283
     5  H    0.223553
     6  H    0.211283
 Sum of Mulliken charges =   1.00000

 Dipole moment (field-independent basis, Debye):
    X=             -0.0000    Y=              0.0000    Z=              2.4115  Tot=              2.4115
 Quadrupole moment (field-independent basis, Debye-Ang):
   XX=            -31.3659   YY=            -13.3787   ZZ=            -25.1595
   XY=              0.0000   XZ=              0.0000   YZ=              0.0000

  Exact polarizability:  32.327   0.000  77.774  -0.000   0.000  39.462
 Approx polarizability:  51.255  -0.000 148.717  -0.000   0.000  67.455

                      1                      2                      3
                     A1                     A2                     B1
 Frequencies --    298.2519               377.5972               516.5271
 Red. masses --      9.5291                 1.0790                 1.2877
 Frc consts  --      0.4994                 0.0906                 0.2024
 IR Inten    --      0.0096                 0.0000                41.4444

                      4                      5                      6
                     A1                     B1                     B2
 Frequencies --    750.3622               897.1236               898.7092
 Red. masses --      3.0843                 1.2560                 1.5790
 Frc consts  --      1.0232                 0.5956                 0.7514
 IR Inten    --      0.6500                18.0186               126.5063

                      7                      8                      9
                     B2                     A1                     B2
 Frequencies --   1070.3241              1083.1064              1306.6646
 Red. masses --      1.5916                 1.3529                 1.4274
 Frc consts  --      1.0743                 0.9351                 1.4359
 IR Inten    --     57.6863                 4.1041                45.5261

                     10                     11                     12
                     B2                     A1                     A1
 Frequencies --   2641.7496              2642.5100              3176.8955
 Red. masses --      1.0390                 1.0395                 1.0913
 Frc consts  --      4.2720                 4.2768                 6.4896
 IR Inten    --     70.5117                26.9151                31.1615

 - Thermochemistry -
 -------------------
 Temperature   298.150 Kelvin.  Pressure   1.00000 Atm.
 Atom     1 has atomic number 16 and mass  31.97207

 Molecular mass:    78.96762 amu.
 Principal axes and moments of inertia in atomic units:
                           1         2         3
     Eigenvalues --    40.65207 529.94793 570.60000
           X            0.00000  -0.00000   1.00000
           Y            1.00000   0.00000   0.00000
           Z           -0.00000   1.00000   0.00000
 This molecule is an asymmetric top.
 Rotational symmetry number  2.
 Rotational temperatures (Kelvin)      2.13061     0.16344     0.15179
 Rotational constants (GHZ):          44.39482     3.40551     3.16288
 Zero-point vibrational energy      93666.5 (Joules/Mol)
                                   22.38684 (Kcal/Mol)
 Warning -- explicit consideration of   3 degrees of freedom as
           vibrations may cause significant error
 Vibrational temperatures:    429.12   543.28   743.17  1079.60  1290.76
          (Kelvin)           1293.04  1539.96  1558.35  1880.00  3800.88
                             3801.98  4570.84

 Zero-point correction=                           0.035676 (Hartree/Particle)
 Thermal correction to Energy=                    0.039743
 Thermal correction to Enthalpy=                  0.040687
 Thermal correction to Gibbs Free Energy=         0.009590
 Sum of electronic and zero-point Energies=           -836.033561
 Sum of electronic and thermal Energies=              -836.029494
 Sum of electronic and thermal Enthalpies=            -836.028550
 Sum of electronic and thermal Free Energies=         -836.059647

                     E (Thermal)             CV                S
                      KCal/Mol        Cal/Mol-Kelvin    Cal/Mol-Kelvin
 Total                   24.939             12.860             65.450
 Electronic               0.000              0.000              0.000
 Translational            0.889              2.981             39.014
 Rotational               0.889              2.981             22.646
 Vibrational             23.162              6.898              3.791
 Vibration     1          0.691              1.677              1.427
 Vibration     2          0.748              1.518              1.049
 Vibration     3          0.872              1.213              0.618

 Optimization completed.
    -- Stationary point found.
 Normal termination of Gaussian 09 at Wed Aug  3 22:48:21 2016.
