 Gaussian 09, Revision E.01,
 Gaussian 09:  EM64L-G09RevE.01 30-Nov-2015

 ------------------------------
 #p b3lyp/6-311++G(3df,2p) freq
 ------------------------------

 ---------
 b3lyp opt
 ---------
 Symbolic Z-matrix:
 Charge =  1 Multiplicity = 1

                         Standard orientation:
 ---------------------------------------------------------------------
 Center     Atomic      Atomic             Coordinates (Angstroms)
 Number     Number       Type             X           Y           Z
 ---------------------------------------------------------------------
      1         16           0        1.542968    0.042665    0.005483
      2         16           0       -1.435542    0.083530   -0.102875
      3          6           0        0.097992   -0.678967    0.027522
      4          1           0        1.328453    1.398127    0.031093
      5          1           0       -2.131085   -0.629549    0.808769
      6          1           0       -1.504148    1.286095    0.553268
 ---------------------------------------------------------------------

 SCF Done:  E(RB3LYP) =  -835.967467254     A.U. after   12 cycles

 The electronic state is 1-A.
 Alpha  occ. eigenvalues --  -89.17999 -89.12731 -10.46542  -8.26250  -8.21054
 Alpha  occ. eigenvalues --   -6.22442  -6.22306  -6.21925  -6.17287  -6.16932
 Alpha  occ. eigenvalues --   -6.16798  -1.10074  -1.02105  -0.82223  -0.73140
 Alpha  occ. eigenvalues --   -0.71954  -0.63179  -0.58252  -0.54247  -0.47131
 Alpha virt. eigenvalues --   -0.32126  -0.24761  -0.22148  -0.20849  -0.17000
 Alpha virt. eigenvalues --   -0.13336  -0.12669  -0.11253  -0.10620  -0.09369
 Alpha virt. eigenvalues --   -0.07477  -0.06623  -0.06267  -0.05161  -0.04626

 Mulliken charges:
               1
     1  S    0.286755
     2  S    0.273752
     3  C   -0.118439
     4  H    0.135155
     5  H    0.242491
     6  H    0.180287
 Sum of Mulliken charges =   1.00000

 Dipole moment (field-independent basis, Debye):
    X=             -2.4583    Y=              2.5890    Z=              1.0938  Tot=              3.7340
 Quadrupole moment (field-independent basis, Debye-Ang):
   XX=            -14.2699   YY=            -27.8405   ZZ=            -29.3232
   XY=              1.4687   XZ=             -2.5961   YZ=             -0.0115

  Exact polarizability:  71.887   1.025  45.498  -1.979   0.559  33.823
 Approx polarizability: 124.690   5.234  82.427  -2.343   0.294  56.161

                      1                      2                      3
                      A                      A                      A
 Frequencies --    228.9317               300.7046               496.4759
 Red. masses --      3.8992                 1.3807                 4.4941
 Frc consts  --      0.1204                 0.0736                 0.6527
 IR Inten    --      2.6814                17.9782                 4.4046

                      4                      5                      6
                      A                      A                      A
 Frequencies --    570.6128               758.3370               853.3210
 Red. masses --      1.3996                 1.2827                 1.1445
 Frc consts  --      0.2685                 0.4346                 0.4910
 IR Inten    --      8.3756                 2.3512                37.1803

                      7                      8                      9
                      A                      A                      A
 Frequencies --    991.8247              1144.9504              1221.1095
 Red. masses --      1.2254                 5.1413                 1.0496
 Frc consts  --      0.7102                 3.9709                 0.9221
 IR Inten    --     14.6732                 5.0555                34.9992

                     10                     11                     12
                      A                      A                      A
 Frequencies --   2436.6132              2449.4716              2622.3649
 Red. masses --      1.0371                 1.0403                 1.0391
 Frc consts  --      3.6278                 3.6776                 4.2100
 IR Inten    --      3.8994                12.1397                75.9270

 - Thermochemistry -
 -------------------
 Temperature   298.150 Kelvin.  Pressure   1.00000 Atm.
 Atom     1 has atomic number 16 and mass  31.97207

 Molecular mass:    78.96762 amu.
 Principal axes and moments of inertia in atomic units:
                           1         2         3
     Eigenvalues --    39.41339 542.74903 573.28964
           X            0.99982   0.00901  -0.01668
           Y           -0.00850   0.99950   0.03031
           Z            0.01694  -0.03016   0.99940
 This molecule is an asymmetric top.
 Rotational symmetry number  1.
 Rotational temperatures (Kelvin)      2.19757     0.15958     0.15108
 Rotational constants (GHZ):          45.79005     3.32519     3.14804
 Zero-point vibrational energy      84185.5 (Joules/Mol)
                                   20.12082 (Kcal/Mol)
 Warning -- explicit consideration of   4 degrees of freedom as
           vibrations may cause significant error
 Vibrational temperatures:    329.38   432.65   714.32   820.98  1091.08
          (Kelvin)           1227.74  1427.01  1647.33  1756.90  3505.74
                             3524.24  3772.99

 Zero-point correction=                           0.032065 (Hartree/Particle)
 Thermal correction to Energy=                    0.036467
 Thermal correction to Enthalpy=                  0.037411
 Thermal correction to Gibbs Free Energy=         0.005053
 Sum of electronic and zero-point Energies=           -835.935403
 Sum of electronic and thermal Energies=              -835.931000
 Sum of electronic and thermal Enthalpies=            -835.930056
 Sum of electronic and thermal Free Energies=         -835.962415

                     E (Thermal)             CV                S
                      KCal/Mol        Cal/Mol-Kelvin    Cal/Mol-Kelvin
 Total                   22.883             13.899             68.104
 Electronic               0.000              0.000              0.000
 Translational            0.889              2.981             39.014
 Rotational               0.889              2.981             24.021
 Vibrational             21.106              7.937              5.069
 Vibration     1          0.652              1.797              1.887
 Vibration     2          0.693              1.672              1.413
 Vibration     3          0.852              1.258              0.667
 Vibration     4          0.927              1.095              0.503

 Normal termination of Gaussian 09 at Wed Aug  3 20:09:19 2016.
