 Gaussian 09, Revision E.01,
 Gaussian 09:  EM64L-G09RevE.01 30-Nov-2015

 ------------------------------
 #p b3lyp/6-311++G(3df,2p) freq
 ------------------------------

 ---------
 b3lyp opt
 ---------
 Symbolic Z-matrix:
 Charge =  2 Multiplicity = 2

                         Standard orientation:
 ---------------------------------------------------------------------
 Center     Atomic      Atomic             Coordinates (Angstroms)
 Number     Number       Type             X           Y           Z
 ---------------------------------------------------------------------
      1         16           0        0.160037   -0.084553   -0.000081
      2          1           0        0.177642    1.340426    0.001275
      3          1           0       -1.364495   -0.491705    0.001840
      4          1           0       -1.373742    0.504127   -0.001814
 ---------------------------------------------------------------------

 SCF Done:  E(UB3LYP) =  -398.901952413     A.U. after   12 cycles

 The electronic state is 2-A.
 Alpha  occ. eigenvalues --  -89.63348  -8.70534  -6.67288  -6.66836  -6.66013
 Alpha  occ. eigenvalues --   -1.45063  -1.13920  -1.05126  -0.97088
 Alpha virt. eigenvalues --   -0.70727  -0.60827  -0.55817  -0.40931  -0.39499
 Alpha virt. eigenvalues --   -0.38410  -0.33917  -0.30791  -0.29716  -0.24172
 Alpha virt. eigenvalues --   -0.21904  -0.20321  -0.19719  -0.16978  -0.13420

  Beta  occ. eigenvalues --  -89.62624  -8.69869  -6.66417  -6.65597  -6.65049
  Beta  occ. eigenvalues --   -1.41130  -1.12925  -1.03660
  Beta virt. eigenvalues --   -0.80830  -0.69521  -0.60330  -0.55017  -0.37819
  Beta virt. eigenvalues --   -0.37203  -0.35186  -0.33740  -0.30477  -0.28401
  Beta virt. eigenvalues --   -0.23673  -0.21702  -0.20167  -0.19826  -0.15845

 Mulliken charges and spin densities:
               1          2
     1  S    0.954863   1.043683
     2  H    0.351197  -0.020101
     3  H    0.332382  -0.010519
     4  H    0.361558  -0.013063
 Sum of Mulliken charges =   2.00000   1.00000

 Dipole moment (field-independent basis, Debye):
    X=             -3.0075    Y=              1.5219    Z=              0.0012  Tot=              3.3706
 Quadrupole moment (field-independent basis, Debye-Ang):
   XX=             -2.2557   YY=             -5.9363   ZZ=            -10.3625
   XY=              0.4523   XZ=              0.0005   YZ=             -0.0014

  Exact polarizability:  18.896   0.251  16.388   0.002  -0.002  11.028
 Approx polarizability:  33.017   0.022  25.842   0.005  -0.005  15.512

                      1                      2                      3
                      A                      A                      A
 Frequencies --    176.3716               917.6117              1094.3491
 Red. masses --      1.0141                 1.0177                 1.0738
 Frc consts  --      0.0186                 0.5049                 0.7577
 IR Inten    --     10.6167                16.9783                55.1133

                      4                      5                      6
                      A                      A                      A
 Frequencies --   1239.0303              2056.2639              2134.4444
 Red. masses --      1.0226                 1.0160                 1.0389
 Frc consts  --      0.9250                 2.5309                 2.7886
 IR Inten    --    124.1037               372.7687               402.0243

 - Thermochemistry -
 -------------------
 Temperature   298.150 Kelvin.  Pressure   1.00000 Atm.
 Atom     1 has atomic number 16 and mass  31.97207

 Molecular mass:    34.99555 amu.
 Principal axes and moments of inertia in atomic units:
                           1         2         3
     Eigenvalues --     8.85936  15.89927  24.75857
           X            0.99822   0.05962   0.00002
           Y           -0.05962   0.99822  -0.00002
           Z           -0.00003   0.00002   1.00000
 This molecule is an asymmetric top.
 Rotational symmetry number  1.
 Rotational temperatures (Kelvin)      9.77653     5.44766     3.49834
 Rotational constants (GHZ):         203.71010   113.51095    72.89360
 Zero-point vibrational energy      45566.2 (Joules/Mol)
                                   10.89058 (Kcal/Mol)
 Warning -- explicit consideration of   1 degrees of freedom as
           vibrations may cause significant error
 Vibrational temperatures:    253.76  1320.24  1574.52  1782.69  2958.50
          (Kelvin)           3070.99

 Zero-point correction=                           0.017355 (Hartree/Particle)
 Thermal correction to Energy=                    0.020878
 Thermal correction to Enthalpy=                  0.021822
 Thermal correction to Gibbs Free Energy=        -0.005009
 Sum of electronic and zero-point Energies=           -398.884597
 Sum of electronic and thermal Energies=              -398.881075
 Sum of electronic and thermal Enthalpies=            -398.880131
 Sum of electronic and thermal Free Energies=         -398.906962

                     E (Thermal)             CV                S
                      KCal/Mol        Cal/Mol-Kelvin    Cal/Mol-Kelvin
 Total                   13.101              8.792             56.471
 Electronic               0.000              0.000              1.377
 Translational            0.889              2.981             36.588
 Rotational               0.889              2.981             15.908
 Vibrational             11.323              2.830              2.597
 Vibration     1          0.628              1.871              2.366

 Normal termination of Gaussian 09 at Wed Aug  3 20:11:31 2016.
