 Gaussian 09, Revision E.01,
 Gaussian 09:  EM64L-G09RevE.01 30-Nov-2015

 ------------------------------
 #p b3lyp/6-311++G(3df,2p) freq
 ------------------------------

 ---------
 b3lyp opt
 ---------
 Symbolic Z-matrix:
 Charge =  1 Multiplicity = 1

                         Standard orientation:
 ---------------------------------------------------------------------
 Center     Atomic      Atomic             Coordinates (Angstroms)
 Number     Number       Type             X           Y           Z
 ---------------------------------------------------------------------
      1         16           0       -0.000000   -0.000000    0.114209
      2          1           0        0.000000    1.147430   -0.609112
      3          1           0        0.993704   -0.573715   -0.609112
      4          1           0       -0.993704   -0.573715   -0.609112
 ---------------------------------------------------------------------

 SCF Done:  E(RB3LYP) =  -399.707700844     A.U. after    8 cycles

 The electronic state is 1-A1.
 Alpha  occ. eigenvalues --  -89.21306  -8.29802  -6.25891  -6.25891  -6.25449
 Alpha  occ. eigenvalues --   -1.09772  -0.75799  -0.75799  -0.65966
 Alpha virt. eigenvalues --   -0.27242  -0.27242  -0.23908  -0.12949  -0.12949
 Alpha virt. eigenvalues --   -0.11687  -0.10141  -0.09680  -0.09680  -0.05929
 Alpha virt. eigenvalues --   -0.04006  -0.04006   0.03010   0.07377   0.07377

 Mulliken charges:
               1
     1  S    0.258967
     2  H    0.247011
     3  H    0.247011
     4  H    0.247011
 Sum of Mulliken charges =   1.00000

 Dipole moment (field-independent basis, Debye):
    X=              0.0000    Y=             -0.0000    Z=             -1.4793  Tot=              1.4793
 Quadrupole moment (field-independent basis, Debye-Ang):
   XX=             -9.5843   YY=             -9.5843   ZZ=            -11.5995
   XY=             -0.0000   XZ=              0.0000   YZ=              0.0000

  Exact polarizability:  18.008   0.000  18.008   0.000  -0.000  16.745
 Approx polarizability:  27.821  -0.000  27.821  -0.000   0.000  24.809

                      1                      2                      3
                     A1                      E                      E
 Frequencies --   1064.1351              1220.1628              1220.1629
 Red. masses --      1.0727                 1.0252                 1.0252
 Frc consts  --      0.7157                 0.8992                 0.8992
 IR Inten    --      9.9552                 0.3631                 0.3630

                      4                      5                      6
                     A1                      E                      E
 Frequencies --   2601.7900              2605.2773              2605.2777
 Red. masses --      1.0317                 1.0407                 1.0407
 Frc consts  --      4.1149                 4.1617                 4.1617
 IR Inten    --     48.3568                87.4187                87.4252

 - Thermochemistry -
 -------------------
 Temperature   298.150 Kelvin.  Pressure   1.00000 Atm.
 Atom     1 has atomic number 16 and mass  31.97207

 Molecular mass:    34.99555 amu.
 Principal axes and moments of inertia in atomic units:
                           1         2         3
     Eigenvalues --    12.26854  12.26854  14.21532
           X            0.72026   0.69370   0.00000
           Y           -0.69370   0.72026  -0.00000
           Z           -0.00000   0.00000   1.00000
 This molecule is an oblate symmetric top.
 Rotational symmetry number  3.
 Rotational temperatures (Kelvin)      7.05983     7.05983     6.09299
 Rotational constants (GHZ):         147.10312   147.10312   126.95745
 Zero-point vibrational energy      67689.5 (Joules/Mol)
                                   16.17819 (Kcal/Mol)
 Vibrational temperatures:   1531.05  1755.54  1755.54  3743.39  3748.41
          (Kelvin)           3748.41

 Zero-point correction=                           0.025782 (Hartree/Particle)
 Thermal correction to Energy=                    0.028674
 Thermal correction to Enthalpy=                  0.029618
 Thermal correction to Gibbs Free Energy=         0.005873
 Sum of electronic and zero-point Energies=           -399.681919
 Sum of electronic and thermal Energies=              -399.679027
 Sum of electronic and thermal Enthalpies=            -399.678083
 Sum of electronic and thermal Free Energies=         -399.701828

                     E (Thermal)             CV                S
                      KCal/Mol        Cal/Mol-Kelvin    Cal/Mol-Kelvin
 Total                   17.993              6.661             49.976
 Electronic               0.000              0.000              0.000
 Translational            0.889              2.981             36.588
 Rotational               0.889              2.981             13.239
 Vibrational             16.216              0.700              0.149

 Optimization completed.
    -- Stationary point found.
 Normal termination of Gaussian 09 at Wed Aug  3 22:47:22 2016.
