 Gaussian 09, Revision E.01,
 Gaussian 09:  EM64L-G09RevE.01 30-Nov-2015

 ------------------------------
 #p b3lyp/6-311++G(3df,2p) freq
 ------------------------------

 ---------
 b3lyp opt
 ---------
 Symbolic Z-matrix:
 Charge =  1 Multiplicity = 1

                         Standard orientation:
 ---------------------------------------------------------------------
 Center     Atomic      Atomic             Coordinates (Angstroms)
 Number     Number       Type             X           Y           Z
 ---------------------------------------------------------------------
      1         16           0        0.087532   -0.995790   -0.000000
      2         16           0        0.087532    1.082729    0.000000
      3          1           0       -0.773758   -1.314464    0.997217
      4          1           0       -0.773758   -1.314464   -0.997217
      5          1           0       -1.253509    1.237908   -0.000000
 ---------------------------------------------------------------------

 SCF Done:  E(RB3LYP) =  -797.936673735     A.U. after   10 cycles

 The electronic state is 1-A'.
 Alpha  occ. eigenvalues --  -89.19788 -89.12311  -8.27983  -8.20687  -6.24153
 Alpha  occ. eigenvalues --   -6.24066  -6.23627  -6.17254  -6.16624  -6.15995
 Alpha  occ. eigenvalues --   -1.09551  -0.94819  -0.74042  -0.72640  -0.62246
 Alpha  occ. eigenvalues --   -0.60021  -0.50907
 Alpha virt. eigenvalues --   -0.30311  -0.24943  -0.24541  -0.18569  -0.12924
 Alpha virt. eigenvalues --   -0.12403  -0.11706  -0.10659  -0.09713  -0.07929
 Alpha virt. eigenvalues --   -0.06831  -0.06392  -0.04974  -0.04303  -0.03364

 Mulliken charges:
               1
     1  S    0.262620
     2  S    0.100096
     3  H    0.221047
     4  H    0.221047
     5  H    0.195189
 Sum of Mulliken charges =   1.00000

 Dipole moment (field-independent basis, Debye):
    X=             -2.1675    Y=             -2.0372    Z=              0.0000  Tot=              2.9746
 Quadrupole moment (field-independent basis, Debye-Ang):
   XX=            -21.6390   YY=            -15.4305   ZZ=            -23.3584
   XY=              0.7199   XZ=             -0.0000   YZ=              0.0000

  Exact polarizability:  31.233   0.881  48.282  -0.000  -0.000  31.152
 Approx polarizability:  52.260   1.482  82.796   0.000  -0.000  49.792

                      1                      2                      3
                     A"                     A'                     A'
 Frequencies --    354.4046               466.9508               757.7100
 Red. masses --      1.0418                26.4781                 1.0282
 Frc consts  --      0.0771                 3.4016                 0.3478
 IR Inten    --      1.1727                 2.9268                 0.1993

                      4                      5                      6
                     A"                     A'                     A'
 Frequencies --    805.5924               942.8909              1211.2001
 Red. masses --      1.0516                 1.1101                 1.0364
 Frc consts  --      0.4021                 0.5815                 0.8958
 IR Inten    --      0.3390                 3.5917                10.4597

                      7                      8                      9
                     A'                     A"                     A'
 Frequencies --   2585.0875              2592.8344              2642.5140
 Red. masses --      1.0347                 1.0425                 1.0392
 Frc consts  --      4.0739                 4.1295                 4.2754
 IR Inten    --     37.8756                51.1202                29.2002

 - Thermochemistry -
 -------------------
 Temperature   298.150 Kelvin.  Pressure   1.00000 Atm.
 Atom     1 has atomic number 16 and mass  31.97207

 Molecular mass:    66.96762 amu.
 Principal axes and moments of inertia in atomic units:
                           1         2         3
     Eigenvalues --    18.43897 272.09351 276.21647
           X            0.00947   0.99996   0.00000
           Y            0.99996  -0.00947   0.00000
           Z            0.00000   0.00000   1.00000
 This molecule is an asymmetric top.
 Rotational symmetry number  1.
 Rotational temperatures (Kelvin)      4.69732     0.31832     0.31357
 Rotational constants (GHZ):          97.87645     6.63280     6.53379
 Zero-point vibrational energy      73924.3 (Joules/Mol)
                                   17.66834 (Kcal/Mol)
 Warning -- explicit consideration of   2 degrees of freedom as
           vibrations may cause significant error
 Vibrational temperatures:    509.91   671.84  1090.17  1159.07  1356.61
          (Kelvin)           1742.64  3719.36  3730.51  3801.98

 Zero-point correction=                           0.028156 (Hartree/Particle)
 Thermal correction to Energy=                    0.031825
 Thermal correction to Enthalpy=                  0.032770
 Thermal correction to Gibbs Free Energy=         0.002896
 Sum of electronic and zero-point Energies=           -797.908517
 Sum of electronic and thermal Energies=              -797.904848
 Sum of electronic and thermal Enthalpies=            -797.903904
 Sum of electronic and thermal Free Energies=         -797.933778

                     E (Thermal)             CV                S
                      KCal/Mol        Cal/Mol-Kelvin    Cal/Mol-Kelvin
 Total                   19.971             10.861             62.875
 Electronic               0.000              0.000              0.000
 Translational            0.889              2.981             38.523
 Rotational               0.889              2.981             21.854
 Vibrational             18.193              4.899              2.498
 Vibration     1          0.730              1.566              1.147
 Vibration     2          0.824              1.323              0.746

 Optimization completed.
    -- Stationary point found.
 Normal termination of Gaussian 09 at Wed Aug  3 22:47:56 2016.
