 Gaussian 09, Revision E.01,
 Gaussian 09:  EM64L-G09RevE.01 30-Nov-2015

 ------------------------------
 #p b3lyp/6-311++G(3df,2p) freq
 ------------------------------

 ---------
 b3lyp opt
 ---------
 Symbolic Z-matrix:
 Charge =  2 Multiplicity = 2

                         Standard orientation:
 ---------------------------------------------------------------------
 Center     Atomic      Atomic             Coordinates (Angstroms)
 Number     Number       Type             X           Y           Z
 ---------------------------------------------------------------------
      1         16           0       -1.115481   -0.088947    0.017243
      2         16           0        1.038033    0.029385   -0.105384
      3          1           0        1.260273    0.844271    0.983239
      4          1           0       -1.298221    1.273000   -0.106212
      5          1           0        1.277119   -1.164283    0.533225
 ---------------------------------------------------------------------

 SCF Done:  E(UB3LYP) =  -797.337179122     A.U. after   14 cycles

 The electronic state is 2-A.
 Alpha  occ. eigenvalues --  -89.48175 -89.46184  -8.55831  -8.54196  -6.52590
 Alpha  occ. eigenvalues --   -6.51939  -6.51375  -6.50474  -6.50144  -6.49892
 Alpha  occ. eigenvalues --   -1.36177  -1.24432  -0.99362  -0.95680  -0.92538
 Alpha  occ. eigenvalues --   -0.88218  -0.82857
 Alpha virt. eigenvalues --   -0.59500  -0.48865  -0.47702  -0.43933  -0.34568
 Alpha virt. eigenvalues --   -0.33867  -0.32515  -0.29706  -0.29056  -0.28518
 Alpha virt. eigenvalues --   -0.27201  -0.25428  -0.24018  -0.22488  -0.20141

  Beta  occ. eigenvalues --  -89.47521 -89.46147  -8.55232  -8.54158  -6.51551
  Beta  occ. eigenvalues --   -6.51009  -6.50566  -6.50492  -6.50126  -6.49752
  Beta  occ. eigenvalues --   -1.34631  -1.21795  -0.98884  -0.95125  -0.90863
  Beta  occ. eigenvalues --   -0.86298
  Beta virt. eigenvalues --   -0.69498  -0.58477  -0.48449  -0.47231  -0.43031
  Beta virt. eigenvalues --   -0.33543  -0.33368  -0.31354  -0.29303  -0.28198
  Beta virt. eigenvalues --   -0.27560  -0.26356  -0.24319  -0.23665  -0.21722

 Mulliken charges and spin densities:
               1          2
     1  S    0.644090   0.956158
     2  S    0.468110   0.025534
     3  H    0.301320   0.028893
     4  H    0.293186  -0.017347
     5  H    0.293293   0.006762
 Sum of Mulliken charges =   2.00000   1.00000

 Dipole moment (field-independent basis, Debye):
    X=              0.4828    Y=              0.8689    Z=              1.3532  Tot=              1.6791
 Quadrupole moment (field-independent basis, Debye-Ang):
   XX=             -4.9063   YY=            -15.8935   ZZ=            -19.8448
   XY=             -2.4110   XZ=              2.3322   YZ=              0.2472

  Exact polarizability:  45.765  -1.204  28.312   1.307  -0.004  23.895
 Approx polarizability:  85.272  -0.125  47.286   0.064   0.063  38.325

                      1                      2                      3
                      A                      A                      A
 Frequencies --    258.3272               397.1314               726.4026
 Red. masses --      1.0480                17.2149                 1.0288
 Frc consts  --      0.0412                 1.5996                 0.3198
 IR Inten    --     43.2331                 7.1321                 7.8035

                      4                      5                      6
                      A                      A                      A
 Frequencies --    729.1747               948.3130              1133.4240
 Red. masses --      1.0694                 1.0751                 1.0410
 Frc consts  --      0.3350                 0.5696                 0.7880
 IR Inten    --     54.6483                 0.8347                12.0475

                      7                      8                      9
                      A                      A                      A
 Frequencies --   2427.9673              2448.0355              2465.0930
 Red. masses --      1.0382                 1.0392                 1.0407
 Frc consts  --      3.6059                 3.6694                 3.7260
 IR Inten    --    212.1372               248.1301               142.3326

 - Thermochemistry -
 -------------------
 Temperature   298.150 Kelvin.  Pressure   1.00000 Atm.
 Atom     1 has atomic number 16 and mass  31.97207

 Molecular mass:    66.96762 amu.
 Principal axes and moments of inertia in atomic units:
                           1         2         3
     Eigenvalues --    19.57841 288.59917 297.09179
           X            0.99928  -0.02751   0.02616
           Y            0.02709   0.99950   0.01632
           Z           -0.02659  -0.01560   0.99952
 This molecule is an asymmetric top.
 Rotational symmetry number  1.
 Rotational temperatures (Kelvin)      4.42395     0.30012     0.29154
 Rotational constants (GHZ):          92.18017     6.25345     6.07469
 Zero-point vibrational energy      68987.9 (Joules/Mol)
                                   16.48849 (Kcal/Mol)
 Warning -- explicit consideration of   2 degrees of freedom as
           vibrations may cause significant error
 Vibrational temperatures:    371.67   571.38  1045.13  1049.12  1364.41
          (Kelvin)           1630.74  3493.30  3522.17  3546.71

 Zero-point correction=                           0.026276 (Hartree/Particle)
 Thermal correction to Energy=                    0.030167
 Thermal correction to Enthalpy=                  0.031111
 Thermal correction to Gibbs Free Energy=         0.000079
 Sum of electronic and zero-point Energies=           -797.310903
 Sum of electronic and thermal Energies=              -797.307012
 Sum of electronic and thermal Enthalpies=            -797.306068
 Sum of electronic and thermal Free Energies=         -797.337100

                     E (Thermal)             CV                S
                      KCal/Mol        Cal/Mol-Kelvin    Cal/Mol-Kelvin
 Total                   18.930             11.437             65.311
 Electronic               0.000              0.000              1.377
 Translational            0.889              2.981             38.523
 Rotational               0.889              2.981             22.045
 Vibrational             17.152              5.475              3.366
 Vibration     1          0.667              1.749              1.673
 Vibration     2          0.764              1.476              0.973

 Optimization completed.
    -- Stationary point found.
 Normal termination of Gaussian 09 at Wed Aug  3 20:11:08 2016.
