 Gaussian 09, Revision E.01,
 Gaussian 09:  EM64L-G09RevE.01 30-Nov-2015

 ------------------------------
 #p b3lyp/6-311++G(3df,2p) freq
 ------------------------------

 ---------
 b3lyp opt
 ---------
 Symbolic Z-matrix:
 Charge =  1 Multiplicity = 1

                         Standard orientation:
 ---------------------------------------------------------------------
 Center     Atomic      Atomic             Coordinates (Angstroms)
 Number     Number       Type             X           Y           Z
 ---------------------------------------------------------------------
      1         16           0        0.990805    0.114620   -0.000692
      2         16           0       -1.079878   -0.099308    0.000301
      3          1           0        1.337374   -0.747981   -0.987175
      4          1           0       -1.249902    1.238767   -0.002895
      5          1           0        1.337706   -0.735767    0.996315
 ---------------------------------------------------------------------

 SCF Done:  E(RB3LYP) =  -797.938970125     A.U. after   10 cycles

 The electronic state is 1-A.
 Alpha  occ. eigenvalues --  -89.19768 -89.12157  -8.27967  -8.20542  -6.24115
 Alpha  occ. eigenvalues --   -6.24045  -6.23636  -6.17100  -6.16482  -6.15858
 Alpha  occ. eigenvalues --   -1.09567  -0.94836  -0.73906  -0.69287  -0.67364
 Alpha  occ. eigenvalues --   -0.58123  -0.50775
 Alpha virt. eigenvalues --   -0.30303  -0.24956  -0.23312  -0.20431  -0.12389
 Alpha virt. eigenvalues --   -0.11852  -0.11737  -0.09922  -0.09319  -0.07939
 Alpha virt. eigenvalues --   -0.07081  -0.06359  -0.05707  -0.04226  -0.03467

 Mulliken charges:
               1
     1  S    0.278301
     2  S    0.073702
     3  H    0.221192
     4  H    0.205667
     5  H    0.221138
 Sum of Mulliken charges =   1.00000

 Dipole moment (field-independent basis, Debye):
    X=              2.0955    Y=             -0.3026    Z=              0.0051  Tot=              2.1173
 Quadrupole moment (field-independent basis, Debye-Ang):
   XX=            -15.2854   YY=            -21.6987   ZZ=            -23.3828
   XY=             -3.6058   XZ=              0.0160   YZ=              0.0035

  Exact polarizability:  48.906  -2.061  31.162   0.013   0.004  31.039
 Approx polarizability:  84.937  -2.297  52.015   0.019   0.006  49.334

                      1                      2                      3
                      A                      A                      A
 Frequencies --    249.4119               476.1332               772.7547
 Red. masses --      1.0368                23.4213                 1.0668
 Frc consts  --      0.0380                 3.1284                 0.3753
 IR Inten    --     39.9849                 2.2560                 3.5526

                      4                      5                      6
                      A                      A                      A
 Frequencies --    840.3155               985.7225              1222.6366
 Red. masses --      1.0427                 1.0770                 1.0306
 Frc consts  --      0.4338                 0.6166                 0.9077
 IR Inten    --      0.0003                 4.5062                 5.8203

                      7                      8                      9
                      A                      A                      A
 Frequencies --   2590.0713              2592.8625              2651.1479
 Red. masses --      1.0350                 1.0419                 1.0393
 Frc consts  --      4.0910                 4.1270                 4.3038
 IR Inten    --     44.7725                55.6937                38.1468

 - Thermochemistry -
 -------------------
 Temperature   298.150 Kelvin.  Pressure   1.00000 Atm.
 Atom     1 has atomic number 16 and mass  31.97207

 Molecular mass:    66.96762 amu.
 Principal axes and moments of inertia in atomic units:
                           1         2         3
     Eigenvalues --    18.56640 271.32193 275.72854
           X            0.99877  -0.04957   0.00019
           Y            0.04957   0.99877   0.00074
           Z           -0.00023  -0.00073   1.00000
 This molecule is an asymmetric top.
 Rotational symmetry number  1.
 Rotational temperatures (Kelvin)      4.66508     0.31923     0.31413
 Rotational constants (GHZ):          97.20468     6.65166     6.54536
 Zero-point vibrational energy      74055.2 (Joules/Mol)
                                   17.69961 (Kcal/Mol)
 Warning -- explicit consideration of   2 degrees of freedom as
           vibrations may cause significant error
 Vibrational temperatures:    358.85   685.05  1111.82  1209.03  1418.23
          (Kelvin)           1759.10  3726.53  3730.55  3814.41

 Zero-point correction=                           0.028206 (Hartree/Particle)
 Thermal correction to Energy=                    0.031977
 Thermal correction to Enthalpy=                  0.032921
 Thermal correction to Gibbs Free Energy=         0.002808
 Sum of electronic and zero-point Energies=           -797.910764
 Sum of electronic and thermal Energies=              -797.906993
 Sum of electronic and thermal Enthalpies=            -797.906049
 Sum of electronic and thermal Free Energies=         -797.936163

                     E (Thermal)             CV                S
                      KCal/Mol        Cal/Mol-Kelvin    Cal/Mol-Kelvin
 Total                   20.066             10.899             63.379
 Electronic               0.000              0.000              0.000
 Translational            0.889              2.981             38.523
 Rotational               0.889              2.981             21.857
 Vibrational             18.288              4.937              3.000
 Vibration     1          0.662              1.764              1.735
 Vibration     2          0.833              1.303              0.721

 Normal termination of Gaussian 09 at Wed Aug  3 20:10:47 2016.
