 Gaussian 09, Revision E.01,
 Gaussian 09:  EM64L-G09RevE.01 30-Nov-2015

 ------------------------------
 #p b3lyp/6-311++G(3df,2p) freq
 ------------------------------

 ---------
 b3lyp opt
 ---------
 Symbolic Z-matrix:
 Charge =  1 Multiplicity = 4

                         Standard orientation:
 ---------------------------------------------------------------------
 Center     Atomic      Atomic             Coordinates (Angstroms)
 Number     Number       Type             X           Y           Z
 ---------------------------------------------------------------------
      1         16           0       -0.000077    0.296803   -0.000000
      2          6           0       -0.000077   -0.355958    1.570894
      3          6           0       -0.000077   -0.355958   -1.570894
      4          1           0       -1.029373    1.191881    0.000000
      5          1           0        1.029333    1.191781   -0.000000
      6          1           0        0.001091   -1.430510    1.747752
      7          1           0        0.001091   -1.430510   -1.747752
 ---------------------------------------------------------------------

 SCF Done:  E(UB3LYP) =  -476.234869848     A.U. after   12 cycles

 The electronic state is 4-A'.
 Alpha  occ. eigenvalues --  -89.24645 -10.46536 -10.46535  -8.32014  -6.28146
 Alpha  occ. eigenvalues --   -6.28135  -6.27970  -1.15174  -0.95454  -0.87306
 Alpha  occ. eigenvalues --   -0.77685  -0.71723  -0.70381  -0.56245  -0.50063
 Alpha  occ. eigenvalues --   -0.49869  -0.49120
 Alpha virt. eigenvalues --   -0.24642  -0.22164  -0.22123  -0.19400  -0.14389
 Alpha virt. eigenvalues --   -0.11664  -0.10935  -0.08964  -0.08274  -0.07382
 Alpha virt. eigenvalues --   -0.05566  -0.05494  -0.04856  -0.04257  -0.02586

  Beta  occ. eigenvalues --  -89.24748 -10.44398 -10.44397  -8.32085  -6.28231
  Beta  occ. eigenvalues --   -6.28179  -6.28123  -1.13577  -0.90089  -0.83535
  Beta  occ. eigenvalues --   -0.75670  -0.70191  -0.68162  -0.49199
  Beta virt. eigenvalues --   -0.36165  -0.34959  -0.33557  -0.23509  -0.19368
  Beta virt. eigenvalues --   -0.18565  -0.17656  -0.13908  -0.10977  -0.08991
  Beta virt. eigenvalues --   -0.08707  -0.07579  -0.06480  -0.05171  -0.04417

 Mulliken charges and spin densities:
               1          2
     1  S    0.137410   0.074096
     2  C   -0.053564   1.388648
     3  C   -0.053564   1.388648
     4  H    0.235109   0.094145
     5  H    0.235060   0.094440
     6  H    0.249774  -0.019988
     7  H    0.249774  -0.019988
 Sum of Mulliken charges =   1.00000   3.00000

 Dipole moment (field-independent basis, Debye):
    X=              0.0017    Y=              0.2847    Z=              0.0000  Tot=              0.2847
 Quadrupole moment (field-independent basis, Debye-Ang):
   XX=            -21.9317   YY=            -17.0287   ZZ=            -21.1274
   XY=             -0.0042   XZ=              0.0000   YZ=              0.0000

  Exact polarizability:  30.824  -0.002  37.759  -0.000  -0.000  86.269
 Approx polarizability:  46.176  -0.002  54.415   0.000   0.000 169.566

                      1                      2                      3
                     A"                     A'                     A'
 Frequencies --    223.4771               252.4847               273.7105
 Red. masses --      1.1140                 3.2698                 1.3142
 Frc consts  --      0.0328                 0.1228                 0.0580
 IR Inten    --      0.0001                 6.3356                77.4949

                      4                      5                      6
                     A'                     A'                     A"
 Frequencies --    556.9899               660.7303               688.1051
 Red. masses --      1.5895                 4.5425                 1.5763
 Frc consts  --      0.2905                 1.1684                 0.4397
 IR Inten    --      0.5277                 5.7180               318.8275

                      7                      8                      9
                     A"                     A"                     A'
 Frequencies --    743.5975               934.5719               948.5153
 Red. masses --      2.8313                 1.0255                 1.5053
 Frc consts  --      0.9224                 0.5277                 0.7979
 IR Inten    --    144.7652                 0.0001                 0.3589

                     10                     11                     12
                     A"                     A'                     A'
 Frequencies --   1100.3608              1131.4175              2437.8410
 Red. masses --      1.0894                 1.0275                 1.0456
 Frc consts  --      0.7771                 0.7750                 3.6611
 IR Inten    --     19.1731                 0.9873                49.8789

                     13                     14                     15
                     A'                     A"                     A'
 Frequencies --   2479.9437              3153.1286              3153.8510
 Red. masses --      1.0321                 1.0893                 1.0895
 Frc consts  --      3.7399                 6.3806                 6.3852
 IR Inten    --     25.9705                 3.5215                69.8269

 - Thermochemistry -
 -------------------
 Temperature   298.150 Kelvin.  Pressure   1.00000 Atm.
 Atom     1 has atomic number 16 and mass  31.97207

 Molecular mass:    60.00337 amu.
 Principal axes and moments of inertia in atomic units:
                           1         2         3
     Eigenvalues --    53.48540 241.11035 279.34218
           X            0.00000  -0.00031   1.00000
           Y            0.00000   1.00000   0.00031
           Z            1.00000  -0.00000  -0.00000
 This molecule is an asymmetric top.
 Rotational symmetry number  1.
 Rotational temperatures (Kelvin)      1.61939     0.35923     0.31006
 Rotational constants (GHZ):          33.74269     7.48513     6.46068
 Zero-point vibrational energy     112082.5 (Joules/Mol)
                                   26.78835 (Kcal/Mol)
 Warning -- explicit consideration of   4 degrees of freedom as
           vibrations may cause significant error
 Vibrational temperatures:    321.53   363.27   393.81   801.38   950.64
          (Kelvin)            990.03  1069.87  1344.64  1364.70  1583.17
                             1627.86  3507.51  3568.08  4536.64  4537.68

 Zero-point correction=                           0.042690 (Hartree/Particle)
 Thermal correction to Energy=                    0.047652
 Thermal correction to Enthalpy=                  0.048597
 Thermal correction to Gibbs Free Energy=         0.014962
 Sum of electronic and zero-point Energies=           -476.192180
 Sum of electronic and thermal Energies=              -476.187217
 Sum of electronic and thermal Enthalpies=            -476.186273
 Sum of electronic and thermal Free Energies=         -476.219908

                     E (Thermal)             CV                S
                      KCal/Mol        Cal/Mol-Kelvin    Cal/Mol-Kelvin
 Total                   29.902             16.308             70.790
 Electronic               0.000              0.000              2.755
 Translational            0.889              2.981             38.196
 Rotational               0.889              2.981             22.803
 Vibrational             28.125             10.346              7.036
 Vibration     1          0.649              1.805              1.931
 Vibration     2          0.664              1.759              1.713
 Vibration     3          0.676              1.722              1.573
 Vibration     4          0.912              1.124              0.530

 Optimization completed.
    -- Stationary point found.
 Normal termination of Gaussian 09 at Wed Aug  3 22:52:57 2016.
