 Gaussian 09, Revision E.01,
 Gaussian 09:  EM64L-G09RevE.01 30-Nov-2015

 ------------------------------
 #p b3lyp/6-311++G(3df,2p) freq
 ------------------------------

 ---------
 b3lyp opt
 ---------
 Symbolic Z-matrix:
 Charge =  0 Multiplicity = 1

                         Standard orientation:
 ---------------------------------------------------------------------
 Center     Atomic      Atomic             Coordinates (Angstroms)
 Number     Number       Type             X           Y           Z
 ---------------------------------------------------------------------
      1         16           0        1.961904   -0.278294    0.040000
      2         16           0       -2.033948   -0.248309   -0.105534
      3          6           0        0.510611    0.799337   -0.298637
      4          6           0       -0.656150    0.338003    0.503604
      5          1           0       -0.512239    0.397096    1.582099
      6          1           0        1.413061   -1.409489   -0.432453
      7          1           0        0.833700    1.789005    0.031090
      8          1           0        0.291409    0.824986   -1.361989
 ---------------------------------------------------------------------

 SCF Done:  E(RB3LYP) =  -875.068764222     A.U. after   12 cycles

 The electronic state is 1-A.
 Alpha  occ. eigenvalues --  -88.86828 -88.84525 -10.25374 -10.22968  -7.95416
 Alpha  occ. eigenvalues --   -7.93192  -5.91775  -5.91440  -5.90850  -5.89452
 Alpha  occ. eigenvalues --   -5.89338  -5.88592  -0.85002  -0.77408  -0.67891
 Alpha  occ. eigenvalues --   -0.58436  -0.49838  -0.44178  -0.42837  -0.40441
 Alpha  occ. eigenvalues --   -0.36143  -0.31358  -0.26665  -0.23952
 Alpha virt. eigenvalues --   -0.09996  -0.02220  -0.00157   0.00910   0.01893
 Alpha virt. eigenvalues --    0.02423   0.03427   0.04846   0.05445   0.06578
 Alpha virt. eigenvalues --    0.06624   0.07536   0.08150   0.09577   0.09891

 Mulliken charges:
               1
     1  S   -0.246562
     2  S   -0.345618
     3  C   -0.116596
     4  C    0.080587
     5  H    0.202676
     6  H    0.130361
     7  H    0.130836
     8  H    0.164315
 Sum of Mulliken charges =  -0.00000

 Dipole moment (field-independent basis, Debye):
    X=              1.0223    Y=              0.8812    Z=              0.0650  Tot=              1.3512
 Quadrupole moment (field-independent basis, Debye-Ang):
   XX=            -45.9958   YY=            -36.1798   ZZ=            -40.2911
   XY=             -0.4667   XZ=             -0.1046   YZ=              1.2410

  Exact polarizability:  99.331   2.933  57.011   2.340   0.651  58.632
 Approx polarizability: 156.718   9.989  97.054  13.338   5.661  92.048

                      1                      2                      3
                      A                      A                      A
 Frequencies --     82.4496               258.4078               302.9673
 Red. masses --      5.7788                 1.1336                 3.2535
 Frc consts  --      0.0231                 0.0446                 0.1760
 IR Inten    --      2.6171                15.7925                 7.6685

                      4                      5                      6
                      A                      A                      A
 Frequencies --    375.1912               664.4415               779.3075
 Red. masses --      3.1503                 3.2612                 1.5237
 Frc consts  --      0.2613                 0.8483                 0.5452
 IR Inten    --      1.8187                 0.8122                 0.5161

                      7                      8                      9
                      A                      A                      A
 Frequencies --    838.6294               948.1324              1030.8788
 Red. masses --      1.3702                 2.3885                 1.6521
 Frc consts  --      0.5678                 1.2651                 1.0345
 IR Inten    --     18.8946                 8.0039                 8.1218

                     10                     11                     12
                      A                      A                      A
 Frequencies --   1153.8858              1182.7768              1237.3010
 Red. masses --      2.5174                 1.1358                 1.2040
 Frc consts  --      1.9748                 0.9362                 1.0860
 IR Inten    --     55.6939                13.0750                 8.5818

                     13                     14                     15
                      A                      A                      A
 Frequencies --   1385.2360              1461.8968              2671.5082
 Red. masses --      1.5156                 1.1186                 1.0386
 Frc consts  --      1.7135                 1.4085                 4.3671
 IR Inten    --     45.0787                 9.3543                 0.2463

                     16                     17                     18
                      A                      A                      A
 Frequencies --   3043.7009              3080.9869              3127.4274
 Red. masses --      1.0628                 1.0863                 1.1017
 Frc consts  --      5.8008                 6.0757                 6.3486
 IR Inten    --      2.3392                12.0661                 1.5983

 - Thermochemistry -
 -------------------
 Temperature   298.150 Kelvin.  Pressure   1.00000 Atm.
 Atom     1 has atomic number 16 and mass  31.97207

 Molecular mass:    91.97544 amu.
 Principal axes and moments of inertia in atomic units:
                           1         2         3
     Eigenvalues --   102.20575 984.697931022.00207
           X            0.99997  -0.00161  -0.00691
           Y            0.00172   0.99987   0.01615
           Z            0.00689  -0.01616   0.99985
 This molecule is an asymmetric top.
 Rotational symmetry number  1.
 Rotational temperatures (Kelvin)      0.84745     0.08796     0.08475
 Rotational constants (GHZ):          17.65792     1.83279     1.76589
 Zero-point vibrational energy     141309.6 (Joules/Mol)
                                   33.77381 (Kcal/Mol)
 Warning -- explicit consideration of   4 degrees of freedom as
           vibrations may cause significant error
 Vibrational temperatures:    118.63   371.79   435.90   539.82   955.98
          (Kelvin)           1121.25  1206.60  1364.15  1483.20  1660.18
                             1701.75  1780.20  1993.04  2103.34  3843.70
                             4379.20  4432.85  4499.66

 Zero-point correction=                           0.053822 (Hartree/Particle)
 Thermal correction to Energy=                    0.059073
 Thermal correction to Enthalpy=                  0.060017
 Thermal correction to Gibbs Free Energy=         0.024534
 Sum of electronic and zero-point Energies=           -875.014942
 Sum of electronic and thermal Energies=              -875.009691
 Sum of electronic and thermal Enthalpies=            -875.008747
 Sum of electronic and thermal Free Energies=         -875.044230

                     E (Thermal)             CV                S
                      KCal/Mol        Cal/Mol-Kelvin    Cal/Mol-Kelvin
 Total                   37.069             16.651             74.680
 Electronic               0.000              0.000              0.000
 Translational            0.889              2.981             39.469
 Rotational               0.889              2.981             26.134
 Vibrational             35.291             10.690              9.078
 Vibration     1          0.600              1.961              3.832
 Vibration     2          0.667              1.749              1.673
 Vibration     3          0.694              1.668              1.400
 Vibration     4          0.746              1.523              1.058

 Normal termination of Gaussian 09 at Wed Aug  3 20:16:42 2016.
