 Gaussian 09, Revision E.01,
 Gaussian 09:  EM64L-G09RevE.01 30-Nov-2015

 ------------------------------
 #p b3lyp/6-311++G(3df,2p) freq
 ------------------------------

 ---------
 b3lyp opt
 ---------
 Symbolic Z-matrix:
 Charge =  1 Multiplicity = 4

                         Standard orientation:
 ---------------------------------------------------------------------
 Center     Atomic      Atomic             Coordinates (Angstroms)
 Number     Number       Type             X           Y           Z
 ---------------------------------------------------------------------
      1         16           0       -1.011932    0.009864   -0.000205
      2          6           0        1.778873   -0.617656    0.000139
      3          6           0        0.915173    0.517805   -0.000053
      4          1           0       -0.949560   -0.909791    0.987721
      5          1           0       -0.948177   -0.913398   -0.984666
      6          1           0        0.962198    1.132378    0.903069
      7          1           0        0.962178    1.132090   -0.903352
 ---------------------------------------------------------------------

 SCF Done:  E(UB3LYP) =  -476.319874835     A.U. after   13 cycles

 The electronic state is 4-A.
 Alpha  occ. eigenvalues --  -89.16517 -10.47552 -10.46893  -8.24930  -6.21085
 Alpha  occ. eigenvalues --   -6.21022  -6.20640  -1.07501  -0.98805  -0.80896
 Alpha  occ. eigenvalues --   -0.73422  -0.67462  -0.66083  -0.63033  -0.58990
 Alpha  occ. eigenvalues --   -0.46026  -0.44784
 Alpha virt. eigenvalues --   -0.25361  -0.23231  -0.20578  -0.14116  -0.12858
 Alpha virt. eigenvalues --   -0.11554  -0.10782  -0.08712  -0.08296  -0.07657
 Alpha virt. eigenvalues --   -0.07220  -0.05127  -0.04398  -0.03677  -0.02072

  Beta  occ. eigenvalues --  -89.16339 -10.47333 -10.42460  -8.24762  -6.20905
  Beta  occ. eigenvalues --   -6.20748  -6.20359  -1.06013  -0.95274  -0.74661
  Beta  occ. eigenvalues --   -0.72824  -0.65972  -0.64632  -0.60335
  Beta virt. eigenvalues --   -0.37402  -0.31011  -0.26124  -0.22638  -0.21879
  Beta virt. eigenvalues --   -0.18429  -0.13824  -0.12690  -0.11292  -0.09911
  Beta virt. eigenvalues --   -0.08353  -0.08159  -0.06545  -0.05932  -0.04655

 Mulliken charges and spin densities:
               1          2
     1  S    0.139569   0.207465
     2  C    0.037685   2.723386
     3  C   -0.050256  -0.038591
     4  H    0.226353   0.003129
     5  H    0.226345   0.003150
     6  H    0.210185   0.050726
     7  H    0.210118   0.050736
 Sum of Mulliken charges =   1.00000   3.00000

 Dipole moment (field-independent basis, Debye):
    X=             -0.7875    Y=             -0.3678    Z=              0.0022  Tot=              0.8691
 Quadrupole moment (field-independent basis, Debye-Ang):
   XX=            -17.9427   YY=            -20.2029   ZZ=            -20.5128
   XY=              2.5472   XZ=             -0.0049   YZ=              0.0020

  Exact polarizability:  55.845  -0.755  36.276  -0.003   0.000  32.839
 Approx polarizability:  85.487  -3.286  55.996  -0.004   0.003  50.723

                      1                      2                      3
                      A                      A                      A
 Frequencies --    197.3873               245.3316               370.0564
 Red. masses --      1.1925                10.0406                 4.5421
 Frc consts  --      0.0274                 0.3561                 0.3665
 IR Inten    --     23.1099                31.4201                41.3421

                      4                      5                      6
                      A                      A                      A
 Frequencies --    637.9577               753.6013               939.7034
 Red. masses --      1.0428                 1.2260                 1.4031
 Frc consts  --      0.2501                 0.4102                 0.7300
 IR Inten    --      0.7118                 6.1145                 9.1085

                      7                      8                      9
                      A                      A                      A
 Frequencies --   1114.9291              1137.6888              1194.7263
 Red. masses --      5.7210                 1.0419                 1.0654
 Frc consts  --      4.1901                 0.7946                 0.8960
 IR Inten    --     54.1633                 0.6330                 0.7886

                     10                     11                     12
                      A                      A                      A
 Frequencies --   1214.3700              1416.7050              2625.6170
 Red. masses --      1.1022                 1.1083                 1.0352
 Frc consts  --      0.9577                 1.3106                 4.2048
 IR Inten    --      4.6297                 2.6770                40.4388

                     13                     14                     15
                      A                      A                      A
 Frequencies --   2635.8801              3010.7085              3073.2814
 Red. masses --      1.0414                 1.0514                 1.1124
 Frc consts  --      4.2629                 5.6153                 6.1905
 IR Inten    --     43.8447                 7.7705                14.6969

 - Thermochemistry -
 -------------------
 Temperature   298.150 Kelvin.  Pressure   1.00000 Atm.
 Atom     1 has atomic number 16 and mass  31.97207

 Molecular mass:    60.00337 amu.
 Principal axes and moments of inertia in atomic units:
                           1         2         3
     Eigenvalues --    55.17986 315.16617 344.60061
           X            0.99858   0.05334  -0.00005
           Y           -0.05334   0.99858   0.00006
           Z            0.00006  -0.00006   1.00000
 This molecule is an asymmetric top.
 Rotational symmetry number  1.
 Rotational temperatures (Kelvin)      1.56966     0.27482     0.25135
 Rotational constants (GHZ):          32.70652     5.72632     5.23720
 Zero-point vibrational energy     123023.6 (Joules/Mol)
                                   29.40335 (Kcal/Mol)
 Warning -- explicit consideration of   3 degrees of freedom as
           vibrations may cause significant error
 Vibrational temperatures:    284.00   352.98   532.43   917.88  1084.26
          (Kelvin)           1352.02  1604.13  1636.88  1718.94  1747.21
                             2038.32  3777.67  3792.44  4331.73  4421.76

 Zero-point correction=                           0.046857 (Hartree/Particle)
 Thermal correction to Energy=                    0.051452
 Thermal correction to Enthalpy=                  0.052396
 Thermal correction to Gibbs Free Energy=         0.019029
 Sum of electronic and zero-point Energies=           -476.273018
 Sum of electronic and thermal Energies=              -476.268423
 Sum of electronic and thermal Enthalpies=            -476.267479
 Sum of electronic and thermal Free Energies=         -476.300846

                     E (Thermal)             CV                S
                      KCal/Mol        Cal/Mol-Kelvin    Cal/Mol-Kelvin
 Total                   32.287             14.263             70.227
 Electronic               0.000              0.000              2.755
 Translational            0.889              2.981             38.196
 Rotational               0.889              2.981             23.309
 Vibrational             30.509              8.302              5.968
 Vibration     1          0.637              1.844              2.157
 Vibration     2          0.660              1.771              1.764
 Vibration     3          0.742              1.534              1.080

 Normal termination of Gaussian 09 at Wed Aug  3 20:27:41 2016.
