 Gaussian 09, Revision E.01,
 Gaussian 09:  EM64L-G09RevE.01 30-Nov-2015

 ------------------------------
 #p b3lyp/6-311++G(3df,2p) freq
 ------------------------------

 ---------
 b3lyp opt
 ---------
 Symbolic Z-matrix:
 Charge =  2 Multiplicity = 1

                         Standard orientation:
 ---------------------------------------------------------------------
 Center     Atomic      Atomic             Coordinates (Angstroms)
 Number     Number       Type             X           Y           Z
 ---------------------------------------------------------------------
      1         16           0        0.528874   -0.935469   -0.000000
      2          6           0       -0.000000    0.605863    0.000000
      3          6           0       -1.264530    1.237548    0.000000
      4          1           0       -1.740181    1.550302    0.947023
      5          1           0       -1.740181    1.550302   -0.947023
      6          1           0        1.866490   -0.649593    0.000000
      7          1           0        0.739069    1.456024    0.000000
 ---------------------------------------------------------------------

 SCF Done:  E(RB3LYP) =  -475.930832281     A.U. after   11 cycles

 The electronic state is 1-A'.
 Alpha  occ. eigenvalues --  -89.40667 -10.80352 -10.76622  -8.48743  -6.44956
 Alpha  occ. eigenvalues --   -6.44706  -6.44445  -1.35725  -1.25371  -1.08025
 Alpha  occ. eigenvalues --   -0.98768  -0.97006  -0.95156  -0.83796  -0.80946
 Alpha virt. eigenvalues --   -0.64372  -0.58677  -0.44393  -0.37751  -0.34656
 Alpha virt. eigenvalues --   -0.32575  -0.30015  -0.29741  -0.27393  -0.26665
 Alpha virt. eigenvalues --   -0.25622  -0.24497  -0.23919  -0.20637  -0.20069

 Mulliken charges:
               1
     1  S    0.483776
     2  C    0.189838
     3  C    0.161189
     4  H    0.300215
     5  H    0.300215
     6  H    0.280354
     7  H    0.284412
 Sum of Mulliken charges =   2.00000

 Dipole moment (field-independent basis, Debye):
    X=             -1.7129    Y=              4.1686    Z=             -0.0000  Tot=              4.5068
 Quadrupole moment (field-independent basis, Debye-Ang):
   XX=             -4.0581   YY=             -5.0778   ZZ=            -19.2330
   XY=            -11.2222   XZ=             -0.0000   YZ=             -0.0000

  Exact polarizability:  39.822 -13.245  42.545   0.000  -0.000  23.986
 Approx polarizability:  65.088 -25.662  81.632   0.000  -0.000  35.982

                      1                      2                      3
                     A"                     A'                     A"
 Frequencies --    226.2466               282.6247               492.6955
 Red. masses --      1.0960                 3.4437                 1.2710
 Frc consts  --      0.0331                 0.1621                 0.1818
 IR Inten    --      0.0072                10.4284                57.4872

                      4                      5                      6
                     A"                     A'                     A'
 Frequencies --    774.0169               775.7305               964.3879
 Red. masses --      1.0941                 4.0952                 1.0556
 Frc consts  --      0.3862                 1.4520                 0.5784
 IR Inten    --      1.9851                32.3823                 5.9462

                      7                      8                      9
                     A"                     A'                     A'
 Frequencies --    975.2092              1027.3844              1196.7911
 Red. masses --      1.5638                 1.2939                 1.6249
 Frc consts  --      0.8762                 0.8046                 1.3712
 IR Inten    --      6.4890                38.4776                21.7297

                     10                     11                     12
                     A'                     A'                     A'
 Frequencies --   1364.7866              1406.6835              2519.2237
 Red. masses --      1.8983                 1.5799                 1.0401
 Frc consts  --      2.0832                 1.8419                 3.8892
 IR Inten    --     43.4884                 8.3325               147.5812

                     13                     14                     15
                     A'                     A'                     A"
 Frequencies --   2771.3328              2942.6868              3043.7912
 Red. masses --      1.0778                 1.0503                 1.1209
 Frc consts  --      4.8769                 5.3585                 6.1185
 IR Inten    --    278.0465               225.2281               156.9291

 - Thermochemistry -
 -------------------
 Temperature   298.150 Kelvin.  Pressure   1.00000 Atm.
 Atom     1 has atomic number 16 and mass  31.97207

 Molecular mass:    60.00337 amu.
 Principal axes and moments of inertia in atomic units:
                           1         2         3
     Eigenvalues --    30.74363 325.72458 343.55708
           X           -0.61736   0.78668   0.00000
           Y            0.78668   0.61736   0.00000
           Z           -0.00000   0.00000   1.00000
 This molecule is an asymmetric top.
 Rotational symmetry number  1.
 Rotational temperatures (Kelvin)      2.81729     0.26591     0.25211
 Rotational constants (GHZ):          58.70294     5.54070     5.25310
 Zero-point vibrational energy     124193.9 (Joules/Mol)
                                   29.68304 (Kcal/Mol)
 Warning -- explicit consideration of   3 degrees of freedom as
           vibrations may cause significant error
 Vibrational temperatures:    325.52   406.63   708.88  1113.64  1116.10
          (Kelvin)           1387.54  1403.11  1478.18  1721.91  1963.62
                             2023.90  3624.60  3987.32  4233.86  4379.33

 Zero-point correction=                           0.047303 (Hartree/Particle)
 Thermal correction to Energy=                    0.051649
 Thermal correction to Enthalpy=                  0.052593
 Thermal correction to Gibbs Free Energy=         0.021287
 Sum of electronic and zero-point Energies=           -475.883529
 Sum of electronic and thermal Energies=              -475.879183
 Sum of electronic and thermal Enthalpies=            -475.878239
 Sum of electronic and thermal Free Energies=         -475.909545

                     E (Thermal)             CV                S
                      KCal/Mol        Cal/Mol-Kelvin    Cal/Mol-Kelvin
 Total                   32.410             13.724             65.889
 Electronic               0.000              0.000              0.000
 Translational            0.889              2.981             38.196
 Rotational               0.889              2.981             22.758
 Vibrational             30.633              7.763              4.936
 Vibration     1          0.650              1.801              1.909
 Vibration     2          0.682              1.706              1.518
 Vibration     3          0.848              1.266              0.677

 Optimization completed.
    -- Stationary point found.
 Normal termination of Gaussian 09 at Wed Aug  3 22:52:37 2016.
