 Gaussian 09, Revision E.01,
 Gaussian 09:  EM64L-G09RevE.01 30-Nov-2015

 ------------------------------
 #p b3lyp/6-311++G(3df,2p) freq
 ------------------------------

 ---------
 b3lyp opt
 ---------
 Symbolic Z-matrix:
 Charge =  2 Multiplicity = 3

                         Standard orientation:
 ---------------------------------------------------------------------
 Center     Atomic      Atomic             Coordinates (Angstroms)
 Number     Number       Type             X           Y           Z
 ---------------------------------------------------------------------
      1         16           0        2.119529   -0.141436   -0.075337
      2         16           0       -2.173368   -0.074183   -0.166678
      3          6           0        0.485029    0.677457    0.072798
      4          6           0       -0.697330   -0.173699    0.458391
      5          1           0       -0.583284   -0.880738    1.291172
      6          1           0        1.732973   -1.347150   -0.584351
      7          1           0        0.632095    1.438639    0.855301
      8          1           0        0.353452    1.216606   -0.877021
 ---------------------------------------------------------------------

 SCF Done:  E(UB3LYP) =  -874.213396796     A.U. after   16 cycles

 The electronic state is 3-A.
 Alpha  occ. eigenvalues --  -89.38050 -89.35903 -10.69215 -10.66185  -8.45983
 Alpha  occ. eigenvalues --   -8.43906  -6.42821  -6.41942  -6.41552  -6.40699
 Alpha  occ. eigenvalues --   -6.39747  -6.39664  -1.29842  -1.25036  -1.13168
 Alpha  occ. eigenvalues --   -1.02001  -0.92367  -0.88618  -0.86321  -0.84871
 Alpha  occ. eigenvalues --   -0.80012  -0.76479  -0.74785  -0.72691
 Alpha virt. eigenvalues --   -0.52613  -0.41876  -0.37959  -0.35003  -0.30827
 Alpha virt. eigenvalues --   -0.29664  -0.28846  -0.26834  -0.26695  -0.25494
 Alpha virt. eigenvalues --   -0.24114  -0.22496  -0.21654  -0.21174  -0.20474

  Beta  occ. eigenvalues --  -89.37404 -89.35218 -10.69361 -10.66066  -8.45389
  Beta  occ. eigenvalues --   -8.43280  -6.41555  -6.41194  -6.40823  -6.39292
  Beta  occ. eigenvalues --   -6.39216  -6.38691  -1.28284  -1.22037  -1.10561
  Beta  occ. eigenvalues --   -1.00411  -0.91189  -0.87031  -0.85470  -0.83360
  Beta  occ. eigenvalues --   -0.78488  -0.74861
  Beta virt. eigenvalues --   -0.61226  -0.58852  -0.52170  -0.41135  -0.36285
  Beta virt. eigenvalues --   -0.34043  -0.30051  -0.29213  -0.27949  -0.26443
  Beta virt. eigenvalues --   -0.25812  -0.24838  -0.23305  -0.21923  -0.20508

 Mulliken charges and spin densities:
               1          2
     1  S    0.452247   0.975596
     2  S    0.420506   1.025199
     3  C   -0.093087   0.011198
     4  C    0.190395  -0.097259
     5  H    0.290715   0.045990
     6  H    0.242319  -0.016535
     7  H    0.233742   0.009323
     8  H    0.263163   0.046489
 Sum of Mulliken charges =   2.00000   2.00000

 Dipole moment (field-independent basis, Debye):
    X=              0.9894    Y=             -0.6459    Z=              0.0945  Tot=              1.1853
 Quadrupole moment (field-independent basis, Debye-Ang):
   XX=              1.5566   YY=            -26.1125   ZZ=            -28.4711
   XY=             -1.3118   XZ=             -0.7664   YZ=             -0.2857

  Exact polarizability:  78.098  -2.267  41.638   3.524   0.472  38.297
 Approx polarizability: 125.916  -5.179  67.236  13.112   1.418  63.485

                      1                      2                      3
                      A                      A                      A
 Frequencies --     79.1180                99.9795               259.6427
 Red. masses --      3.8461                 1.1972                 3.1483
 Frc consts  --      0.0142                 0.0071                 0.1250
 IR Inten    --      1.6136                32.1386                 1.0360

                      4                      5                      6
                      A                      A                      A
 Frequencies --    296.5437               613.7726               691.6433
 Red. masses --      6.0061                 3.5348                 1.5364
 Frc consts  --      0.3112                 0.7846                 0.4330
 IR Inten    --      1.7955                 2.2544                14.5073

                      7                      8                      9
                      A                      A                      A
 Frequencies --    823.8384               893.0615               961.1177
 Red. masses --      1.2729                 3.7491                 1.4887
 Frc consts  --      0.5090                 1.7617                 0.8102
 IR Inten    --     36.6565                 1.5579                 3.7406

                     10                     11                     12
                      A                      A                      A
 Frequencies --   1086.3718              1158.0079              1268.0960
 Red. masses --      2.1272                 1.2251                 1.1934
 Frc consts  --      1.4792                 0.9680                 1.1307
 IR Inten    --     13.9168                 0.3387                 2.5920

                     13                     14                     15
                      A                      A                      A
 Frequencies --   1328.9082              1378.4753              2548.0046
 Red. masses --      1.4714                 1.0950                 1.0396
 Frc consts  --      1.5310                 1.2259                 3.9768
 IR Inten    --      1.1875                39.4607                63.5138

                     16                     17                     18
                      A                      A                      A
 Frequencies --   2957.8885              3001.1072              3019.5652
 Red. masses --      1.0563                 1.1024                 1.0848
 Frc consts  --      5.4450                 5.8498                 5.8275
 IR Inten    --     74.5993                49.6209                83.5289

 - Thermochemistry -
 -------------------
 Temperature   298.150 Kelvin.  Pressure   1.00000 Atm.
 Atom     1 has atomic number 16 and mass  31.97207

 Molecular mass:    91.97544 amu.
 Principal axes and moments of inertia in atomic units:
                           1         2         3
     Eigenvalues --    71.598901122.534921142.90009
           X            0.99999  -0.00176  -0.00495
           Y            0.00161   0.99951  -0.03140
           Z            0.00501   0.03139   0.99949
 This molecule is an asymmetric top.
 Rotational symmetry number  1.
 Rotational temperatures (Kelvin)      1.20971     0.07716     0.07578
 Rotational constants (GHZ):          25.20627     1.60774     1.57909
 Zero-point vibrational energy     134371.4 (Joules/Mol)
                                   32.11553 (Kcal/Mol)
 Warning -- explicit consideration of   5 degrees of freedom as
           vibrations may cause significant error
 Vibrational temperatures:    113.83   143.85   373.57   426.66   883.08
          (Kelvin)            995.12  1185.32  1284.91  1382.83  1563.04
                             1666.11  1824.51  1912.00  1983.32  3666.01
                             4255.74  4317.92  4344.48

 Zero-point correction=                           0.051179 (Hartree/Particle)
 Thermal correction to Energy=                    0.056935
 Thermal correction to Enthalpy=                  0.057879
 Thermal correction to Gibbs Free Energy=         0.020099
 Sum of electronic and zero-point Energies=           -874.162217
 Sum of electronic and thermal Energies=              -874.156462
 Sum of electronic and thermal Enthalpies=            -874.155517
 Sum of electronic and thermal Free Energies=         -874.193298

                     E (Thermal)             CV                S
                      KCal/Mol        Cal/Mol-Kelvin    Cal/Mol-Kelvin
 Total                   35.727             17.633             79.516
 Electronic               0.000              0.000              2.183
 Translational            0.889              2.981             39.469
 Rotational               0.889              2.981             26.021
 Vibrational             33.950             11.671             11.843
 Vibration     1          0.600              1.963              3.913
 Vibration     2          0.604              1.949              3.455
 Vibration     3          0.668              1.746              1.664
 Vibration     4          0.690              1.680              1.436
 Vibration     5          0.973              1.003              0.427

 Normal termination of Gaussian 09 at Wed Aug  3 20:18:30 2016.
