 Gaussian 09, Revision E.01,
 Gaussian 09:  EM64L-G09RevE.01 30-Nov-2015

 ------------------------------
 #p b3lyp/6-311++G(3df,2p) freq
 ------------------------------

 ---------
 b3lyp opt
 ---------
 Symbolic Z-matrix:
 Charge =  2 Multiplicity = 1

                         Standard orientation:
 ---------------------------------------------------------------------
 Center     Atomic      Atomic             Coordinates (Angstroms)
 Number     Number       Type             X           Y           Z
 ---------------------------------------------------------------------
      1         16           0       -1.904876   -0.384101   -0.083214
      2         16           0        2.190229   -0.233923   -0.008961
      3          6           0       -0.518894    0.879255    0.035619
      4          6           0        0.803754    0.283988    0.015239
      5          1           0       -2.085361   -0.625640    1.243444
      6          1           0       -2.915568    0.524357   -0.163311
      7          1           0       -0.630869    1.521877   -0.848811
      8          1           0       -0.643010    1.488332    0.938332
 ---------------------------------------------------------------------

 SCF Done:  E(RB3LYP) =  -874.280683552     A.U. after   12 cycles

 The electronic state is 1-A.
 Alpha  occ. eigenvalues --  -89.36028 -89.34192 -10.70800 -10.66978  -8.44283
 Alpha  occ. eigenvalues --   -8.42441  -6.40486  -6.40328  -6.39901  -6.38445
 Alpha  occ. eigenvalues --   -6.38365  -6.38360  -1.29423  -1.25240  -1.15529
 Alpha  occ. eigenvalues --   -0.96187  -0.91286  -0.89614  -0.86680  -0.85757
 Alpha  occ. eigenvalues --   -0.78673  -0.76222  -0.75675
 Alpha virt. eigenvalues --   -0.51521  -0.49614  -0.42668  -0.40439  -0.35508
 Alpha virt. eigenvalues --   -0.31098  -0.30348  -0.28491  -0.27391  -0.25673
 Alpha virt. eigenvalues --   -0.24731  -0.23889  -0.22647  -0.21334  -0.20772

 Mulliken charges:
               1
     1  S    0.210932
     2  S    0.383013
     3  C    0.036576
     4  C    0.298396
     5  H    0.263717
     6  H    0.293677
     7  H    0.254488
     8  H    0.259202
 Sum of Mulliken charges =   2.00000

 Dipole moment (field-independent basis, Debye):
    X=             -2.7545    Y=              1.1784    Z=              0.9340  Tot=              3.1382
 Quadrupole moment (field-independent basis, Debye-Ang):
   XX=              9.3558   YY=            -26.7396   ZZ=            -29.1504
   XY=             -2.3786   XZ=             -1.9530   YZ=             -1.3213

  Exact polarizability:  78.003  -3.931  41.926  -0.841  -0.764  37.217
 Approx polarizability: 135.799 -16.820  71.577  -0.917  -1.676  60.715

                      1                      2                      3
                      A                      A                      A
 Frequencies --    143.6753               147.9218               343.4066
 Red. masses --      1.1758                 6.0900                 3.0773
 Frc consts  --      0.0143                 0.0785                 0.2138
 IR Inten    --     22.3940                 1.5586                 5.3251

                      4                      5                      6
                      A                      A                      A
 Frequencies --    424.9909               639.9201               740.4394
 Red. masses --     12.7277                 3.8321                 1.5225
 Frc consts  --      1.3544                 0.9246                 0.4918
 IR Inten    --      2.7625                 3.5360                 5.0790

                      7                      8                      9
                      A                      A                      A
 Frequencies --    771.0021               916.9785               955.1388
 Red. masses --      1.8943                 1.4668                 1.3952
 Frc consts  --      0.6635                 0.7267                 0.7499
 IR Inten    --      0.4193                 9.2413                 6.7438

                     10                     11                     12
                      A                      A                      A
 Frequencies --   1176.4665              1195.6098              1266.2818
 Red. masses --      1.0519                 1.0512                 1.2111
 Frc consts  --      0.8578                 0.8853                 1.1442
 IR Inten    --      3.6396                 2.9969                12.3565

                     13                     14                     15
                      A                      A                      A
 Frequencies --   1398.8664              1670.2589              2559.3442
 Red. masses --      1.0914                12.7927                 1.0364
 Frc consts  --      1.2583                21.0272                 3.9998
 IR Inten    --     28.7544                91.5206               150.3846

                     16                     17                     18
                      A                      A                      A
 Frequencies --   2568.8997              2993.1447              3053.4327
 Red. masses --      1.0412                 1.0584                 1.1045
 Frc consts  --      4.0482                 5.5868                 6.0675
 IR Inten    --     94.5871               103.6137                73.2808

 - Thermochemistry -
 -------------------
 Temperature   298.150 Kelvin.  Pressure   1.00000 Atm.
 Atom     1 has atomic number 16 and mass  31.97207

 Molecular mass:    91.97544 amu.
 Principal axes and moments of inertia in atomic units:
                           1         2         3
     Eigenvalues --    90.166051061.090071127.09934
           X            0.99993  -0.00881  -0.00742
           Y            0.00852   0.99925  -0.03778
           Z            0.00774   0.03772   0.99926
 This molecule is an asymmetric top.
 Rotational symmetry number  1.
 Rotational temperatures (Kelvin)      0.96060     0.08163     0.07685
 Rotational constants (GHZ):          20.01575     1.70084     1.60123
 Zero-point vibrational energy     137365.9 (Joules/Mol)
                                   32.83123 (Kcal/Mol)
 Warning -- explicit consideration of   4 degrees of freedom as
           vibrations may cause significant error
 Vibrational temperatures:    206.72   212.83   494.08   611.47   920.70
          (Kelvin)           1065.33  1109.30  1319.33  1374.23  1692.67
                             1720.21  1821.89  2012.65  2403.13  3682.32
                             3696.07  4306.46  4393.20

 Zero-point correction=                           0.052320 (Hartree/Particle)
 Thermal correction to Energy=                    0.057585
 Thermal correction to Enthalpy=                  0.058529
 Thermal correction to Gibbs Free Energy=         0.023160
 Sum of electronic and zero-point Energies=           -874.228364
 Sum of electronic and thermal Energies=              -874.223099
 Sum of electronic and thermal Enthalpies=            -874.222155
 Sum of electronic and thermal Free Energies=         -874.257523

                     E (Thermal)             CV                S
                      KCal/Mol        Cal/Mol-Kelvin    Cal/Mol-Kelvin
 Total                   36.135             16.833             74.439
 Electronic               0.000              0.000              0.000
 Translational            0.889              2.981             39.469
 Rotational               0.889              2.981             26.181
 Vibrational             34.358             10.871              8.790
 Vibration     1          0.616              1.909              2.754
 Vibration     2          0.617              1.905              2.699
 Vibration     3          0.722              1.589              1.196
 Vibration     4          0.787              1.416              0.875

 Normal termination of Gaussian 09 at Wed Aug  3 20:16:28 2016.
