 Gaussian 09, Revision E.01,
 Gaussian 09:  EM64L-G09RevE.01 30-Nov-2015

 ------------------------------
 #p b3lyp/6-311++G(3df,2p) freq
 ------------------------------

 ---------
 b3lyp opt
 ---------
 Symbolic Z-matrix:
 Charge =  2 Multiplicity = 3

                         Standard orientation:
 ---------------------------------------------------------------------
 Center     Atomic      Atomic             Coordinates (Angstroms)
 Number     Number       Type             X           Y           Z
 ---------------------------------------------------------------------
      1         16           0       -0.489893   -0.885133   -0.000000
      2          6           0        1.360167    1.361365    0.000000
      3          6           0       -0.000000    0.955884    0.000000
      4          1           0        0.308188   -1.333466    1.012175
      5          1           0        0.308188   -1.333466   -1.012175
      6          1           0       -0.469549    1.462780    0.881264
      7          1           0       -0.469549    1.462780   -0.881264
 ---------------------------------------------------------------------

 SCF Done:  E(UB3LYP) =  -475.774107871     A.U. after   14 cycles

 The electronic state is 3-A'.
 Alpha  occ. eigenvalues --  -89.40897 -10.85780 -10.74725  -8.49065  -6.45409
 Alpha  occ. eigenvalues --   -6.45053  -6.44719  -1.34426  -1.25380  -1.07058
 Alpha  occ. eigenvalues --   -0.96772  -0.93610  -0.91078  -0.90899  -0.83406
 Alpha  occ. eigenvalues --   -0.75719
 Alpha virt. eigenvalues --   -0.63831  -0.47711  -0.43997  -0.40588  -0.35229
 Alpha virt. eigenvalues --   -0.33100  -0.30460  -0.29181  -0.28618  -0.24800
 Alpha virt. eigenvalues --   -0.24202  -0.23872  -0.21718  -0.20709  -0.19098

  Beta  occ. eigenvalues --  -89.40749 -10.82369 -10.74508  -8.48928  -6.45062
  Beta  occ. eigenvalues --   -6.44966  -6.44530  -1.32192  -1.22921  -1.02524
  Beta  occ. eigenvalues --   -0.96488  -0.91700  -0.90746  -0.83059
  Beta virt. eigenvalues --   -0.68727  -0.59231  -0.58046  -0.45580  -0.43838
  Beta virt. eigenvalues --   -0.39765  -0.34690  -0.32731  -0.29858  -0.28564
  Beta virt. eigenvalues --   -0.28456  -0.24059  -0.23988  -0.23203  -0.20888

 Mulliken charges and spin densities:
               1          2
     1  S    0.332920   0.180397
     2  C    0.480764   1.768976
     3  C    0.046649   0.032418
     4  H    0.274454   0.004146
     5  H    0.274454   0.004146
     6  H    0.295379   0.004959
     7  H    0.295379   0.004959
 Sum of Mulliken charges =   2.00000   2.00000

 Dipole moment (field-independent basis, Debye):
    X=              2.2778    Y=              2.0657    Z=              0.0000  Tot=              3.0749
 Quadrupole moment (field-independent basis, Debye-Ang):
   XX=            -13.8958   YY=             -3.8618   ZZ=            -15.7415
   XY=              4.4973   XZ=             -0.0000   YZ=             -0.0000

  Exact polarizability:  37.330   9.379  46.025   0.000   0.000  28.834
 Approx polarizability:  66.128  17.479  69.629   0.000   0.000  46.401

                      1                      2                      3
                     A"                     A"                     A'
 Frequencies --    129.0185               315.9804               354.5842
 Red. masses --      1.4378                 1.2501                 6.6513
 Frc consts  --      0.0141                 0.0735                 0.4927
 IR Inten    --     10.0336                58.7943                 0.3333

                      4                      5                      6
                     A'                     A"                     A'
 Frequencies --    509.3074               764.4500               822.0674
 Red. masses --      5.6343                 1.0115                 1.1953
 Frc consts  --      0.8611                 0.3483                 0.4759
 IR Inten    --     26.6093                 7.8306                36.4675

                      7                      8                      9
                     A'                     A"                     A'
 Frequencies --    956.7449              1041.2937              1142.3135
 Red. masses --      4.9197                 1.1041                 1.1115
 Frc consts  --      2.6532                 0.7053                 0.8546
 IR Inten    --     26.5623                 2.9884                 2.8261

                     10                     11                     12
                     A'                     A'                     A'
 Frequencies --   1169.5528              1207.2524              2532.3529
 Red. masses --      1.0636                 1.1742                 1.0350
 Frc consts  --      0.8572                 1.0083                 3.9106
 IR Inten    --     50.1609                 5.8507               129.1684

                     13                     14                     15
                     A"                     A"                     A'
 Frequencies --   2542.7352              2808.2721              2816.1024
 Red. masses --      1.0434                 1.0878                 1.0587
 Frc consts  --      3.9748                 5.0546                 4.9466
 IR Inten    --    128.6839               216.5779               228.5119

 - Thermochemistry -
 -------------------
 Temperature   298.150 Kelvin.  Pressure   1.00000 Atm.
 Atom     1 has atomic number 16 and mass  31.97207

 Molecular mass:    60.00337 amu.
 Principal axes and moments of inertia in atomic units:
                           1         2         3
     Eigenvalues --    48.86889 322.22896 345.16880
           X            0.51691   0.85604   0.00000
           Y            0.85604  -0.51691   0.00000
           Z           -0.00000  -0.00000   1.00000
 This molecule is an asymmetric top.
 Rotational symmetry number  1.
 Rotational temperatures (Kelvin)      1.77237     0.26880     0.25093
 Rotational constants (GHZ):          36.93027     5.60080     5.22858
 Zero-point vibrational energy     114315.3 (Joules/Mol)
                                   27.32202 (Kcal/Mol)
 Warning -- explicit consideration of   4 degrees of freedom as
           vibrations may cause significant error
 Vibrational temperatures:    185.63   454.62   510.17   732.78  1099.87
          (Kelvin)           1182.77  1376.54  1498.19  1643.53  1682.72
                             1736.96  3643.49  3658.42  4040.47  4051.74

 Zero-point correction=                           0.043540 (Hartree/Particle)
 Thermal correction to Energy=                    0.048321
 Thermal correction to Enthalpy=                  0.049265
 Thermal correction to Gibbs Free Energy=         0.015805
 Sum of electronic and zero-point Energies=           -475.730567
 Sum of electronic and thermal Energies=              -475.725787
 Sum of electronic and thermal Enthalpies=            -475.724843
 Sum of electronic and thermal Free Energies=         -475.758303

                     E (Thermal)             CV                S
                      KCal/Mol        Cal/Mol-Kelvin    Cal/Mol-Kelvin
 Total                   30.322             15.087             70.422
 Electronic               0.000              0.000              2.183
 Translational            0.889              2.981             38.196
 Rotational               0.889              2.981             23.212
 Vibrational             28.544              9.125              6.831
 Vibration     1          0.612              1.924              2.961
 Vibration     2          0.703              1.643              1.331
 Vibration     3          0.730              1.566              1.146
 Vibration     4          0.864              1.229              0.635

 Normal termination of Gaussian 09 at Wed Aug  3 22:55:56 2016.
