 Gaussian 09, Revision E.01,
 Gaussian 09:  EM64L-G09RevE.01 30-Nov-2015

 ------------------------------
 #p b3lyp/6-311++G(3df,2p) freq
 ------------------------------

 ---------
 b3lyp opt
 ---------
 Symbolic Z-matrix:
 Charge =  1 Multiplicity = 2

                         Standard orientation:
 ---------------------------------------------------------------------
 Center     Atomic      Atomic             Coordinates (Angstroms)
 Number     Number       Type             X           Y           Z
 ---------------------------------------------------------------------
      1         16           0        0.387474   -0.879734   -0.000000
      2          6           0       -1.236707    1.287350    0.000000
      3          6           0       -0.000000    0.930082    0.000000
      4          1           0        1.314208   -0.920803    0.986319
      5          1           0        1.314208   -0.920803   -0.986319
      6          1           0       -2.284255    1.046990    0.000000
      7          1           0        0.876497    1.565770   -0.000000
 ---------------------------------------------------------------------

 SCF Done:  E(UB3LYP) =  -476.456839800     A.U. after   14 cycles

 The electronic state is 2-A'.
 Alpha  occ. eigenvalues --  -89.17345 -10.44108 -10.43626  -8.25690  -6.21877
 Alpha  occ. eigenvalues --   -6.21781  -6.21337  -1.08261  -0.98552  -0.80071
 Alpha  occ. eigenvalues --   -0.72437  -0.71250  -0.69703  -0.59984  -0.52874
 Alpha  occ. eigenvalues --   -0.46406
 Alpha virt. eigenvalues --   -0.25260  -0.23833  -0.21582  -0.19689  -0.13279
 Alpha virt. eigenvalues --   -0.11647  -0.11350  -0.10663  -0.09837  -0.07609
 Alpha virt. eigenvalues --   -0.06658  -0.06557  -0.04708  -0.03595  -0.02880

  Beta  occ. eigenvalues --  -89.17214 -10.44255 -10.42109  -8.25557  -6.21690
  Beta  occ. eigenvalues --   -6.21593  -6.21194  -1.07487  -0.96580  -0.78395
  Beta  occ. eigenvalues --   -0.72294  -0.70016  -0.68781  -0.59380  -0.52198
  Beta virt. eigenvalues --   -0.31866  -0.24345  -0.23297  -0.21190  -0.18617
  Beta virt. eigenvalues --   -0.12986  -0.11461  -0.11306  -0.10481  -0.09552
  Beta virt. eigenvalues --   -0.07457  -0.06540  -0.06143  -0.04613  -0.03458

 Mulliken charges and spin densities:
               1          2
     1  S    0.111882   0.138017
     2  C    0.070073   0.972768
     3  C   -0.164410  -0.138792
     4  H    0.227071   0.000854
     5  H    0.227071   0.000854
     6  H    0.301596  -0.004762
     7  H    0.226718   0.031061
 Sum of Mulliken charges =   1.00000   1.00000

 Dipole moment (field-independent basis, Debye):
    X=              1.3515    Y=             -0.8763    Z=              0.0000  Tot=              1.6107
 Quadrupole moment (field-independent basis, Debye-Ang):
   XX=            -13.7668   YY=            -18.5074   ZZ=            -22.1304
   XY=             -4.4454   XZ=              0.0000   YZ=              0.0000

  Exact polarizability:  46.419 -11.836  45.662  -0.000   0.000  30.392
 Approx polarizability:  75.602 -19.548  67.725  -0.000   0.000  47.328

                      1                      2                      3
                     A"                     A'                     A'
 Frequencies --    154.5946               276.2659               513.5934
 Red. masses --      1.1815                 2.4881                 5.5895
 Frc consts  --      0.0166                 0.1119                 0.8687
 IR Inten    --     21.1495                19.1712                 2.5487

                      4                      5                      6
                     A'                     A"                     A'
 Frequencies --    615.3806               644.3456               802.4691
 Red. masses --      1.5865                 1.2991                 1.1906
 Frc consts  --      0.3540                 0.3178                 0.4517
 IR Inten    --     73.7009                 0.6188                 9.9570

                      7                      8                      9
                     A"                     A"                     A'
 Frequencies --    836.6077               853.9003              1186.7815
 Red. masses --      1.2604                 1.1410                 1.0720
 Frc consts  --      0.5198                 0.4902                 0.8896
 IR Inten    --      1.0826                80.6225                 5.0932

                     10                     11                     12
                     A'                     A'                     A'
 Frequencies --   1204.2002              1636.0827              2601.8001
 Red. masses --      1.0405                 5.7124                 1.0350
 Frc consts  --      0.8890                 9.0091                 4.1280
 IR Inten    --      5.7366                 6.7785                48.2918

                     13                     14                     15
                     A"                     A'                     A'
 Frequencies --   2608.9272              3172.8257              3304.9660
 Red. masses --      1.0416                 1.0929                 1.1176
 Frc consts  --      4.1771                 6.4822                 7.1925
 IR Inten    --     46.2149                36.8502                64.2584

 - Thermochemistry -
 -------------------
 Temperature   298.150 Kelvin.  Pressure   1.00000 Atm.
 Atom     1 has atomic number 16 and mass  31.97207

 Molecular mass:    60.00337 amu.
 Principal axes and moments of inertia in atomic units:
                           1         2         3
     Eigenvalues --    43.56890 302.29638 331.86046
           X           -0.55607   0.83113   0.00000
           Y            0.83113   0.55607  -0.00000
           Z            0.00000  -0.00000   1.00000
 This molecule is an asymmetric top.
 Rotational symmetry number  1.
 Rotational temperatures (Kelvin)      1.98797     0.28652     0.26099
 Rotational constants (GHZ):          41.42269     5.97011     5.43825
 Zero-point vibrational energy     122095.3 (Joules/Mol)
                                   29.18148 (Kcal/Mol)
 Warning -- explicit consideration of   4 degrees of freedom as
           vibrations may cause significant error
 Vibrational temperatures:    222.43   397.48   738.95   885.39   927.07
          (Kelvin)           1154.57  1203.69  1228.57  1707.51  1732.57
                             2353.96  3743.41  3753.66  4564.98  4755.10

 Zero-point correction=                           0.046504 (Hartree/Particle)
 Thermal correction to Energy=                    0.051173
 Thermal correction to Enthalpy=                  0.052117
 Thermal correction to Gibbs Free Energy=         0.019422
 Sum of electronic and zero-point Energies=           -476.410336
 Sum of electronic and thermal Energies=              -476.405667
 Sum of electronic and thermal Enthalpies=            -476.404723
 Sum of electronic and thermal Free Energies=         -476.437418

                     E (Thermal)             CV                S
                      KCal/Mol        Cal/Mol-Kelvin    Cal/Mol-Kelvin
 Total                   32.111             15.004             68.812
 Electronic               0.000              0.000              1.377
 Translational            0.889              2.981             38.196
 Rotational               0.889              2.981             22.996
 Vibrational             30.334              9.043              6.243
 Vibration     1          0.620              1.898              2.615
 Vibration     2          0.678              1.717              1.557
 Vibration     3          0.869              1.220              0.625
 Vibration     4          0.975              0.999              0.424

 Optimization completed.
    -- Stationary point found.
 Normal termination of Gaussian 09 at Wed Aug  3 22:53:21 2016.
