 Gaussian 09, Revision E.01,
 Gaussian 09:  EM64L-G09RevE.01 30-Nov-2015

 ------------------------------
 #p b3lyp/6-311++G(3df,2p) freq
 ------------------------------

 ---------
 b3lyp opt
 ---------
 Symbolic Z-matrix:
 Charge =  0 Multiplicity = 3

                         Standard orientation:
 ---------------------------------------------------------------------
 Center     Atomic      Atomic             Coordinates (Angstroms)
 Number     Number       Type             X           Y           Z
 ---------------------------------------------------------------------
      1         16           0        0.618272   -0.859375   -0.000000
      2          6           0       -0.000000    0.769038   -0.000000
      3          6           0       -1.426313    0.994456    0.000000
      4          1           0       -1.991366    1.074793    0.923734
      5          1           0       -1.991366    1.074793   -0.923734
      6          1           0        1.927275   -0.556692   -0.000000
      7          1           0        0.720973    1.576134   -0.000000
 ---------------------------------------------------------------------

 SCF Done:  E(UB3LYP) =  -476.751607267     A.U. after   13 cycles

 The electronic state is 3-A".
 Alpha  occ. eigenvalues --  -88.86887 -10.20498 -10.19701  -7.95417  -5.91727
 Alpha  occ. eigenvalues --   -5.91353  -5.91105  -0.81907  -0.72197  -0.58819
 Alpha  occ. eigenvalues --   -0.48028  -0.45072  -0.42326  -0.36014  -0.31742
 Alpha  occ. eigenvalues --   -0.23228  -0.17937
 Alpha virt. eigenvalues --   -0.01818   0.00678   0.01114   0.02923   0.02970
 Alpha virt. eigenvalues --    0.05341   0.06515   0.06748   0.08537   0.09611
 Alpha virt. eigenvalues --    0.10517   0.11189   0.11376   0.12191   0.13693

  Beta  occ. eigenvalues --  -88.86732 -10.19330 -10.18409  -7.95266  -5.91610
  Beta  occ. eigenvalues --   -5.91235  -5.90696  -0.79534  -0.69173  -0.55816
  Beta  occ. eigenvalues --   -0.46744  -0.42882  -0.40827  -0.34955  -0.28605
  Beta virt. eigenvalues --   -0.08977  -0.06116  -0.01433   0.01062   0.01580
  Beta virt. eigenvalues --    0.03030   0.03292   0.05426   0.06577   0.06912
  Beta virt. eigenvalues --    0.08843   0.10342   0.10780   0.11361   0.12183

 Mulliken charges and spin densities:
               1          2
     1  S   -0.218020   0.240529
     2  C   -0.058113   0.748822
     3  C   -0.294007   0.962320
     4  H    0.137867   0.013990
     5  H    0.137867   0.013990
     6  H    0.138587   0.009022
     7  H    0.155820   0.011327
 Sum of Mulliken charges =  -0.00000   2.00000

 Dipole moment (field-independent basis, Debye):
    X=              0.4988    Y=              0.7640    Z=              0.0000  Tot=              0.9124
 Quadrupole moment (field-independent basis, Debye-Ang):
   XX=            -23.0052   YY=            -27.5393   ZZ=            -28.3477
   XY=             -0.3251   XZ=             -0.0000   YZ=              0.0000

  Exact polarizability:  55.361 -10.595  53.035  -0.000  -0.000  39.848
 Approx polarizability:  77.690 -12.140  76.325  -0.000   0.000  56.447

                      1                      2                      3
                     A"                     A"                     A'
 Frequencies --    138.1035               199.1772               305.2324
 Red. masses --      1.4156                 1.1138                 2.9039
 Frc consts  --      0.0159                 0.0260                 0.1594
 IR Inten    --     19.8608                20.0908                 3.6358

                      4                      5                      6
                     A"                     A'                     A'
 Frequencies --    525.4964               543.5268               759.5906
 Red. masses --      1.0110                 1.5543                 4.0419
 Frc consts  --      0.1645                 0.2705                 1.3740
 IR Inten    --      3.1841                34.4675                14.4525

                      7                      8                      9
                     A'                     A"                     A'
 Frequencies --    932.7992               968.6077              1131.1958
 Red. masses --      1.2606                 1.2896                 1.6460
 Frc consts  --      0.6462                 0.7128                 1.2410
 IR Inten    --      5.6382                 0.5687                 0.6175

                     10                     11                     12
                     A'                     A'                     A'
 Frequencies --   1246.5824              1451.5281              2663.4950
 Red. masses --      1.8905                 1.1487                 1.0384
 Frc consts  --      1.7309                 1.4260                 4.3403
 IR Inten    --     17.6227                 1.4816                 2.2363

                     13                     14                     15
                     A'                     A'                     A"
 Frequencies --   3076.1717              3152.2155              3153.6305
 Red. masses --      1.0474                 1.0855                 1.1165
 Frc consts  --      5.8397                 6.3551                 6.5426
 IR Inten    --     25.0824                 1.6561                10.4949

 - Thermochemistry -
 -------------------
 Temperature   298.150 Kelvin.  Pressure   1.00000 Atm.
 Atom     1 has atomic number 16 and mass  31.97207

 Molecular mass:    60.00337 amu.
 Principal axes and moments of inertia in atomic units:
                           1         2         3
     Eigenvalues --    41.90999 314.71293 344.33900
           X            0.71313   0.70103   0.00000
           Y           -0.70103   0.71313   0.00000
           Z           -0.00000   0.00000   1.00000
 This molecule is an asymmetric top.
 Rotational symmetry number  1.
 Rotational temperatures (Kelvin)      2.06666     0.27522     0.25154
 Rotational constants (GHZ):          43.06231     5.73456     5.24118
 Zero-point vibrational energy     121106.1 (Joules/Mol)
                                   28.94504 (Kcal/Mol)
 Warning -- explicit consideration of   5 degrees of freedom as
           vibrations may cause significant error
 Vibrational temperatures:    198.70   286.57   439.16   756.07   782.01
          (Kelvin)           1092.88  1342.09  1393.61  1627.54  1793.55
                             2088.42  3832.17  4425.92  4535.33  4537.37

 Zero-point correction=                           0.046127 (Hartree/Particle)
 Thermal correction to Energy=                    0.051221
 Thermal correction to Enthalpy=                  0.052165
 Thermal correction to Gibbs Free Energy=         0.018193
 Sum of electronic and zero-point Energies=           -476.705480
 Sum of electronic and thermal Energies=              -476.700386
 Sum of electronic and thermal Enthalpies=            -476.699442
 Sum of electronic and thermal Free Energies=         -476.733414

                     E (Thermal)             CV                S
                      KCal/Mol        Cal/Mol-Kelvin    Cal/Mol-Kelvin
 Total                   32.142             15.839             71.501
 Electronic               0.000              0.000              2.183
 Translational            0.889              2.981             38.196
 Rotational               0.889              2.981             23.034
 Vibrational             30.364              9.877              8.089
 Vibration     1          0.614              1.915              2.830
 Vibration     2          0.637              1.841              2.141
 Vibration     3          0.696              1.664              1.388
 Vibration     4          0.880              1.194              0.597
 Vibration     5          0.899              1.154              0.558

 Optimization completed.
    -- Stationary point found.
 Normal termination of Gaussian 09 at Wed Aug  3 22:49:24 2016.
