 Gaussian 09, Revision E.01,
 Gaussian 09:  EM64L-G09RevE.01 30-Nov-2015

 ------------------------------
 #p b3lyp/6-311++G(3df,2p) freq
 ------------------------------

 ---------
 b3lyp opt
 ---------
 Symbolic Z-matrix:
 Charge =  2 Multiplicity = 3

                         Standard orientation:
 ---------------------------------------------------------------------
 Center     Atomic      Atomic             Coordinates (Angstroms)
 Number     Number       Type             X           Y           Z
 ---------------------------------------------------------------------
      1         16           0        0.980469   -0.118828   -0.104372
      2          6           0       -1.846692   -0.214763    0.007925
      3          6           0       -0.691111    0.536279    0.032094
      4          1           0        0.928006   -1.213404    0.716684
      5          1           0        1.642723    0.760501    0.713816
      6          1           0       -2.300027   -1.208642   -0.012789
      7          1           0       -0.731395    1.633700    0.012131
 ---------------------------------------------------------------------

 SCF Done:  E(UB3LYP) =  -475.855335433     A.U. after   14 cycles

 The electronic state is 3-A.
 Alpha  occ. eigenvalues --  -89.43623 -10.77736 -10.76318  -8.51802  -6.48048
 Alpha  occ. eigenvalues --   -6.47788  -6.47577  -1.35632  -1.26042  -1.08301
 Alpha  occ. eigenvalues --   -0.98427  -0.97797  -0.93048  -0.88699  -0.80691
 Alpha  occ. eigenvalues --   -0.74704
 Alpha virt. eigenvalues --   -0.55053  -0.47836  -0.46032  -0.41256  -0.33723
 Alpha virt. eigenvalues --   -0.32403  -0.30950  -0.28563  -0.27369  -0.26532
 Alpha virt. eigenvalues --   -0.25304  -0.24140  -0.20859  -0.20765  -0.19846

  Beta  occ. eigenvalues --  -89.43455 -10.77062 -10.74032  -8.51637  -6.47784
  Beta  occ. eigenvalues --   -6.47690  -6.47261  -1.33469  -1.21914  -1.05468
  Beta  occ. eigenvalues --   -0.97268  -0.96174  -0.91764  -0.85535
  Beta virt. eigenvalues --   -0.68347  -0.57427  -0.48867  -0.46647  -0.44491
  Beta virt. eigenvalues --   -0.39921  -0.32386  -0.31957  -0.30136  -0.27999
  Beta virt. eigenvalues --   -0.26833  -0.26025  -0.24425  -0.23437  -0.19986

 Mulliken charges and spin densities:
               1          2
     1  S    0.286117   0.191622
     2  C    0.290226   1.332493
     3  C    0.154386   0.428447
     4  H    0.298594   0.015008
     5  H    0.310506   0.022101
     6  H    0.366478  -0.005491
     7  H    0.293693   0.015819
 Sum of Mulliken charges =   2.00000   2.00000

 Dipole moment (field-independent basis, Debye):
    X=             -1.0520    Y=             -0.3930    Z=              1.3492  Tot=              1.7554
 Quadrupole moment (field-independent basis, Debye-Ang):
   XX=              0.0789   YY=            -12.3894   ZZ=            -19.8547
   XY=              2.4908   XZ=              2.2129   YZ=             -0.3942

  Exact polarizability:  54.631   1.575  31.663   0.853  -0.065  23.883
 Approx polarizability:  85.967   1.142  48.913  -0.679   0.302  37.086

                      1                      2                      3
                      A                      A                      A
 Frequencies --    227.7240               321.2151               542.6415
 Red. masses --      1.2263                 2.6615                 2.4311
 Frc consts  --      0.0375                 0.1618                 0.4218
 IR Inten    --     20.7571                21.5919                74.9801

                      4                      5                      6
                      A                      A                      A
 Frequencies --    658.8073               686.0735               782.1757
 Red. masses --      1.3049                 1.4944                 1.1850
 Frc consts  --      0.3337                 0.4144                 0.4271
 IR Inten    --     80.8466                 4.4468                28.6118

                      7                      8                      9
                      A                      A                      A
 Frequencies --    825.6627               868.3140              1146.3102
 Red. masses --      1.4593                 1.2947                 1.0565
 Frc consts  --      0.5862                 0.5752                 0.8180
 IR Inten    --     24.6392                 7.8576                18.1057

                     10                     11                     12
                      A                      A                      A
 Frequencies --   1239.3821              1373.4497              2470.3048
 Red. masses --      1.1307                 5.0231                 1.0348
 Frc consts  --      1.0233                 5.5827                 3.7207
 IR Inten    --      1.2512                18.8807               242.8060

                     13                     14                     15
                      A                      A                      A
 Frequencies --   2497.4165              3040.0523              3133.5022
 Red. masses --      1.0445                 1.0895                 1.1070
 Frc consts  --      3.8382                 5.9323                 6.4039
 IR Inten    --    179.5782               146.2463               190.4254

 - Thermochemistry -
 -------------------
 Temperature   298.150 Kelvin.  Pressure   1.00000 Atm.
 Atom     1 has atomic number 16 and mass  31.97207

 Molecular mass:    60.00337 amu.
 Principal axes and moments of inertia in atomic units:
                           1         2         3
     Eigenvalues --    42.73639 315.09593 348.45165
           X            0.99952   0.02283   0.02085
           Y           -0.02226   0.99938  -0.02712
           Z           -0.02146   0.02664   0.99941
 This molecule is an asymmetric top.
 Rotational symmetry number  1.
 Rotational temperatures (Kelvin)      2.02670     0.27488     0.24857
 Rotational constants (GHZ):          42.22961     5.72759     5.17932
 Zero-point vibrational energy     118508.2 (Joules/Mol)
                                   28.32415 (Kcal/Mol)
 Warning -- explicit consideration of   3 degrees of freedom as
           vibrations may cause significant error
 Vibrational temperatures:    327.64   462.16   780.74   947.88   987.11
          (Kelvin)           1125.37  1187.94  1249.31  1649.28  1783.19
                             1976.09  3554.21  3593.22  4373.95  4508.41

 Zero-point correction=                           0.045137 (Hartree/Particle)
 Thermal correction to Energy=                    0.049585
 Thermal correction to Enthalpy=                  0.050530
 Thermal correction to Gibbs Free Energy=         0.017953
 Sum of electronic and zero-point Energies=           -475.810198
 Sum of electronic and thermal Energies=              -475.805750
 Sum of electronic and thermal Enthalpies=            -475.804806
 Sum of electronic and thermal Free Energies=         -475.837382

                     E (Thermal)             CV                S
                      KCal/Mol        Cal/Mol-Kelvin    Cal/Mol-Kelvin
 Total                   31.115             14.693             68.562
 Electronic               0.000              0.000              2.183
 Translational            0.889              2.981             38.196
 Rotational               0.889              2.981             23.066
 Vibrational             29.338              8.731              5.117
 Vibration     1          0.651              1.799              1.897
 Vibration     2          0.707              1.633              1.304
 Vibration     3          0.898              1.156              0.560

 Optimization completed.
    -- Stationary point found.
 Normal termination of Gaussian 09 at Wed Aug  3 20:31:48 2016.
