 Gaussian 09, Revision E.01,
 Gaussian 09:  EM64L-G09RevE.01 30-Nov-2015

 ------------------------------
 #p b3lyp/6-311++G(3df,2p) freq
 ------------------------------

 ---------
 b3lyp opt
 ---------
 Symbolic Z-matrix:
 Charge =  0 Multiplicity = 3

                         Standard orientation:
 ---------------------------------------------------------------------
 Center     Atomic      Atomic             Coordinates (Angstroms)
 Number     Number       Type             X           Y           Z
 ---------------------------------------------------------------------
      1         16           0        0.023021   -0.342486    0.009066
      2          6           0       -1.530532    0.441426    0.049241
      3          6           0        1.443932    0.489301   -0.135090
      4          1           0       -0.202994   -1.356553    0.927907
      5          1           0        0.002748   -1.177997   -1.058756
      6          1           0       -1.348500    1.463791   -0.314573
      7          1           0        1.700018    0.966181    0.815452
 ---------------------------------------------------------------------

 SCF Done:  E(UB3LYP) =  -476.532661884     A.U. after   17 cycles

 The electronic state is 3-A.
 Alpha  occ. eigenvalues --  -89.00018 -10.20945 -10.19643  -8.07390  -6.03601
 Alpha  occ. eigenvalues --   -6.03445  -6.03334  -0.91098  -0.70572  -0.64156
 Alpha  occ. eigenvalues --   -0.53663  -0.46047  -0.44375  -0.30870  -0.26697
 Alpha  occ. eigenvalues --   -0.25016  -0.23625
 Alpha virt. eigenvalues --   -0.04110  -0.02491  -0.00603   0.00988   0.02541
 Alpha virt. eigenvalues --    0.04684   0.05508   0.05771   0.07200   0.07580
 Alpha virt. eigenvalues --    0.08071   0.08827   0.10209   0.11647   0.12011

  Beta  occ. eigenvalues --  -89.00086 -10.19371 -10.18563  -8.07427  -6.03648
  Beta  occ. eigenvalues --   -6.03516  -6.03389  -0.89868  -0.66864  -0.61680
  Beta  occ. eigenvalues --   -0.52891  -0.44694  -0.42990  -0.26595  -0.24005
  Beta virt. eigenvalues --   -0.12372  -0.11716  -0.03698  -0.01345  -0.00104
  Beta virt. eigenvalues --    0.02251   0.02965   0.04839   0.05914   0.06522
  Beta virt. eigenvalues --    0.07626   0.07879   0.08431   0.09860   0.11269

 Mulliken charges and spin densities:
               1          2
     1  S    0.244351   0.053054
     2  C   -0.392215   1.135720
     3  C   -0.458129   0.770928
     4  H    0.103247   0.024537
     5  H    0.150577   0.071014
     6  H    0.177001  -0.034393
     7  H    0.175168  -0.020860
 Sum of Mulliken charges =  -0.00000   2.00000

 Dipole moment (field-independent basis, Debye):
    X=              0.3453    Y=             -1.9567    Z=              0.6671  Tot=              2.0959
 Quadrupole moment (field-independent basis, Debye-Ang):
   XX=            -36.6869   YY=            -24.8514   ZZ=            -26.8161
   XY=             -1.2284   XZ=              3.4431   YZ=              1.3432

  Exact polarizability:  89.496   3.761  53.110  -5.221  -3.023  44.211
 Approx polarizability: 162.572  12.160  85.023 -15.187  -7.576  67.009

                      1                      2                      3
                      A                      A                      A
 Frequencies --    238.7383               279.2412               426.5386
 Red. masses --      3.4748                 1.2710                 1.2537
 Frc consts  --      0.1167                 0.0584                 0.1344
 IR Inten    --      4.4196                52.8871                66.1684

                      4                      5                      6
                      A                      A                      A
 Frequencies --    634.3548               649.3166               689.0130
 Red. masses --      6.3558                 1.2486                 3.3830
 Frc consts  --      1.5069                 0.3102                 0.9462
 IR Inten    --     26.3631                56.7703                24.3850

                      7                      8                      9
                      A                      A                      A
 Frequencies --    778.2048               862.1946              1055.0839
 Red. masses --      1.1726                 1.1458                 1.3544
 Frc consts  --      0.4184                 0.5018                 0.8883
 IR Inten    --     35.1369                62.7061                 2.4319

                     10                     11                     12
                      A                      A                      A
 Frequencies --   1086.4610              1257.9931              2249.8766
 Red. masses --      1.1335                 1.0394                 1.0396
 Frc consts  --      0.7883                 0.9691                 3.1006
 IR Inten    --     46.7491                18.3661               134.3216

                     13                     14                     15
                      A                      A                      A
 Frequencies --   2498.3530              3020.3633              3084.9260
 Red. masses --      1.0372                 1.0827                 1.0845
 Frc consts  --      3.8144                 5.8192                 6.0808
 IR Inten    --      9.8847                 4.6327                 2.9345

 - Thermochemistry -
 -------------------
 Temperature   298.150 Kelvin.  Pressure   1.00000 Atm.
 Atom     1 has atomic number 16 and mass  31.97207

 Molecular mass:    60.00337 amu.
 Principal axes and moments of inertia in atomic units:
                           1         2         3
     Eigenvalues --    65.29132 217.62503 261.76837
           X            0.99957  -0.00234   0.02919
           Y            0.00160   0.99968   0.02515
           Z           -0.02924  -0.02509   0.99926
 This molecule is an asymmetric top.
 Rotational symmetry number  1.
 Rotational temperatures (Kelvin)      1.32657     0.39800     0.33088
 Rotational constants (GHZ):          27.64136     8.29289     6.89442
 Zero-point vibrational energy     112512.7 (Joules/Mol)
                                   26.89119 (Kcal/Mol)
 Warning -- explicit consideration of   3 degrees of freedom as
           vibrations may cause significant error
 Vibrational temperatures:    343.49   401.77   613.69   912.69   934.22
          (Kelvin)            991.33  1119.66  1240.50  1518.03  1563.17
                             1809.97  3237.07  3594.57  4345.62  4438.51

 Zero-point correction=                           0.042854 (Hartree/Particle)
 Thermal correction to Energy=                    0.047531
 Thermal correction to Enthalpy=                  0.048475
 Thermal correction to Gibbs Free Energy=         0.015652
 Sum of electronic and zero-point Energies=           -476.489808
 Sum of electronic and thermal Energies=              -476.485131
 Sum of electronic and thermal Enthalpies=            -476.484187
 Sum of electronic and thermal Free Energies=         -476.517010

                     E (Thermal)             CV                S
                      KCal/Mol        Cal/Mol-Kelvin    Cal/Mol-Kelvin
 Total                   29.826             15.637             69.082
 Electronic               0.000              0.000              2.183
 Translational            0.889              2.981             38.196
 Rotational               0.889              2.981             22.835
 Vibrational             28.049              9.675              5.868
 Vibration     1          0.657              1.781              1.812
 Vibration     2          0.680              1.712              1.538
 Vibration     3          0.788              1.412              0.870

 Optimization completed.
    -- Stationary point found.
 Normal termination of Gaussian 09 at Wed Aug  3 20:23:29 2016.
