 Gaussian 09, Revision E.01,
 Gaussian 09:  EM64L-G09RevE.01 30-Nov-2015

 ------------------------------
 #p b3lyp/6-311++G(3df,2p) freq
 ------------------------------

 ---------
 b3lyp opt
 ---------
 Symbolic Z-matrix:
 Charge =  0 Multiplicity = 1

                         Standard orientation:
 ---------------------------------------------------------------------
 Center     Atomic      Atomic             Coordinates (Angstroms)
 Number     Number       Type             X           Y           Z
 ---------------------------------------------------------------------
      1         16           0        1.050974   -0.182174   -0.010038
      2          6           0       -0.579851    0.492387   -0.007188
      3          6           0       -1.682721   -0.247188    0.010732
      4          1           0       -1.658027   -1.328278    0.049680
      5          1           0       -2.655176    0.223365   -0.017516
      6          1           0        1.704623    0.976406    0.152251
      7          1           0       -0.631583    1.572097   -0.045075
 ---------------------------------------------------------------------

 SCF Done:  E(RB3LYP) =  -476.845728467     A.U. after   11 cycles

 The electronic state is 1-A.
 Alpha  occ. eigenvalues --  -88.86190 -10.21147 -10.17182  -7.94810  -5.91148
 Alpha  occ. eigenvalues --   -5.90803  -5.90301  -0.81680  -0.71967  -0.57183
 Alpha  occ. eigenvalues --   -0.49541  -0.43311  -0.40010  -0.34391  -0.33312
 Alpha  occ. eigenvalues --   -0.23452
 Alpha virt. eigenvalues --   -0.02023  -0.01425   0.00896   0.01259   0.02045
 Alpha virt. eigenvalues --    0.04677   0.05490   0.06172   0.07357   0.08753
 Alpha virt. eigenvalues --    0.09714   0.10156   0.11098   0.11602   0.13458

 Mulliken charges:
               1
     1  S   -0.320272
     2  C    0.054417
     3  C   -0.338410
     4  H    0.161990
     5  H    0.135703
     6  H    0.140787
     7  H    0.165784
 Sum of Mulliken charges =  -0.00000

 Dipole moment (field-independent basis, Debye):
    X=             -0.2333    Y=              1.0718    Z=              0.0808  Tot=              1.0999
 Quadrupole moment (field-independent basis, Debye-Ang):
   XX=            -24.3733   YY=            -23.9487   ZZ=            -29.8285
   XY=              1.6256   XZ=              0.3362   YZ=              0.2038

  Exact polarizability:  67.623   3.348  42.408  -0.031  -0.170  37.051
 Approx polarizability: 102.194   8.902  66.349  -0.063   0.151  53.423

                      1                      2                      3
                      A                      A                      A
 Frequencies --     52.8280               362.0829               604.5290
 Red. masses --      1.0708                 2.8849                 1.4798
 Frc consts  --      0.0018                 0.2228                 0.3186
 IR Inten    --     10.5331                 0.1210                23.3969

                      4                      5                      6
                      A                      A                      A
 Frequencies --    705.3879               911.2142               933.1186
 Red. masses --      4.0755                 1.3777                 1.0694
 Frc consts  --      1.1948                 0.6740                 0.5486
 IR Inten    --     16.7766                41.1097                 2.7422

                      7                      8                      9
                      A                      A                      A
 Frequencies --    986.7968              1073.8230              1302.0446
 Red. masses --      1.0823                 1.3662                 1.2493
 Frc consts  --      0.6210                 0.9282                 1.2478
 IR Inten    --     20.8679                13.5369                 6.1404

                     10                     11                     12
                      A                      A                      A
 Frequencies --   1426.6186              1650.6169              2695.7964
 Red. masses --      1.2151                 3.9206                 1.0387
 Frc consts  --      1.4571                 6.2936                 4.4476
 IR Inten    --      9.8838                65.4266                 0.0746

                     13                     14                     15
                      A                      A                      A
 Frequencies --   3139.4030              3173.1413              3224.5031
 Red. masses --      1.0578                 1.0939                 1.1157
 Frc consts  --      6.1425                 6.4892                 6.8348
 IR Inten    --      1.5846                 1.3588                 4.2627

 - Thermochemistry -
 -------------------
 Temperature   298.150 Kelvin.  Pressure   1.00000 Atm.
 Atom     1 has atomic number 16 and mass  31.97207

 Molecular mass:    60.00337 amu.
 Principal axes and moments of inertia in atomic units:
                           1         2         3
     Eigenvalues --    35.42474 308.75559 343.94892
           X            0.99959   0.02851   0.00285
           Y           -0.02852   0.99959   0.00175
           Z           -0.00280  -0.00183   0.99999
 This molecule is an asymmetric top.
 Rotational symmetry number  1.
 Rotational temperatures (Kelvin)      2.44501     0.28053     0.25182
 Rotational constants (GHZ):          50.94578     5.84521     5.24712
 Zero-point vibrational energy     133036.1 (Joules/Mol)
                                   31.79640 (Kcal/Mol)
 Warning -- explicit consideration of   3 degrees of freedom as
           vibrations may cause significant error
 Vibrational temperatures:     76.01   520.96   869.78  1014.89  1311.03
          (Kelvin)           1342.55  1419.78  1544.99  1873.35  2052.58
                             2374.87  3878.64  4516.90  4565.44  4639.34

 Zero-point correction=                           0.050671 (Hartree/Particle)
 Thermal correction to Energy=                    0.055135
 Thermal correction to Enthalpy=                  0.056079
 Thermal correction to Gibbs Free Energy=         0.023732
 Sum of electronic and zero-point Energies=           -476.795058
 Sum of electronic and thermal Energies=              -476.790594
 Sum of electronic and thermal Enthalpies=            -476.789650
 Sum of electronic and thermal Free Energies=         -476.821996

                     E (Thermal)             CV                S
                      KCal/Mol        Cal/Mol-Kelvin    Cal/Mol-Kelvin
 Total                   34.597             13.254             68.079
 Electronic               0.000              0.000              0.000
 Translational            0.889              2.981             38.196
 Rotational               0.889              2.981             22.847
 Vibrational             32.820              7.293              7.037
 Vibration     1          0.596              1.976              4.709
 Vibration     2          0.736              1.550              1.113
 Vibration     3          0.963              1.022              0.442

 Normal termination of Gaussian 09 at Wed Aug  3 20:22:01 2016.
