 Gaussian 09, Revision E.01,
 Gaussian 09:  EM64L-G09RevE.01 30-Nov-2015

 ------------------------------
 #p b3lyp/6-311++G(3df,2p) freq
 ------------------------------

 ---------
 b3lyp opt
 ---------
 Symbolic Z-matrix:
 Charge =  0 Multiplicity = 3

                         Standard orientation:
 ---------------------------------------------------------------------
 Center     Atomic      Atomic             Coordinates (Angstroms)
 Number     Number       Type             X           Y           Z
 ---------------------------------------------------------------------
      1         16           0        1.903946   -0.349859    0.087310
      2         16           0       -1.959901   -0.356956   -0.073656
      3          6           0        0.543210    0.849808   -0.374325
      4          6           0       -0.707991    0.685783    0.403617
      5          1           0       -0.714573    0.967701    1.451418
      6          1           0        1.228183   -1.465233   -0.230148
      7          1           0        0.992346    1.820719   -0.169961
      8          1           0        0.378022    0.772301   -1.445526
 ---------------------------------------------------------------------

 SCF Done:  E(UB3LYP) =  -875.001450839     A.U. after   17 cycles

 The electronic state is 3-A.
 Alpha  occ. eigenvalues --  -88.89599 -88.84971 -10.22567 -10.21409  -7.97917
 Alpha  occ. eigenvalues --   -7.93574  -5.94860  -5.93794  -5.93480  -5.89961
 Alpha  occ. eigenvalues --   -5.89616  -5.89022  -0.84281  -0.77155  -0.68237
 Alpha  occ. eigenvalues --   -0.59044  -0.49306  -0.44249  -0.41944  -0.40098
 Alpha  occ. eigenvalues --   -0.36056  -0.32432  -0.31379  -0.25415  -0.18768
 Alpha virt. eigenvalues --   -0.01672   0.00288   0.00702   0.01769   0.02322
 Alpha virt. eigenvalues --    0.02460   0.04960   0.05991   0.06469   0.06584
 Alpha virt. eigenvalues --    0.07332   0.08649   0.09215   0.09962   0.10813

  Beta  occ. eigenvalues --  -88.88899 -88.84877 -10.22553 -10.20281  -7.97275
  Beta  occ. eigenvalues --   -7.93486  -5.93434  -5.93000  -5.92717  -5.89790
  Beta  occ. eigenvalues --   -5.89493  -5.88927  -0.82124  -0.75092  -0.66711
  Beta  occ. eigenvalues --   -0.56329  -0.48205  -0.42881  -0.40969  -0.38318
  Beta  occ. eigenvalues --   -0.34862  -0.29207  -0.24997
  Beta virt. eigenvalues --   -0.18056  -0.07713  -0.01445   0.00562   0.01109
  Beta virt. eigenvalues --    0.02188   0.02681   0.02919   0.05255   0.06161
  Beta virt. eigenvalues --    0.06606   0.06768   0.07840   0.08933   0.09427

 Mulliken charges and spin densities:
               1          2
     1  S   -0.303347   0.134932
     2  S   -0.179293   1.196286
     3  C   -0.116127  -0.050773
     4  C    0.006282   0.688181
     5  H    0.168840   0.010817
     6  H    0.120974  -0.002594
     7  H    0.146487   0.011762
     8  H    0.156184   0.011389
 Sum of Mulliken charges =  -0.00000   2.00000

 Dipole moment (field-independent basis, Debye):
    X=             -0.7083    Y=              0.5816    Z=             -0.1908  Tot=              0.9362
 Quadrupole moment (field-independent basis, Debye-Ang):
   XX=            -44.6357   YY=            -37.8868   ZZ=            -38.9300
   XY=              1.5890   XZ=             -0.9936   YZ=              1.1600

  Exact polarizability: 103.591   0.776  63.859   1.312   0.881  55.580
 Approx polarizability: 146.685   5.160 104.005   4.990   3.895  86.261

                      1                      2                      3
                      A                      A                      A
 Frequencies --     85.6819               199.6917               268.6638
 Red. masses --      6.6850                 1.2210                 2.0905
 Frc consts  --      0.0289                 0.0287                 0.0889
 IR Inten    --      1.0271                 9.5180                14.0334

                      4                      5                      6
                      A                      A                      A
 Frequencies --    326.2781               477.8221               581.1543
 Red. masses --      2.3896                 1.9109                 5.6596
 Frc consts  --      0.1499                 0.2571                 1.1262
 IR Inten    --      6.9244                29.0215                46.8854

                      7                      8                      9
                      A                      A                      A
 Frequencies --    713.7307               804.2004               961.6378
 Red. masses --      2.1480                 1.6921                 1.3214
 Frc consts  --      0.6447                 0.6448                 0.7200
 IR Inten    --     11.3611                 2.0174                12.4810

                     10                     11                     12
                      A                      A                      A
 Frequencies --   1063.4380              1142.1689              1241.7523
 Red. masses --      3.3615                 1.2152                 1.1236
 Frc consts  --      2.2398                 0.9340                 1.0207
 IR Inten    --     26.8875                 3.5220                14.8119

                     13                     14                     15
                      A                      A                      A
 Frequencies --   1282.8651              1467.6063              2675.6623
 Red. masses --      1.2285                 1.0970                 1.0386
 Frc consts  --      1.1912                 1.3922                 4.3809
 IR Inten    --      7.2257                 4.7838                 1.5499

                     16                     17                     18
                      A                      A                      A
 Frequencies --   3060.3119              3113.4313              3132.4257
 Red. masses --      1.0581                 1.1029                 1.0868
 Frc consts  --      5.8383                 6.2987                 6.2829
 IR Inten    --     10.6388                 1.9903                 0.5672

 - Thermochemistry -
 -------------------
 Temperature   298.150 Kelvin.  Pressure   1.00000 Atm.
 Atom     1 has atomic number 16 and mass  31.97207

 Molecular mass:    91.97544 amu.
 Principal axes and moments of inertia in atomic units:
                           1         2         3
     Eigenvalues --   134.43758 927.617141002.47472
           X            0.99996  -0.00143  -0.00832
           Y            0.00155   0.99989   0.01467
           Z            0.00830  -0.01468   0.99986
 This molecule is an asymmetric top.
 Rotational symmetry number  1.
 Rotational temperatures (Kelvin)      0.64427     0.09337     0.08640
 Rotational constants (GHZ):          13.42438     1.94557     1.80029
 Zero-point vibrational energy     135169.2 (Joules/Mol)
                                   32.30621 (Kcal/Mol)
 Warning -- explicit consideration of   6 degrees of freedom as
           vibrations may cause significant error
 Vibrational temperatures:    123.28   287.31   386.55   469.44   687.48
          (Kelvin)            836.15  1026.90  1157.06  1383.58  1530.05
                             1643.32  1786.60  1845.75  2111.56  3849.68
                             4403.10  4479.53  4506.86

 Zero-point correction=                           0.051483 (Hartree/Particle)
 Thermal correction to Energy=                    0.057209
 Thermal correction to Enthalpy=                  0.058153
 Thermal correction to Gibbs Free Energy=         0.020732
 Sum of electronic and zero-point Energies=           -874.949968
 Sum of electronic and thermal Energies=              -874.944242
 Sum of electronic and thermal Enthalpies=            -874.943298
 Sum of electronic and thermal Free Energies=         -874.980719

                     E (Thermal)             CV                S
                      KCal/Mol        Cal/Mol-Kelvin    Cal/Mol-Kelvin
 Total                   35.899             18.334             78.760
 Electronic               0.000              0.000              2.183
 Translational            0.889              2.981             39.469
 Rotational               0.889              2.981             26.328
 Vibrational             34.122             12.372             10.781
 Vibration     1          0.601              1.959              3.756
 Vibration     2          0.638              1.840              2.136
 Vibration     3          0.673              1.731              1.605
 Vibration     4          0.710              1.623              1.278
 Vibration     5          0.834              1.299              0.716
 Vibration     6          0.938              1.072              0.483

 Normal termination of Gaussian 09 at Wed Aug  3 20:18:47 2016.
