 Gaussian 09, Revision E.01,
 Gaussian 09:  EM64L-G09RevE.01 30-Nov-2015

 ------------------------------
 #p b3lyp/6-311++G(3df,2p) freq
 ------------------------------

 ---------
 b3lyp opt
 ---------
 Symbolic Z-matrix:
 Charge =  1 Multiplicity = 2

                         Standard orientation:
 ---------------------------------------------------------------------
 Center     Atomic      Atomic             Coordinates (Angstroms)
 Number     Number       Type             X           Y           Z
 ---------------------------------------------------------------------
      1         16           0        1.838048   -0.336102    0.083678
      2         16           0       -1.949284   -0.279168   -0.094833
      3          6           0        0.558774    0.877315   -0.349553
      4          6           0       -0.622034    0.421081    0.483554
      5          1           0       -0.533753    0.589806    1.555507
      6          1           0        1.438558   -1.294397   -0.773498
      7          1           0        0.897709    1.849380    0.006097
      8          1           0        0.356821    0.909156   -1.413642
 ---------------------------------------------------------------------

 SCF Done:  E(UB3LYP) =  -874.747782364     A.U. after   20 cycles

 The electronic state is 2-A.
 Alpha  occ. eigenvalues --  -89.13082 -89.08178 -10.48830 -10.43920  -8.21422
 Alpha  occ. eigenvalues --   -8.16620  -6.18038  -6.17299  -6.17146  -6.12942
 Alpha  occ. eigenvalues --   -6.12555  -6.12273  -1.08549  -1.00663  -0.89262
 Alpha  occ. eigenvalues --   -0.80781  -0.71173  -0.67067  -0.63666  -0.62986
 Alpha  occ. eigenvalues --   -0.57022  -0.54360  -0.51699  -0.47079
 Alpha virt. eigenvalues --   -0.31897  -0.19301  -0.16529  -0.15295  -0.13721
 Alpha virt. eigenvalues --   -0.12684  -0.11894  -0.10532  -0.09292  -0.07615
 Alpha virt. eigenvalues --   -0.07208  -0.06298  -0.05993  -0.05608  -0.04666

  Beta  occ. eigenvalues --  -89.12571 -89.08058 -10.48908 -10.43795  -8.20957
  Beta  occ. eigenvalues --   -8.16511  -6.17018  -6.16876  -6.16421  -6.12848
  Beta  occ. eigenvalues --   -6.12461  -6.11955  -1.07561  -0.99483  -0.88141
  Beta  occ. eigenvalues --   -0.79817  -0.70270  -0.66312  -0.63186  -0.62319
  Beta  occ. eigenvalues --   -0.56370  -0.53838  -0.45657
  Beta virt. eigenvalues --   -0.39993  -0.31607  -0.19124  -0.16199  -0.14787
  Beta virt. eigenvalues --   -0.13262  -0.12521  -0.11777  -0.10333  -0.09168
  Beta virt. eigenvalues --   -0.07423  -0.06927  -0.06048  -0.05799  -0.05372

 Mulliken charges and spin densities:
               1          2
     1  S    0.017725   0.194375
     2  S    0.145589   0.798431
     3  C   -0.143422   0.052487
     4  C    0.155830  -0.085884
     5  H    0.258481   0.033298
     6  H    0.168996  -0.002481
     7  H    0.186156   0.002963
     8  H    0.210644   0.006809
 Sum of Mulliken charges =   1.00000   1.00000

 Dipole moment (field-independent basis, Debye):
    X=             -1.1039    Y=              0.6928    Z=             -0.1947  Tot=              1.3177
 Quadrupole moment (field-independent basis, Debye-Ang):
   XX=            -24.3889   YY=            -30.9465   ZZ=            -32.2739
   XY=              0.3566   XZ=             -0.9866   YZ=              1.6132

  Exact polarizability: 160.408  -3.473  49.759  -1.934   1.767  46.073
 Approx polarizability: 347.594  -0.362  84.623  10.960   6.463  74.929

                      1                      2                      3
                      A                      A                      A
 Frequencies --     89.2753               257.2086               295.6243
 Red. masses --      7.3646                 3.2787                 1.4477
 Frc consts  --      0.0346                 0.1278                 0.0745
 IR Inten    --      1.4246                 1.9107                20.2497

                      4                      5                      6
                      A                      A                      A
 Frequencies --    327.7247               664.2114               778.1229
 Red. masses --      2.0960                 5.7141                 1.5659
 Frc consts  --      0.1326                 1.4853                 0.5586
 IR Inten    --     25.7182                60.5978                14.1222

                      7                      8                      9
                      A                      A                      A
 Frequencies --    823.5202               880.8796               996.2457
 Red. masses --      1.3724                 2.1645                 1.8193
 Frc consts  --      0.5484                 0.9896                 1.0639
 IR Inten    --     20.3815                49.2387                23.5907

                     10                     11                     12
                      A                      A                      A
 Frequencies --   1046.5698              1153.6555              1236.6897
 Red. masses --      2.4026                 1.0607                 1.2065
 Frc consts  --      1.5505                 0.8318                 1.0871
 IR Inten    --      9.9684                18.1956                 7.6789

                     13                     14                     15
                      A                      A                      A
 Frequencies --   1286.0678              1458.7943              2662.7189
 Red. masses --      1.2373                 1.0849                 1.0392
 Frc consts  --      1.2058                 1.3603                 4.3409
 IR Inten    --     78.8853                20.5815                33.4623

                     16                     17                     18
                      A                      A                      A
 Frequencies --   3080.5956              3111.8268              3172.1099
 Red. masses --      1.0608                 1.0859                 1.1070
 Frc consts  --      5.9316                 6.1952                 6.5630
 IR Inten    --     12.5674                53.7066                14.1793

 - Thermochemistry -
 -------------------
 Temperature   298.150 Kelvin.  Pressure   1.00000 Atm.
 Atom     1 has atomic number 16 and mass  31.97207

 Molecular mass:    91.97544 amu.
 Principal axes and moments of inertia in atomic units:
                           1         2         3
     Eigenvalues --   119.81451 896.19391 946.14946
           X            0.99994  -0.00017  -0.01051
           Y            0.00064   0.99899   0.04490
           Z            0.01049  -0.04490   0.99894
 This molecule is an asymmetric top.
 Rotational symmetry number  1.
 Rotational temperatures (Kelvin)      0.72290     0.09665     0.09154
 Rotational constants (GHZ):          15.06279     2.01378     1.90746
 Zero-point vibrational energy     139495.6 (Joules/Mol)
                                   33.34025 (Kcal/Mol)
 Warning -- explicit consideration of   4 degrees of freedom as
           vibrations may cause significant error
 Vibrational temperatures:    128.45   370.07   425.34   471.52   955.65
          (Kelvin)           1119.54  1184.86  1267.39  1433.37  1505.78
                             1659.85  1779.32  1850.36  2098.88  3831.05
                             4432.28  4477.22  4563.95

 Zero-point correction=                           0.053131 (Hartree/Particle)
 Thermal correction to Energy=                    0.058471
 Thermal correction to Enthalpy=                  0.059415
 Thermal correction to Gibbs Free Energy=         0.023184
 Sum of electronic and zero-point Energies=           -874.694651
 Sum of electronic and thermal Energies=              -874.689311
 Sum of electronic and thermal Enthalpies=            -874.688367
 Sum of electronic and thermal Free Energies=         -874.724598

                     E (Thermal)             CV                S
                      KCal/Mol        Cal/Mol-Kelvin    Cal/Mol-Kelvin
 Total                   36.691             17.069             76.255
 Electronic               0.000              0.000              1.377
 Translational            0.889              2.981             39.469
 Rotational               0.889              2.981             26.121
 Vibrational             34.914             11.108              9.287
 Vibration     1          0.602              1.957              3.676
 Vibration     2          0.667              1.751              1.681
 Vibration     3          0.690              1.682              1.442
 Vibration     4          0.711              1.620              1.271

 Optimization completed.
    -- Stationary point found.
 Normal termination of Gaussian 09 at Wed Aug  3 20:18:55 2016.
