 Gaussian 09, Revision E.01,
 Gaussian 09:  EM64L-G09RevE.01 30-Nov-2015

 ------------------------------
 #p b3lyp/6-311++G(3df,2p) freq
 ------------------------------

 ---------
 b3lyp opt
 ---------
 Symbolic Z-matrix:
 Charge =  2 Multiplicity = 1

                         Standard orientation:
 ---------------------------------------------------------------------
 Center     Atomic      Atomic             Coordinates (Angstroms)
 Number     Number       Type             X           Y           Z
 ---------------------------------------------------------------------
      1         16           0        0.295509   -0.981087   -0.000000
      2          6           0       -1.030833    1.519697    0.000000
      3          6           0        0.000000    0.795739   -0.000000
      4          1           0        1.224067   -0.987590    1.007613
      5          1           0        1.224067   -0.987590   -1.007613
      6          1           0       -1.846408    2.250279    0.000000
      7          1           0        0.855120    1.529671   -0.000000
 ---------------------------------------------------------------------

 SCF Done:  E(RB3LYP) =  -475.915299497     A.U. after   11 cycles

 The electronic state is 1-A'.
 Alpha  occ. eigenvalues --  -89.43030 -10.78330 -10.72231  -8.51051  -6.47400
 Alpha  occ. eigenvalues --   -6.47020  -6.46634  -1.34400  -1.26370  -1.05818
 Alpha  occ. eigenvalues --   -0.97251  -0.96859  -0.95142  -0.83734  -0.81104
 Alpha virt. eigenvalues --   -0.61616  -0.50575  -0.46455  -0.43675  -0.39860
 Alpha virt. eigenvalues --   -0.33300  -0.31833  -0.29833  -0.28179  -0.27380
 Alpha virt. eigenvalues --   -0.27141  -0.24065  -0.22358  -0.21140  -0.19406

 Mulliken charges:
               1
     1  S    0.302348
     2  C    0.380558
     3  C   -0.015816
     4  H    0.303500
     5  H    0.303500
     6  H    0.441045
     7  H    0.284866
 Sum of Mulliken charges =   2.00000

 Dipole moment (field-independent basis, Debye):
    X=              0.1176    Y=              2.8449    Z=             -0.0000  Tot=              2.8473
 Quadrupole moment (field-independent basis, Debye-Ang):
   XX=             -8.2401   YY=              0.2778   ZZ=            -19.0513
   XY=            -11.6703   XZ=             -0.0000   YZ=              0.0000

  Exact polarizability:  35.300 -10.501  40.979  -0.000  -0.000  25.571
 Approx polarizability:  62.157 -18.895  62.614  -0.000   0.000  39.634

                      1                      2                      3
                     A"                     A'                     A"
 Frequencies --    127.9962               202.2846               561.9693
 Red. masses --      1.2280                 2.8012                 1.3531
 Frc consts  --      0.0119                 0.0675                 0.2518
 IR Inten    --     25.4139                18.4650                56.5870

                      4                      5                      6
                     A'                     A"                     A'
 Frequencies --    602.4199               732.1799               805.8066
 Red. masses --      6.8037                 1.3268                 1.0742
 Frc consts  --      1.4548                 0.4191                 0.4110
 IR Inten    --      9.3340                38.2298                 0.1076

                      7                      8                      9
                     A'                     A"                     A'
 Frequencies --    937.9826               944.2158              1046.4226
 Red. masses --      1.1994                 1.1342                 1.4094
 Frc consts  --      0.6217                 0.5958                 0.9093
 IR Inten    --     10.9412                26.4267                 4.0120

                     10                     11                     12
                     A'                     A'                     A"
 Frequencies --   1158.8469              1824.3230              2494.4405
 Red. masses --      1.0350                 5.6679                 1.0423
 Frc consts  --      0.8189                11.1142                 3.8212
 IR Inten    --      8.7842               184.1791               159.2030

                     13                     14                     15
                     A'                     A'                     A'
 Frequencies --   2494.5019              2779.5669              3148.5530
 Red. masses --      1.0353                 1.0755                 1.1495
 Frc consts  --      3.7956                 4.8958                 6.7138
 IR Inten    --    173.9488               290.3763               295.7052

 - Thermochemistry -
 -------------------
 Temperature   298.150 Kelvin.  Pressure   1.00000 Atm.
 Atom     1 has atomic number 16 and mass  31.97207

 Molecular mass:    60.00337 amu.
 Principal axes and moments of inertia in atomic units:
                           1         2         3
     Eigenvalues --    30.54500 334.61785 350.54679
           X           -0.43610   0.89990   0.00000
           Y            0.89990   0.43610   0.00000
           Z            0.00000   0.00000   1.00000
 This molecule is an asymmetric top.
 Rotational symmetry number  1.
 Rotational temperatures (Kelvin)      2.83561     0.25884     0.24708
 Rotational constants (GHZ):          59.08466     5.39344     5.14836
 Zero-point vibrational energy     118798.2 (Joules/Mol)
                                   28.39345 (Kcal/Mol)
 Warning -- explicit consideration of   4 degrees of freedom as
           vibrations may cause significant error
 Vibrational temperatures:    184.16   291.04   808.55   866.75  1053.44
          (Kelvin)           1159.37  1349.55  1358.51  1505.57  1667.32
                             2624.79  3588.94  3589.03  3999.17  4530.06

 Zero-point correction=                           0.045248 (Hartree/Particle)
 Thermal correction to Energy=                    0.049982
 Thermal correction to Enthalpy=                  0.050926
 Thermal correction to Gibbs Free Energy=         0.018671
 Sum of electronic and zero-point Energies=           -475.870052
 Sum of electronic and thermal Energies=              -475.865317
 Sum of electronic and thermal Enthalpies=            -475.864373
 Sum of electronic and thermal Free Energies=         -475.896628

                     E (Thermal)             CV                S
                      KCal/Mol        Cal/Mol-Kelvin    Cal/Mol-Kelvin
 Total                   31.364             14.756             67.887
 Electronic               0.000              0.000              0.000
 Translational            0.889              2.981             38.196
 Rotational               0.889              2.981             22.798
 Vibrational             29.587              8.794              6.893
 Vibration     1          0.611              1.925              2.976
 Vibration     2          0.639              1.837              2.112
 Vibration     3          0.918              1.114              0.520
 Vibration     4          0.961              1.027              0.446

 Optimization completed.
    -- Stationary point found.
 Normal termination of Gaussian 09 at Wed Aug  3 22:52:35 2016.
