 Gaussian 09, Revision E.01,
 Gaussian 09:  EM64L-G09RevE.01 30-Nov-2015

 ------------------------------
 #p b3lyp/6-311++G(3df,2p) freq
 ------------------------------

 ---------
 b3lyp opt
 ---------
 Symbolic Z-matrix:
 Charge =  1 Multiplicity = 2

                         Standard orientation:
 ---------------------------------------------------------------------
 Center     Atomic      Atomic             Coordinates (Angstroms)
 Number     Number       Type             X           Y           Z
 ---------------------------------------------------------------------
      1         16           0        0.000000    0.271329    0.000000
      2          6           0       -1.306165   -0.803428   -0.000000
      3          6           0        1.612472    0.314798    0.000000
      4          1           0       -2.306451   -0.385216   -0.000000
      5          1           0       -0.525533    1.508452    0.000000
      6          1           0       -1.100332   -1.865216   -0.000000
      7          1           0        2.094476   -0.667509   -0.000000
 ---------------------------------------------------------------------

 SCF Done:  E(UB3LYP) =  -476.373015512     A.U. after   15 cycles

 The electronic state is 2-A".
 Alpha  occ. eigenvalues --  -89.20598 -10.48078 -10.46857  -8.28637  -6.24763
 Alpha  occ. eigenvalues --   -6.24618  -6.24535  -1.13496  -0.97821  -0.85775
 Alpha  occ. eigenvalues --   -0.74318  -0.71477  -0.67183  -0.63540  -0.50170
 Alpha  occ. eigenvalues --   -0.49289
 Alpha virt. eigenvalues --   -0.31808  -0.25036  -0.22213  -0.16643  -0.15394
 Alpha virt. eigenvalues --   -0.12593  -0.11193  -0.11043  -0.08774  -0.07832
 Alpha virt. eigenvalues --   -0.07241  -0.05928  -0.05468  -0.04262  -0.02727

  Beta  occ. eigenvalues --  -89.20690 -10.46935 -10.46361  -8.28706  -6.24831
  Beta  occ. eigenvalues --   -6.24744  -6.24674  -1.12748  -0.95255  -0.84808
  Beta  occ. eigenvalues --   -0.73708  -0.70829  -0.66752  -0.61650  -0.49342
  Beta virt. eigenvalues --   -0.37452  -0.27254  -0.24631  -0.22271  -0.16242
  Beta virt. eigenvalues --   -0.15172  -0.12335  -0.11036  -0.10810  -0.08695
  Beta virt. eigenvalues --   -0.07722  -0.06343  -0.05735  -0.04894  -0.04093

 Mulliken charges and spin densities:
               1          2
     1  S    0.109150  -0.027051
     2  C   -0.069481   0.753695
     3  C   -0.012633   0.323185
     4  H    0.239356  -0.021127
     5  H    0.236237  -0.000003
     6  H    0.242949  -0.018901
     7  H    0.254423  -0.009798
 Sum of Mulliken charges =   1.00000   1.00000

 Dipole moment (field-independent basis, Debye):
    X=             -2.2663    Y=             -1.0201    Z=             -0.0000  Tot=              2.4853
 Quadrupole moment (field-independent basis, Debye-Ang):
   XX=            -15.1512   YY=            -18.0190   ZZ=            -24.4014
   XY=             -1.5893   XZ=             -0.0000   YZ=             -0.0000

  Exact polarizability:  66.088   9.775  38.767   0.000  -0.000  27.665
 Approx polarizability: 131.151  24.961  61.036   0.000   0.000  42.762

                      1                      2                      3
                     A"                     A'                     A"
 Frequencies --    101.2970               298.3387               390.6426
 Red. masses --      1.6991                 2.8199                 1.1574
 Frc consts  --      0.0103                 0.1479                 0.1041
 IR Inten    --      2.3792                10.7686                 0.0733

                      4                      5                      6
                     A"                     A'                     A'
 Frequencies --    629.3666               702.8793               762.1323
 Red. masses --      1.1979                 2.9720                 2.1568
 Frc consts  --      0.2796                 0.8651                 0.7381
 IR Inten    --      6.9246                 6.2782                49.1110

                      7                      8                      9
                     A"                     A'                     A'
 Frequencies --    832.3189               838.7563              1056.2740
 Red. masses --      1.1190                 1.5915                 2.0257
 Frc consts  --      0.4567                 0.6597                 1.3316
 IR Inten    --     99.0229                 8.2048                16.3793

                     10                     11                     12
                     A'                     A'                     A'
 Frequencies --   1149.9943              1364.4695              2662.9897
 Red. masses --      1.1006                 1.1026                 1.0405
 Frc consts  --      0.8576                 1.2094                 4.3473
 IR Inten    --      2.9979                 6.6670                70.3777

                     13                     14                     15
                     A'                     A'                     A'
 Frequencies --   3114.9093              3118.1818              3269.4189
 Red. masses --      1.0853                 1.0467                 1.1277
 Frc consts  --      6.2044                 5.9962                 7.1022
 IR Inten    --     49.6871                55.5004                50.0870

 - Thermochemistry -
 -------------------
 Temperature   298.150 Kelvin.  Pressure   1.00000 Atm.
 Atom     1 has atomic number 16 and mass  31.97207

 Molecular mass:    60.00337 amu.
 Principal axes and moments of inertia in atomic units:
                           1         2         3
     Eigenvalues --    37.41410 250.24949 287.66359
           X            0.93785  -0.34703   0.00000
           Y            0.34703   0.93785   0.00000
           Z            0.00000  -0.00000   1.00000
 This molecule is an asymmetric top.
 Rotational symmetry number  1.
 Rotational temperatures (Kelvin)      2.31500     0.34611     0.30109
 Rotational constants (GHZ):          48.23693     7.21177     6.27379
 Zero-point vibrational energy     121372.9 (Joules/Mol)
                                   29.00883 (Kcal/Mol)
 Warning -- explicit consideration of   3 degrees of freedom as
           vibrations may cause significant error
 Vibrational temperatures:    145.74   429.24   562.05   905.52  1011.29
          (Kelvin)           1096.54  1197.52  1206.78  1519.74  1654.58
                             1963.16  3831.44  4481.65  4486.36  4703.96

 Zero-point correction=                           0.046229 (Hartree/Particle)
 Thermal correction to Energy=                    0.051076
 Thermal correction to Enthalpy=                  0.052020
 Thermal correction to Gibbs Free Energy=         0.019050
 Sum of electronic and zero-point Energies=           -476.326787
 Sum of electronic and thermal Energies=              -476.321939
 Sum of electronic and thermal Enthalpies=            -476.320995
 Sum of electronic and thermal Free Energies=         -476.353966

                     E (Thermal)             CV                S
                      KCal/Mol        Cal/Mol-Kelvin    Cal/Mol-Kelvin
 Total                   32.051             15.454             69.392
 Electronic               0.000              0.000              1.377
 Translational            0.889              2.981             38.196
 Rotational               0.889              2.981             22.514
 Vibrational             30.273              9.492              7.305
 Vibration     1          0.604              1.948              3.429
 Vibration     2          0.691              1.677              1.426
 Vibration     3          0.758              1.490              0.998

 Optimization completed.
    -- Stationary point found.
 Normal termination of Gaussian 09 at Wed Aug  3 22:53:16 2016.
