 Gaussian 09, Revision E.01,
 Gaussian 09:  EM64L-G09RevE.01 30-Nov-2015

 ------------------------------
 #p b3lyp/6-311++G(3df,2p) freq
 ------------------------------

 ---------
 b3lyp opt
 ---------
 Symbolic Z-matrix:
 Charge =  1 Multiplicity = 2

                         Standard orientation:
 ---------------------------------------------------------------------
 Center     Atomic      Atomic             Coordinates (Angstroms)
 Number     Number       Type             X           Y           Z
 ---------------------------------------------------------------------
      1         16           0       -0.887953    0.024945   -0.001225
      2          6           0        1.429510   -0.767677    0.000779
      3          6           0        0.871368    0.601018   -0.000096
      4          1           0       -0.788092   -0.897091    0.995739
      5          1           0       -0.778417   -0.916379   -0.979616
      6          1           0        0.983809    1.207562    0.906915
      7          1           0        0.984678    1.206739   -0.907540
 ---------------------------------------------------------------------

 SCF Done:  E(UB3LYP) =  -476.358450532     A.U. after   20 cycles

 The electronic state is 2-A.
 Alpha  occ. eigenvalues --  -89.20710 -10.46916 -10.46267  -8.28978  -6.25068
 Alpha  occ. eigenvalues --   -6.25053  -6.24693  -1.12133  -0.97095  -0.81260
 Alpha  occ. eigenvalues --   -0.76274  -0.69232  -0.67532  -0.63459  -0.52470
 Alpha  occ. eigenvalues --   -0.43917
 Alpha virt. eigenvalues --   -0.33442  -0.25533  -0.25238  -0.21860  -0.14936
 Alpha virt. eigenvalues --   -0.13888  -0.12875  -0.11023  -0.09614  -0.08638
 Alpha virt. eigenvalues --   -0.07356  -0.06402  -0.05165  -0.03987  -0.02907

  Beta  occ. eigenvalues --  -89.20702 -10.46350 -10.45486  -8.28970  -6.25070
  Beta  occ. eigenvalues --   -6.25008  -6.24698  -1.11786  -0.96113  -0.78968
  Beta  occ. eigenvalues --   -0.75873  -0.69091  -0.66668  -0.62984  -0.50312
  Beta virt. eigenvalues --   -0.32161  -0.29184  -0.25073  -0.24037  -0.21786
  Beta virt. eigenvalues --   -0.14851  -0.13735  -0.12755  -0.10856  -0.09575
  Beta virt. eigenvalues --   -0.08586  -0.06369  -0.06209  -0.05117  -0.03736

 Mulliken charges and spin densities:
               1          2
     1  S    0.129750   0.018443
     2  C   -0.150655   0.946300
     3  C    0.079210  -0.052203
     4  H    0.269075   0.002745
     5  H    0.269019   0.003010
     6  H    0.201988   0.040740
     7  H    0.201613   0.040965
 Sum of Mulliken charges =   1.00000   1.00000

 Dipole moment (field-independent basis, Debye):
    X=             -1.8980    Y=              1.1568    Z=              0.0130  Tot=              2.2228
 Quadrupole moment (field-independent basis, Debye-Ang):
   XX=            -19.1659   YY=            -22.4342   ZZ=            -20.6986
   XY=              5.5508   XZ=             -0.0263   YZ=              0.0108

  Exact polarizability:  48.089  -0.760  38.045  -0.011   0.006  35.771
 Approx polarizability:  82.717  -1.730  58.792  -0.015   0.019  52.605

                      1                      2                      3
                      A                      A                      A
 Frequencies --     72.1556               253.3888               593.2784
 Red. masses --      1.1519                 6.9702                 7.3375
 Frc consts  --      0.0035                 0.2637                 1.5216
 IR Inten    --     45.4522                11.5777                 0.8211

                      4                      5                      6
                      A                      A                      A
 Frequencies --    678.3455               767.0279               854.7538
 Red. masses --      1.0319                 1.1439                 1.2825
 Frc consts  --      0.2798                 0.3965                 0.5521
 IR Inten    --      0.5086                57.9129                 4.1243

                      7                      8                      9
                      A                      A                      A
 Frequencies --   1010.0303              1086.2766              1164.3933
 Red. masses --      3.4652                 1.1017                 1.1867
 Frc consts  --      2.0828                 0.7660                 0.9480
 IR Inten    --     27.6876                 1.1997                 1.8892

                     10                     11                     12
                      A                      A                      A
 Frequencies --   1216.2086              1428.5746              2545.3387
 Red. masses --      1.1805                 1.1020                 1.0379
 Frc consts  --      1.0288                 1.3250                 3.9618
 IR Inten    --     26.6966                12.9318                52.9713

                     13                     14                     15
                      A                      A                      A
 Frequencies --   2550.5675              2985.2861              3046.8377
 Red. masses --      1.0365                 1.0504                 1.1109
 Frc consts  --      3.9727                 5.5153                 6.0763
 IR Inten    --     52.6160                13.6937                14.5516

 - Thermochemistry -
 -------------------
 Temperature   298.150 Kelvin.  Pressure   1.00000 Atm.
 Atom     1 has atomic number 16 and mass  31.97207

 Molecular mass:    60.00337 amu.
 Principal axes and moments of inertia in atomic units:
                           1         2         3
     Eigenvalues --    69.04230 235.55214 278.70095
           X            0.99670   0.08112  -0.00038
           Y           -0.08112   0.99670   0.00025
           Z            0.00040  -0.00022   1.00000
 This molecule is an asymmetric top.
 Rotational symmetry number  1.
 Rotational temperatures (Kelvin)      1.25450     0.36771     0.31078
 Rotational constants (GHZ):          26.13964     7.66175     6.47555
 Zero-point vibrational energy     121136.6 (Joules/Mol)
                                   28.95235 (Kcal/Mol)
 Warning -- explicit consideration of   3 degrees of freedom as
           vibrations may cause significant error
 Vibrational temperatures:    103.82   364.57   853.59   975.99  1103.58
          (Kelvin)           1229.80  1453.21  1562.91  1675.30  1749.85
                             2055.40  3662.17  3669.69  4295.16  4383.71

 Zero-point correction=                           0.046139 (Hartree/Particle)
 Thermal correction to Energy=                    0.050783
 Thermal correction to Enthalpy=                  0.051728
 Thermal correction to Gibbs Free Energy=         0.018535
 Sum of electronic and zero-point Energies=           -476.312312
 Sum of electronic and thermal Energies=              -476.307667
 Sum of electronic and thermal Enthalpies=            -476.306723
 Sum of electronic and thermal Free Energies=         -476.339916

                     E (Thermal)             CV                S
                      KCal/Mol        Cal/Mol-Kelvin    Cal/Mol-Kelvin
 Total                   31.867             14.056             69.861
 Electronic               0.000              0.000              1.377
 Translational            0.889              2.981             38.196
 Rotational               0.889              2.981             23.032
 Vibrational             30.090              8.094              7.256
 Vibration     1          0.598              1.967              4.094
 Vibration     2          0.665              1.757              1.707
 Vibration     3          0.951              1.046              0.461

 Normal termination of Gaussian 09 at Wed Aug  3 20:23:40 2016.
