 Gaussian 09, Revision E.01,
 Gaussian 09:  EM64L-G09RevE.01 30-Nov-2015

 ------------------------------
 #p b3lyp/6-311++G(3df,2p) freq
 ------------------------------

 ---------
 b3lyp opt
 ---------
 Symbolic Z-matrix:
 Charge =  0 Multiplicity = 1

                         Standard orientation:
 ---------------------------------------------------------------------
 Center     Atomic      Atomic             Coordinates (Angstroms)
 Number     Number       Type             X           Y           Z
 ---------------------------------------------------------------------
      1         16           0       -0.084841   -0.217824   -0.000159
      2          6           0       -1.611358    0.188521    0.000182
      3          6           0        1.474660    0.294167   -0.000259
      4          1           0        0.032471   -1.551899   -0.000606
      5          1           0        2.232798   -0.472081    0.003307
      6          1           0       -1.778844    1.265273    0.001167
      7          1           0        1.691218    1.347763   -0.000858
 ---------------------------------------------------------------------

 SCF Done:  E(RB3LYP) =  -476.667044851     A.U. after   13 cycles

 The electronic state is 1-A.
 Alpha  occ. eigenvalues --  -88.96166 -10.18788 -10.18398  -8.03948  -6.00150
 Alpha  occ. eigenvalues --   -5.99962  -5.99871  -0.88948  -0.71803  -0.60631
 Alpha  occ. eigenvalues --   -0.49806  -0.46619  -0.42257  -0.38786  -0.25519
 Alpha  occ. eigenvalues --   -0.21294
 Alpha virt. eigenvalues --   -0.05156  -0.02966  -0.01639   0.01434   0.01760
 Alpha virt. eigenvalues --    0.04163   0.04622   0.05311   0.06686   0.08272
 Alpha virt. eigenvalues --    0.08970   0.09150   0.10629   0.11495   0.12929

 Mulliken charges:
               1
     1  S   -0.031025
     2  C   -0.321712
     3  C   -0.334073
     4  H    0.158659
     5  H    0.167509
     6  H    0.187754
     7  H    0.172888
 Sum of Mulliken charges =  -0.00000

 Dipole moment (field-independent basis, Debye):
    X=              2.1792    Y=             -0.3424    Z=              0.0046  Tot=              2.2059
 Quadrupole moment (field-independent basis, Debye-Ang):
   XX=            -31.8172   YY=            -22.3184   ZZ=            -29.5247
   XY=             -2.3501   XZ=              0.0054   YZ=             -0.0028

  Exact polarizability:  90.771   0.448  42.784  -0.010   0.006  37.589
 Approx polarizability: 205.841   0.688  64.311  -0.057   0.004  56.157

                      1                      2                      3
                      A                      A                      A
 Frequencies --    190.3935               318.5278               340.9860
 Red. masses --      1.3892                 1.6585                 2.6398
 Frc consts  --      0.0297                 0.0991                 0.1808
 IR Inten    --     94.4462                 6.0910                19.2885

                      4                      5                      6
                      A                      A                      A
 Frequencies --    499.8479               757.7938               793.6023
 Red. masses --      1.1365                 2.3533                 1.0835
 Frc consts  --      0.1673                 0.7962                 0.4020
 IR Inten    --     32.3937                22.1316                53.8081

                      7                      8                      9
                      A                      A                      A
 Frequencies --    819.9099               943.0290              1164.7686
 Red. masses --      1.1835                 2.4014                 2.6725
 Frc consts  --      0.4687                 1.2582                 2.1363
 IR Inten    --     43.4557                60.6457                43.7194

                     10                     11                     12
                      A                      A                      A
 Frequencies --   1188.0566              1366.8502              2675.9580
 Red. masses --      1.2919                 1.1453                 1.0384
 Frc consts  --      1.0744                 1.2606                 4.3811
 IR Inten    --      7.8071                14.6927                 1.7951

                     13                     14                     15
                      A                      A                      A
 Frequencies --   3134.6150              3166.1481              3305.3372
 Red. masses --      1.0871                 1.0459                 1.1247
 Frc consts  --      6.2932                 6.1776                 7.2398
 IR Inten    --      2.0861                 6.1112                 2.8190

 - Thermochemistry -
 -------------------
 Temperature   298.150 Kelvin.  Pressure   1.00000 Atm.
 Atom     1 has atomic number 16 and mass  31.97207

 Molecular mass:    60.00337 amu.
 Principal axes and moments of inertia in atomic units:
                           1         2         3
     Eigenvalues --    32.33201 244.69360 277.02550
           X            0.99985  -0.01759   0.00006
           Y            0.01759   0.99985  -0.00004
           Z           -0.00006   0.00004   1.00000
 This molecule is an asymmetric top.
 Rotational symmetry number  1.
 Rotational temperatures (Kelvin)      2.67889     0.35397     0.31266
 Rotational constants (GHZ):          55.81902     7.37551     6.51471
 Zero-point vibrational energy     123609.1 (Joules/Mol)
                                   29.54328 (Kcal/Mol)
 Warning -- explicit consideration of   4 degrees of freedom as
           vibrations may cause significant error
 Vibrational temperatures:    273.93   458.29   490.60   719.17  1090.29
          (Kelvin)           1141.82  1179.67  1356.81  1675.84  1709.35
                             1966.59  3850.10  4510.01  4555.38  4755.64

 Zero-point correction=                           0.047080 (Hartree/Particle)
 Thermal correction to Energy=                    0.051818
 Thermal correction to Enthalpy=                  0.052762
 Thermal correction to Gibbs Free Energy=         0.021027
 Sum of electronic and zero-point Energies=           -476.619965
 Sum of electronic and thermal Energies=              -476.615227
 Sum of electronic and thermal Enthalpies=            -476.614283
 Sum of electronic and thermal Free Energies=         -476.646018

                     E (Thermal)             CV                S
                      KCal/Mol        Cal/Mol-Kelvin    Cal/Mol-Kelvin
 Total                   32.516             15.305             66.791
 Electronic               0.000              0.000              0.000
 Translational            0.889              2.981             38.196
 Rotational               0.889              2.981             22.310
 Vibrational             30.739              9.343              6.286
 Vibration     1          0.634              1.853              2.224
 Vibration     2          0.705              1.638              1.318
 Vibration     3          0.721              1.594              1.208
 Vibration     4          0.855              1.250              0.659

 Normal termination of Gaussian 09 at Wed Aug  3 20:22:01 2016.
