 Gaussian 09, Revision E.01,
 Gaussian 09:  EM64L-G09RevE.01 30-Nov-2015

 ------------------------------
 #p b3lyp/6-311++G(3df,2p) freq
 ------------------------------

 ---------
 b3lyp opt
 ---------
 Symbolic Z-matrix:
 Charge =  1 Multiplicity = 4

                         Standard orientation:
 ---------------------------------------------------------------------
 Center     Atomic      Atomic             Coordinates (Angstroms)
 Number     Number       Type             X           Y           Z
 ---------------------------------------------------------------------
      1         16           0        1.079863   -0.112590   -0.097326
      2          6           0       -0.540124    0.529849    0.048006
      3          6           0       -1.744905   -0.254635   -0.008905
      4          1           0       -2.196871   -0.630128    0.903469
      5          1           0       -2.232149   -0.448569   -0.958396
      6          1           0        1.385269   -0.390366    1.210543
      7          1           0       -0.523890    1.619220    0.166995
 ---------------------------------------------------------------------

 SCF Done:  E(UB3LYP) =  -476.395548323     A.U. after   14 cycles

 The electronic state is 4-A.
 Alpha  occ. eigenvalues --  -89.20281 -10.46809 -10.40787  -8.28314  -6.25164
 Alpha  occ. eigenvalues --   -6.24245  -6.23894  -1.10160  -0.97269  -0.83455
 Alpha  occ. eigenvalues --   -0.72463  -0.69054  -0.66565  -0.64189  -0.58159
 Alpha  occ. eigenvalues --   -0.46716  -0.44407
 Alpha virt. eigenvalues --   -0.23409  -0.21630  -0.14821  -0.12840  -0.12108
 Alpha virt. eigenvalues --   -0.11364  -0.09422  -0.08544  -0.08097  -0.06904
 Alpha virt. eigenvalues --   -0.05845  -0.04533  -0.03460  -0.03140  -0.02235

  Beta  occ. eigenvalues --  -89.19611 -10.45512 -10.39368  -8.27675  -6.23811
  Beta  occ. eigenvalues --   -6.23460  -6.23184  -1.05691  -0.92477  -0.79420
  Beta  occ. eigenvalues --   -0.69587  -0.65677  -0.63627  -0.61809
  Beta virt. eigenvalues --   -0.44342  -0.32951  -0.29317  -0.21821  -0.18108
  Beta virt. eigenvalues --   -0.13867  -0.12090  -0.11002  -0.10851  -0.08108
  Beta virt. eigenvalues --   -0.07819  -0.07180  -0.06189  -0.05160  -0.03272

 Mulliken charges and spin densities:
               1          2
     1  S    0.394161   1.026752
     2  C   -0.037609   0.809940
     3  C   -0.206093   0.991542
     4  H    0.207077   0.026790
     5  H    0.206258   0.025883
     6  H    0.205025   0.067016
     7  H    0.231180   0.052078
 Sum of Mulliken charges =   1.00000   3.00000

 Dipole moment (field-independent basis, Debye):
    X=              0.9436    Y=              0.0909    Z=              0.9920  Tot=              1.3721
 Quadrupole moment (field-independent basis, Debye-Ang):
   XX=            -13.5736   YY=            -20.9071   ZZ=            -21.0620
   XY=             -0.0090   XZ=              1.7360   YZ=             -0.3837

  Exact polarizability:  55.510  -0.704  32.843   1.906  -0.727  32.249
 Approx polarizability:  79.400  -3.313  49.018   2.726  -1.420  48.446

                      1                      2                      3
                      A                      A                      A
 Frequencies --    254.9505               339.5243               466.1407
 Red. masses --      1.5414                 4.0233                 1.0471
 Frc consts  --      0.0590                 0.2733                 0.1341
 IR Inten    --     23.4873                 0.4400                11.7974

                      4                      5                      6
                      A                      A                      A
 Frequencies --    513.2685               607.3604               649.1378
 Red. masses --      1.5668                 1.2110                 2.7117
 Frc consts  --      0.2432                 0.2632                 0.6732
 IR Inten    --     45.3361                16.4745                 9.5904

                      7                      8                      9
                      A                      A                      A
 Frequencies --    854.6084               928.0755              1097.4296
 Red. masses --      1.0837                 1.2983                 1.4366
 Frc consts  --      0.4663                 0.6588                 1.0194
 IR Inten    --      2.1262                 0.2300                 1.1047

                     10                     11                     12
                      A                      A                      A
 Frequencies --   1118.5798              1392.0164              2449.5164
 Red. masses --      2.7107                 1.0911                 1.0398
 Frc consts  --      1.9983                 1.2456                 3.6757
 IR Inten    --      4.9769                 5.6466                17.1351

                     13                     14                     15
                      A                      A                      A
 Frequencies --   3013.4483              3092.5368              3200.4245
 Red. masses --      1.0814                 1.0457                 1.1182
 Frc consts  --      5.7858                 5.8923                 6.7483
 IR Inten    --     58.4156                30.5856                16.2848

 - Thermochemistry -
 -------------------
 Temperature   298.150 Kelvin.  Pressure   1.00000 Atm.
 Atom     1 has atomic number 16 and mass  31.97207

 Molecular mass:    60.00337 amu.
 Principal axes and moments of inertia in atomic units:
                           1         2         3
     Eigenvalues --    40.93634 331.23864 347.16437
           X            0.99974   0.01343   0.01840
           Y           -0.01209   0.99739  -0.07114
           Z           -0.01930   0.07090   0.99730
 This molecule is an asymmetric top.
 Rotational symmetry number  1.
 Rotational temperatures (Kelvin)      2.11582     0.26148     0.24949
 Rotational constants (GHZ):          44.08653     5.44846     5.19852
 Zero-point vibrational energy     119489.1 (Joules/Mol)
                                   28.55858 (Kcal/Mol)
 Warning -- explicit consideration of   5 degrees of freedom as
           vibrations may cause significant error
 Vibrational temperatures:    366.82   488.50   670.67   738.48   873.86
          (Kelvin)            933.96  1229.59  1335.29  1578.95  1609.38
                             2002.80  3524.30  4335.67  4449.47  4604.69

 Zero-point correction=                           0.045511 (Hartree/Particle)
 Thermal correction to Energy=                    0.050121
 Thermal correction to Enthalpy=                  0.051065
 Thermal correction to Gibbs Free Energy=         0.018021
 Sum of electronic and zero-point Energies=           -476.350037
 Sum of electronic and thermal Energies=              -476.345428
 Sum of electronic and thermal Enthalpies=            -476.344484
 Sum of electronic and thermal Free Energies=         -476.377527

                     E (Thermal)             CV                S
                      KCal/Mol        Cal/Mol-Kelvin    Cal/Mol-Kelvin
 Total                   31.451             15.490             69.546
 Electronic               0.000              0.000              2.755
 Translational            0.889              2.981             38.196
 Rotational               0.889              2.981             23.069
 Vibrational             29.674              9.528              5.526
 Vibration     1          0.665              1.754              1.696
 Vibration     2          0.719              1.597              1.214
 Vibration     3          0.824              1.325              0.748
 Vibration     4          0.868              1.221              0.626
 Vibration     5          0.966              1.016              0.437

 Optimization completed.
    -- Stationary point found.
 Normal termination of Gaussian 09 at Wed Aug  3 20:27:38 2016.
