 Gaussian 09, Revision E.01,
 Gaussian 09:  EM64L-G09RevE.01 30-Nov-2015

 ------------------------------
 #p b3lyp/6-311++G(3df,2p) freq
 ------------------------------

 ---------
 b3lyp opt
 ---------
 Symbolic Z-matrix:
 Charge =  1 Multiplicity = 2

                         Standard orientation:
 ---------------------------------------------------------------------
 Center     Atomic      Atomic             Coordinates (Angstroms)
 Number     Number       Type             X           Y           Z
 ---------------------------------------------------------------------
      1         16           0       -0.583095   -0.842034    0.000000
      2          6           0        0.000000    0.743835   -0.000000
      3          6           0        1.355755    0.975074   -0.000000
      4          1           0        2.077911    0.167457   -0.000000
      5          1           0        1.732515    1.989661   -0.000000
      6          1           0       -1.904581   -0.558445    0.000000
      7          1           0       -0.710861    1.560417   -0.000000
 ---------------------------------------------------------------------

 SCF Done:  E(UB3LYP) =  -476.527096815     A.U. after   14 cycles

 The electronic state is 2-A".
 Alpha  occ. eigenvalues --  -89.15381 -10.47434 -10.45329  -8.23748  -6.20038
 Alpha  occ. eigenvalues --   -6.19849  -6.19458  -1.09457  -0.98305  -0.82175
 Alpha  occ. eigenvalues --   -0.75014  -0.68384  -0.64576  -0.61190  -0.59972
 Alpha  occ. eigenvalues --   -0.50585
 Alpha virt. eigenvalues --   -0.27263  -0.22824  -0.17703  -0.14140  -0.13297
 Alpha virt. eigenvalues --   -0.12821  -0.10177  -0.08505  -0.07543  -0.06981
 Alpha virt. eigenvalues --   -0.06950  -0.05746  -0.05446  -0.03182  -0.02438

  Beta  occ. eigenvalues --  -89.15026 -10.47412 -10.44584  -8.23425  -6.19639
  Beta  occ. eigenvalues --   -6.19266  -6.18946  -1.08239  -0.96038  -0.81300
  Beta  occ. eigenvalues --   -0.74677  -0.67785  -0.64024  -0.59382  -0.57445
  Beta virt. eigenvalues --   -0.40313  -0.23974  -0.22555  -0.17056  -0.13855
  Beta virt. eigenvalues --   -0.13206  -0.12373  -0.09907  -0.08360  -0.07515
  Beta virt. eigenvalues --   -0.06845  -0.05879  -0.05353  -0.05208  -0.03059

 Mulliken charges and spin densities:
               1          2
     1  S    0.113994   0.535384
     2  C    0.158601  -0.011470
     3  C   -0.172220   0.520362
     4  H    0.232973  -0.014871
     5  H    0.205058  -0.013873
     6  H    0.224937  -0.010991
     7  H    0.236656  -0.004541
 Sum of Mulliken charges =   1.00000   1.00000

 Dipole moment (field-independent basis, Debye):
    X=             -0.2079    Y=              1.2119    Z=             -0.0000  Tot=              1.2296
 Quadrupole moment (field-independent basis, Debye-Ang):
   XX=            -12.6105   YY=            -16.4875   ZZ=            -24.4432
   XY=              4.3639   XZ=             -0.0000   YZ=              0.0000

  Exact polarizability:  51.172  14.428  47.573  -0.000   0.000  26.305
 Approx polarizability:  79.509  24.569  77.699  -0.000  -0.000  39.686

                      1                      2                      3
                     A'                     A"                     A"
 Frequencies --    358.2800               426.0479               482.0277
 Red. masses --      2.9501                 1.1957                 1.1350
 Frc consts  --      0.2231                 0.1279                 0.1554
 IR Inten    --      4.2554                27.4880                 0.0685

                      4                      5                      6
                     A'                     A"                     A'
 Frequencies --    805.9856               928.2055               946.7025
 Red. masses --      3.4334                 1.1736                 1.0782
 Frc consts  --      1.3141                 0.5958                 0.5693
 IR Inten    --      0.7530                33.9233                 4.4089

                      7                      8                      9
                     A"                     A'                     A'
 Frequencies --   1016.8805              1087.0330              1293.9497
 Red. masses --      1.4036                 1.4542                 1.5877
 Frc consts  --      0.8552                 1.0124                 1.5662
 IR Inten    --     13.0166                 1.8305                14.8870

                     10                     11                     12
                     A'                     A'                     A'
 Frequencies --   1380.6363              1527.0728              2630.6397
 Red. masses --      1.7309                 1.4710                 1.0391
 Frc consts  --      1.9439                 2.0211                 4.2367
 IR Inten    --     31.8163                 9.8646                49.1040

                     13                     14                     15
                     A'                     A'                     A'
 Frequencies --   3139.4564              3187.0126              3245.2758
 Red. masses --      1.0556                 1.0942                 1.1205
 Frc consts  --      6.1301                 6.5480                 6.9528
 IR Inten    --     16.9856                16.6991                17.8377

 - Thermochemistry -
 -------------------
 Temperature   298.150 Kelvin.  Pressure   1.00000 Atm.
 Atom     1 has atomic number 16 and mass  31.97207

 Molecular mass:    60.00337 amu.
 Principal axes and moments of inertia in atomic units:
                           1         2         3
     Eigenvalues --    37.80034 289.98346 327.78380
           X            0.69245   0.72146   0.00000
           Y            0.72146  -0.69245   0.00000
           Z           -0.00000  -0.00000   1.00000
 This molecule is an asymmetric top.
 Rotational symmetry number  1.
 Rotational temperatures (Kelvin)      2.29135     0.29869     0.26424
 Rotational constants (GHZ):          47.74405     6.22360     5.50589
 Zero-point vibrational energy     134312.0 (Joules/Mol)
                                   32.10133 (Kcal/Mol)
 Warning -- explicit consideration of   3 degrees of freedom as
           vibrations may cause significant error
 Vibrational temperatures:    515.48   612.99   693.53  1159.63  1335.48
          (Kelvin)           1362.09  1463.06  1564.00  1861.70  1986.43
                             2197.11  3784.90  4516.97  4585.39  4669.22

 Zero-point correction=                           0.051157 (Hartree/Particle)
 Thermal correction to Energy=                    0.055119
 Thermal correction to Enthalpy=                  0.056063
 Thermal correction to Gibbs Free Energy=         0.024831
 Sum of electronic and zero-point Energies=           -476.475940
 Sum of electronic and thermal Energies=              -476.471978
 Sum of electronic and thermal Enthalpies=            -476.471033
 Sum of electronic and thermal Free Energies=         -476.502266

                     E (Thermal)             CV                S
                      KCal/Mol        Cal/Mol-Kelvin    Cal/Mol-Kelvin
 Total                   34.588             12.750             65.734
 Electronic               0.000              0.000              1.377
 Translational            0.889              2.981             38.196
 Rotational               0.889              2.981             22.801
 Vibrational             32.810              6.788              3.360
 Vibration     1          0.733              1.558              1.130
 Vibration     2          0.788              1.414              0.872
 Vibration     3          0.838              1.290              0.705

 Optimization completed.
    -- Stationary point found.
 Normal termination of Gaussian 09 at Wed Aug  3 22:53:18 2016.
