 Gaussian 09, Revision E.01,
 Gaussian 09:  EM64L-G09RevE.01 30-Nov-2015

 ------------------------------
 #p b3lyp/6-311++G(3df,2p) freq
 ------------------------------

 ---------
 b3lyp opt
 ---------
 Symbolic Z-matrix:
 Charge =  2 Multiplicity = 1

                         Standard orientation:
 ---------------------------------------------------------------------
 Center     Atomic      Atomic             Coordinates (Angstroms)
 Number     Number       Type             X           Y           Z
 ---------------------------------------------------------------------
      1         16           0       -0.000074    0.161825   -0.000000
      2          6           0       -0.000074   -0.181206    1.962253
      3          6           0       -0.000074   -0.181206   -1.962253
      4          1           0       -1.019000    1.082420   -0.000000
      5          1           0        1.019838    1.081404    0.000000
      6          1           0        0.000619   -1.289280    2.116836
      7          1           0        0.000619   -1.289280   -2.116836
 ---------------------------------------------------------------------

 SCF Done:  E(RB3LYP) =  -475.655438049     A.U. after   10 cycles

 The electronic state is 1-A'.
 Alpha  occ. eigenvalues --  -89.44902 -10.78386 -10.78386  -8.52863  -6.48938
 Alpha  occ. eigenvalues --   -6.48915  -6.48738  -1.32365  -1.14489  -1.09032
 Alpha  occ. eigenvalues --   -0.97077  -0.91390  -0.90127  -0.78783  -0.72371
 Alpha virt. eigenvalues --   -0.62068  -0.60585  -0.57101  -0.46002  -0.43017
 Alpha virt. eigenvalues --   -0.41461  -0.32663  -0.30283  -0.29550  -0.27834
 Alpha virt. eigenvalues --   -0.24377  -0.23915  -0.23880  -0.22225  -0.20213

 Mulliken charges:
               1
     1  S    0.014559
     2  C    0.394180
     3  C    0.394180
     4  H    0.308706
     5  H    0.308663
     6  H    0.289856
     7  H    0.289856
 Sum of Mulliken charges =   2.00000

 Dipole moment (field-independent basis, Debye):
    X=              0.0023    Y=             -1.5078    Z=              0.0000  Tot=              1.5078
 Quadrupole moment (field-independent basis, Debye-Ang):
   XX=            -16.7653   YY=            -15.6460   ZZ=             -0.5438
   XY=             -0.0000   XZ=              0.0000   YZ=             -0.0000

  Exact polarizability:  28.537  -0.002  32.287   0.000  -0.000  88.661
 Approx polarizability:  49.414   0.002  46.962   0.000  -0.000 227.993

                      1                      2                      3
                     A'                     A"                     A'
 Frequencies --    141.8950               178.7111               201.0533
 Red. masses --      1.0826                 1.0805                 4.0141
 Frc consts  --      0.0128                 0.0203                 0.0956
 IR Inten    --    137.2356                 0.0004                 0.0354

                      4                      5                      6
                     A'                     A'                     A"
 Frequencies --    287.4136               315.7894               339.1901
 Red. masses --      3.8551                10.2254                 8.2564
 Frc consts  --      0.1876                 0.6008                 0.5597
 IR Inten    --     48.5393                 4.5185                63.3862

                      7                      8                      9
                     A"                     A"                     A'
 Frequencies --    808.2932               909.6309               966.6968
 Red. masses --      1.0894                 1.0402                 1.1696
 Frc consts  --      0.4194                 0.5071                 0.6440
 IR Inten    --    220.1972                 0.0001                 8.9907

                     10                     11                     12
                     A'                     A"                     A'
 Frequencies --   1056.6611              1059.6305              2452.8793
 Red. masses --      1.0401                 1.1200                 1.0422
 Frc consts  --      0.6842                 0.7409                 3.6946
 IR Inten    --     11.7804                93.6818               218.4353

                     13                     14                     15
                     A'                     A"                     A'
 Frequencies --   2461.5013              2912.8417              2913.6748
 Red. masses --      1.0344                 1.0871                 1.0868
 Frc consts  --      3.6926                 5.4345                 5.4360
 IR Inten    --    212.4089                71.0869                35.8765

 - Thermochemistry -
 -------------------
 Temperature   298.150 Kelvin.  Pressure   1.00000 Atm.
 Atom     1 has atomic number 16 and mass  31.97207

 Molecular mass:    60.00337 amu.
 Principal axes and moments of inertia in atomic units:
                           1         2         3
     Eigenvalues --    33.66492 369.73851 388.44284
           X            0.00000  -0.00034   1.00000
           Y           -0.00000   1.00000   0.00034
           Z            1.00000   0.00000  -0.00000
 This molecule is an asymmetric top.
 Rotational symmetry number  1.
 Rotational temperatures (Kelvin)      2.57282     0.23426     0.22298
 Rotational constants (GHZ):          53.60895     4.88113     4.64609
 Zero-point vibrational energy     101717.6 (Joules/Mol)
                                   24.31110 (Kcal/Mol)
 Warning -- explicit consideration of   6 degrees of freedom as
           vibrations may cause significant error
 Vibrational temperatures:    204.16   257.13   289.27   413.52   454.35
          (Kelvin)            488.02  1162.95  1308.75  1390.86  1520.30
                             1524.57  3529.14  3541.55  4190.92  4192.12

 Zero-point correction=                           0.038742 (Hartree/Particle)
 Thermal correction to Energy=                    0.044826
 Thermal correction to Enthalpy=                  0.045770
 Thermal correction to Gibbs Free Energy=         0.011008
 Sum of electronic and zero-point Energies=           -475.616696
 Sum of electronic and thermal Energies=              -475.610613
 Sum of electronic and thermal Enthalpies=            -475.609668
 Sum of electronic and thermal Free Energies=         -475.644430

                     E (Thermal)             CV                S
                      KCal/Mol        Cal/Mol-Kelvin    Cal/Mol-Kelvin
 Total                   28.128             18.697             73.162
 Electronic               0.000              0.000              0.000
 Translational            0.889              2.981             38.196
 Rotational               0.889              2.981             23.096
 Vibrational             26.351             12.735             11.871
 Vibration     1          0.615              1.911              2.778
 Vibration     2          0.629              1.868              2.342
 Vibration     3          0.638              1.838              2.123
 Vibration     4          0.685              1.697              1.489
 Vibration     5          0.703              1.643              1.332
 Vibration     6          0.719              1.597              1.216

 Optimization completed.
    -- Stationary point found.
 Normal termination of Gaussian 09 at Wed Aug  3 22:52:07 2016.
