 Gaussian 09, Revision E.01,
 Gaussian 09:  EM64L-G09RevE.01 30-Nov-2015

 ------------------------------
 #p b3lyp/6-311++G(3df,2p) freq
 ------------------------------

 ---------
 b3lyp opt
 ---------
 Symbolic Z-matrix:
 Charge =  2 Multiplicity = 1

                         Standard orientation:
 ---------------------------------------------------------------------
 Center     Atomic      Atomic             Coordinates (Angstroms)
 Number     Number       Type             X           Y           Z
 ---------------------------------------------------------------------
      1         16           0        0.428107   -1.971308   -0.000000
      2         16           0       -0.950167    1.981540    0.000000
      3          6           0        1.006050   -0.196637   -0.000000
      4          6           0        0.000000    0.845023    0.000000
      5          1           0       -0.488411   -1.928678    1.003253
      6          1           0       -0.488411   -1.928678   -1.003253
      7          1           0        1.646735   -0.098340   -0.887465
      8          1           0        1.646735   -0.098340    0.887465
 ---------------------------------------------------------------------

 SCF Done:  E(RB3LYP) =  -874.279759609     A.U. after   12 cycles

 The electronic state is 1-A'.
 Alpha  occ. eigenvalues --  -89.36395 -89.34441 -10.71069 -10.67097  -8.44616
 Alpha  occ. eigenvalues --   -8.42692  -6.40814  -6.40665  -6.40241  -6.38689
 Alpha  occ. eigenvalues --   -6.38621  -6.38613  -1.29684  -1.25531  -1.15657
 Alpha  occ. eigenvalues --   -0.97428  -0.92297  -0.87853  -0.86880  -0.86021
 Alpha  occ. eigenvalues --   -0.79343  -0.76283  -0.76089
 Alpha virt. eigenvalues --   -0.51772  -0.50041  -0.42020  -0.40109  -0.36440
 Alpha virt. eigenvalues --   -0.31684  -0.30212  -0.29508  -0.28010  -0.25755
 Alpha virt. eigenvalues --   -0.25373  -0.23644  -0.22269  -0.21695  -0.20391

 Mulliken charges:
               1
     1  S    0.276624
     2  S    0.376867
     3  C   -0.133977
     4  C    0.438757
     5  H    0.257173
     6  H    0.257173
     7  H    0.263691
     8  H    0.263691
 Sum of Mulliken charges =   2.00000

 Dipole moment (field-independent basis, Debye):
    X=             -0.0588    Y=             -1.4828    Z=              0.0000  Tot=              1.4840
 Quadrupole moment (field-independent basis, Debye-Ang):
   XX=            -22.5439   YY=             -0.3526   ZZ=            -28.2354
   XY=             -6.9850   XZ=              0.0000   YZ=              0.0000

  Exact polarizability:  48.347 -12.165  70.995   0.000   0.000  37.840
 Approx polarizability:  90.000 -31.303 119.912   0.000   0.000  62.471

                      1                      2                      3
                     A'                     A"                     A"
 Frequencies --    151.7449               164.3420               349.1951
 Red. masses --      7.4295                 1.1967                 2.7457
 Frc consts  --      0.1008                 0.0190                 0.1973
 IR Inten    --      1.4207                24.9881                11.9774

                      4                      5                      6
                     A'                     A'                     A"
 Frequencies --    426.1614               625.3241               720.4923
 Red. masses --     11.3211                 4.3887                 1.1885
 Frc consts  --      1.2114                 1.0111                 0.3635
 IR Inten    --      5.2773                14.8717                 0.5736

                      7                      8                      9
                     A'                     A'                     A"
 Frequencies --    793.4357               880.8477               968.3185
 Red. masses --      3.1412                 1.4446                 1.4179
 Frc consts  --      1.1651                 0.6604                 0.7833
 IR Inten    --      6.7979                 1.4310                 8.9012

                     10                     11                     12
                     A'                     A"                     A'
 Frequencies --   1180.6037              1216.3059              1283.1562
 Red. masses --      1.0446                 1.0527                 1.1917
 Frc consts  --      0.8578                 0.9176                 1.1560
 IR Inten    --      8.2338                 2.1082                 3.9653

                     13                     14                     15
                     A'                     A'                     A'
 Frequencies --   1392.7885              1666.1072              2569.7320
 Red. masses --      1.0949                12.7728                 1.0353
 Frc consts  --      1.2514                20.8902                 4.0280
 IR Inten    --     34.0039                98.6779                72.1598

                     16                     17                     18
                     A"                     A'                     A"
 Frequencies --   2580.4251              2987.7238              3032.6059
 Red. masses --      1.0428                 1.0573                 1.1055
 Frc consts  --      4.0912                 5.5607                 5.9899
 IR Inten    --     84.5700               113.5689                78.6138

 - Thermochemistry -
 -------------------
 Temperature   298.150 Kelvin.  Pressure   1.00000 Atm.
 Atom     1 has atomic number 16 and mass  31.97207

 Molecular mass:    91.97544 amu.
 Principal axes and moments of inertia in atomic units:
                           1         2         3
     Eigenvalues --    88.722731075.982491138.87715
           X           -0.33772   0.94125   0.00000
           Y            0.94125   0.33772  -0.00000
           Z            0.00000   0.00000   1.00000
 This molecule is an asymmetric top.
 Rotational symmetry number  1.
 Rotational temperatures (Kelvin)      0.97623     0.08050     0.07605
 Rotational constants (GHZ):          20.34136     1.67730     1.58467
 Zero-point vibrational energy     137506.6 (Joules/Mol)
                                   32.86487 (Kcal/Mol)
 Warning -- explicit consideration of   4 degrees of freedom as
           vibrations may cause significant error
 Vibrational temperatures:    218.33   236.45   502.41   613.15   899.70
          (Kelvin)           1036.63  1141.58  1267.34  1393.19  1698.62
                             1749.99  1846.17  2003.91  2397.15  3697.27
                             3712.65  4298.66  4363.24

 Zero-point correction=                           0.052374 (Hartree/Particle)
 Thermal correction to Energy=                    0.057599
 Thermal correction to Enthalpy=                  0.058543
 Thermal correction to Gibbs Free Energy=         0.023314
 Sum of electronic and zero-point Energies=           -874.227386
 Sum of electronic and thermal Energies=              -874.222160
 Sum of electronic and thermal Enthalpies=            -874.221216
 Sum of electronic and thermal Free Energies=         -874.256445

                     E (Thermal)             CV                S
                      KCal/Mol        Cal/Mol-Kelvin    Cal/Mol-Kelvin
 Total                   36.144             16.831             74.146
 Electronic               0.000              0.000              0.000
 Translational            0.889              2.981             39.469
 Rotational               0.889              2.981             26.189
 Vibrational             34.367             10.869              8.488
 Vibration     1          0.619              1.901              2.650
 Vibration     2          0.623              1.886              2.499
 Vibration     3          0.726              1.577              1.170
 Vibration     4          0.788              1.413              0.871

 Optimization completed.
    -- Stationary point found.
 Normal termination of Gaussian 09 at Wed Aug  3 22:50:17 2016.
