 Gaussian 09, Revision E.01,
 Gaussian 09:  EM64L-G09RevE.01 30-Nov-2015

 ------------------------------
 #p b3lyp/6-311++G(3df,2p) freq
 ------------------------------

 ---------
 b3lyp opt
 ---------
 Symbolic Z-matrix:
 Charge =  2 Multiplicity = 1

                         Standard orientation:
 ---------------------------------------------------------------------
 Center     Atomic      Atomic             Coordinates (Angstroms)
 Number     Number       Type             X           Y           Z
 ---------------------------------------------------------------------
      1         16           0        0.000000    0.950807    0.000000
      2          6           0       -0.636217   -1.606327   -0.000000
      3          6           0        0.552422   -0.879617   -0.000000
      4          1           0       -0.920423    0.933095    1.016035
      5          1           0       -0.920423    0.933095   -1.016035
      6          1           0        1.171808   -1.081719    0.910190
      7          1           0        1.171808   -1.081719   -0.910190
 ---------------------------------------------------------------------

 SCF Done:  E(RB3LYP) =  -475.824770906     A.U. after   11 cycles

 The electronic state is 1-A'.
 Alpha  occ. eigenvalues --  -89.45165 -10.84495 -10.72855  -8.53158  -6.49466
 Alpha  occ. eigenvalues --   -6.49118  -6.48795  -1.36499  -1.25814  -1.06205
 Alpha  occ. eigenvalues --   -0.98969  -0.94622  -0.92843  -0.86447  -0.81329
 Alpha virt. eigenvalues --   -0.63570  -0.61986  -0.48471  -0.46665  -0.43158
 Alpha virt. eigenvalues --   -0.35405  -0.33018  -0.31256  -0.29430  -0.29246
 Alpha virt. eigenvalues --   -0.25288  -0.25245  -0.24733  -0.21579  -0.20028

 Mulliken charges:
               1
     1  S    0.347439
     2  C    0.337681
     3  C    0.132125
     4  H    0.305701
     5  H    0.305701
     6  H    0.285676
     7  H    0.285676
 Sum of Mulliken charges =   2.00000

 Dipole moment (field-independent basis, Debye):
    X=              0.1887    Y=             -1.0634    Z=              0.0000  Tot=              1.0800
 Quadrupole moment (field-independent basis, Debye-Ang):
   XX=            -16.1011   YY=             -6.9319   ZZ=            -15.5624
   XY=             -5.1531   XZ=              0.0000   YZ=             -0.0000

  Exact polarizability:  31.580  -0.466  45.245  -0.000  -0.000  29.090
 Approx polarizability:  53.587   3.640  81.097   0.000   0.000  48.112

                      1                      2                      3
                     A'                     A"                     A"
 Frequencies --    120.5191               134.4700               437.0795
 Red. masses --      9.0107                 1.2165                 1.3435
 Frc consts  --      0.0771                 0.0130                 0.1512
 IR Inten    --      7.5935                45.5439                 0.9930

                      4                      5                      6
                     A'                     A"                     A'
 Frequencies --    538.7454               792.5093               816.9353
 Red. masses --      8.4745                 1.0134                 1.0845
 Frc consts  --      1.4492                 0.3750                 0.4265
 IR Inten    --      1.4806                 0.6763                46.3625

                      7                      8                      9
                     A'                     A"                     A'
 Frequencies --    989.3471              1030.0897              1150.7671
 Red. masses --      1.2844                 1.0972                 1.0758
 Frc consts  --      0.7407                 0.6860                 0.8393
 IR Inten    --      6.5430                10.4906                21.8858

                     10                     11                     12
                     A'                     A'                     A'
 Frequencies --   1206.0599              1355.3390              2487.0027
 Red. masses --      1.0525                 4.2225                 1.0355
 Frc consts  --      0.9020                 4.5699                 3.7736
 IR Inten    --     52.6990               310.9399               152.3218

                     13                     14                     15
                     A"                     A'                     A"
 Frequencies --   2495.0540              2810.4514              2838.6304
 Red. masses --      1.0438                 1.0555                 1.0989
 Frc consts  --      3.8286                 4.9119                 5.2169
 IR Inten    --    151.6955               297.4342               206.2148

 - Thermochemistry -
 -------------------
 Temperature   298.150 Kelvin.  Pressure   1.00000 Atm.
 Atom     1 has atomic number 16 and mass  31.97207

 Molecular mass:    60.00337 amu.
 Principal axes and moments of inertia in atomic units:
                           1         2         3
     Eigenvalues --    59.51072 275.29864 308.02161
           X            0.03558   0.99937   0.00000
           Y            0.99937  -0.03558   0.00000
           Z           -0.00000  -0.00000   1.00000
 This molecule is an asymmetric top.
 Rotational symmetry number  1.
 Rotational temperatures (Kelvin)      1.45543     0.31462     0.28119
 Rotational constants (GHZ):          30.32632     6.55558     5.85914
 Zero-point vibrational energy     114859.4 (Joules/Mol)
                                   27.45207 (Kcal/Mol)
 Warning -- explicit consideration of   4 degrees of freedom as
           vibrations may cause significant error
 Vibrational temperatures:    173.40   193.47   628.86   775.13  1140.24
          (Kelvin)           1175.39  1423.45  1482.07  1655.70  1735.25
                             1950.03  3578.24  3589.82  4043.61  4084.15

 Zero-point correction=                           0.043748 (Hartree/Particle)
 Thermal correction to Energy=                    0.048690
 Thermal correction to Enthalpy=                  0.049634
 Thermal correction to Gibbs Free Energy=         0.016655
 Sum of electronic and zero-point Energies=           -475.781023
 Sum of electronic and thermal Energies=              -475.776081
 Sum of electronic and thermal Enthalpies=            -475.775136
 Sum of electronic and thermal Free Energies=         -475.808116

                     E (Thermal)             CV                S
                      KCal/Mol        Cal/Mol-Kelvin    Cal/Mol-Kelvin
 Total                   30.554             14.955             69.412
 Electronic               0.000              0.000              0.000
 Translational            0.889              2.981             38.196
 Rotational               0.889              2.981             23.138
 Vibrational             28.776              8.993              8.078
 Vibration     1          0.609              1.932              3.092
 Vibration     2          0.613              1.919              2.881
 Vibration     3          0.797              1.389              0.836
 Vibration     4          0.894              1.164              0.568

 Optimization completed.
    -- Stationary point found.
 Normal termination of Gaussian 09 at Wed Aug  3 22:52:27 2016.
