 Gaussian 09, Revision E.01,
 Gaussian 09:  EM64L-G09RevE.01 30-Nov-2015

 ------------------------------
 #p b3lyp/6-311++G(3df,2p) freq
 ------------------------------

 ---------
 b3lyp opt
 ---------
 Symbolic Z-matrix:
 Charge =  0 Multiplicity = 1

                         Standard orientation:
 ---------------------------------------------------------------------
 Center     Atomic      Atomic             Coordinates (Angstroms)
 Number     Number       Type             X           Y           Z
 ---------------------------------------------------------------------
      1         16           0       -1.471529   -0.292979   -0.037721
      2         16           0        1.531512   -0.171904   -0.073326
      3          6           0        0.001677    0.793842    0.045841
      4          1           0       -0.010764    1.374209    0.962891
      5          1           0        1.401145   -0.822158    1.094683
      6          1           0        0.022559    1.468302   -0.806447
      7          1           0       -2.382737    0.654722    0.250567
 ---------------------------------------------------------------------

 SCF Done:  E(RB3LYP) =  -836.969031888     A.U. after   10 cycles

 The electronic state is 1-A.
 Alpha  occ. eigenvalues --  -88.86069 -88.85483 -10.24103  -7.94684  -7.94088
 Alpha  occ. eigenvalues --   -5.91051  -5.90703  -5.90461  -5.90116  -5.90115
 Alpha  occ. eigenvalues --   -5.89499  -0.82463  -0.73077  -0.63128  -0.48040
 Alpha  occ. eigenvalues --   -0.45664  -0.41724  -0.35529  -0.34808  -0.26156
 Alpha  occ. eigenvalues --   -0.25144
 Alpha virt. eigenvalues --   -0.02961  -0.00607  -0.00090   0.01366   0.01957
 Alpha virt. eigenvalues --    0.02845   0.05479   0.06282   0.06464   0.07100
 Alpha virt. eigenvalues --    0.07443   0.08604   0.09119   0.11218   0.11458

 Mulliken charges:
               1
     1  S   -0.260153
     2  S   -0.235875
     3  C   -0.049959
     4  H    0.152481
     5  H    0.126087
     6  H    0.147702
     7  H    0.119717
 Sum of Mulliken charges =  -0.00000

 Dipole moment (field-independent basis, Debye):
    X=             -0.3820    Y=              1.5108    Z=              0.8859  Tot=              1.7925
 Quadrupole moment (field-independent basis, Debye-Ang):
   XX=            -34.9973   YY=            -32.9945   ZZ=            -34.3561
   XY=             -2.8554   XZ=              0.2267   YZ=             -1.0834

  Exact polarizability:  72.283  -0.749  51.414   0.682  -0.255  48.387
 Approx polarizability: 102.387  -3.461  82.418  -0.262  -1.821  76.515

                      1                      2                      3
                      A                      A                      A
 Frequencies --    190.9428               227.3185               271.4583
 Red. masses --      1.0973                 2.8367                 1.4481
 Frc consts  --      0.0236                 0.0864                 0.0629
 IR Inten    --      9.7028                 8.0762                16.6341

                      4                      5                      6
                      A                      A                      A
 Frequencies --    637.8193               736.6616               760.6041
 Red. masses --      3.7412                 6.6934                 1.1437
 Frc consts  --      0.8967                 2.1401                 0.3898
 IR Inten    --      0.6329                14.6026                 1.3054

                      7                      8                      9
                      A                      A                      A
 Frequencies --    930.3630               980.6990              1164.7402
 Red. masses --      1.2133                 1.2252                 1.0491
 Frc consts  --      0.6188                 0.6943                 0.8385
 IR Inten    --      3.7277                 9.0849                 7.7719

                     10                     11                     12
                      A                      A                      A
 Frequencies --   1243.8594              1461.5498              2649.7755
 Red. masses --      1.1559                 1.0771                 1.0382
 Frc consts  --      1.0537                 1.3556                 4.2950
 IR Inten    --     28.5210                 1.7562                 8.1518

                     13                     14                     15
                      A                      A                      A
 Frequencies --   2672.9327              3072.0751              3130.1154
 Red. masses --      1.0384                 1.0549                 1.1119
 Frc consts  --      4.3713                 5.8659                 6.4185
 IR Inten    --      0.4368                 8.6398                 1.2631

 - Thermochemistry -
 -------------------
 Temperature   298.150 Kelvin.  Pressure   1.00000 Atm.
 Atom     1 has atomic number 16 and mass  31.97207

 Molecular mass:    79.97544 amu.
 Principal axes and moments of inertia in atomic units:
                           1         2         3
     Eigenvalues --    69.17298 553.58331 600.99372
           X            0.99979  -0.01961   0.00668
           Y            0.01988   0.99892  -0.04208
           Z           -0.00585   0.04221   0.99909
 This molecule is an asymmetric top.
 Rotational symmetry number  1.
 Rotational temperatures (Kelvin)      1.25213     0.15646     0.14412
 Rotational constants (GHZ):          26.09026     3.26011     3.00293
 Zero-point vibrational energy     120409.6 (Joules/Mol)
                                   28.77859 (Kcal/Mol)
 Warning -- explicit consideration of   3 degrees of freedom as
           vibrations may cause significant error
 Vibrational temperatures:    274.72   327.06   390.57   917.68  1059.89
          (Kelvin)           1094.34  1338.58  1411.01  1675.80  1789.63
                             2102.84  3812.43  3845.75  4420.03  4503.53

 Zero-point correction=                           0.045862 (Hartree/Particle)
 Thermal correction to Energy=                    0.050702
 Thermal correction to Enthalpy=                  0.051646
 Thermal correction to Gibbs Free Energy=         0.018092
 Sum of electronic and zero-point Energies=           -836.923170
 Sum of electronic and thermal Energies=              -836.918330
 Sum of electronic and thermal Enthalpies=            -836.917386
 Sum of electronic and thermal Free Energies=         -836.950940

                     E (Thermal)             CV                S
                      KCal/Mol        Cal/Mol-Kelvin    Cal/Mol-Kelvin
 Total                   31.816             15.124             70.621
 Electronic               0.000              0.000              0.000
 Translational            0.889              2.981             39.052
 Rotational               0.889              2.981             24.646
 Vibrational             30.039              9.162              6.923
 Vibration     1          0.634              1.852              2.219
 Vibration     2          0.651              1.799              1.900
 Vibration     3          0.675              1.726              1.587

 Normal termination of Gaussian 09 at Wed Aug  3 20:31:03 2016.
