 Gaussian 09, Revision E.01,
 Gaussian 09:  EM64L-G09RevE.01 30-Nov-2015

 ------------------------------
 #p b3lyp/6-311++G(3df,2p) freq
 ------------------------------

 ---------
 b3lyp opt
 ---------
 Symbolic Z-matrix:
 Charge =  2 Multiplicity = 1

                         Standard orientation:
 ---------------------------------------------------------------------
 Center     Atomic      Atomic             Coordinates (Angstroms)
 Number     Number       Type             X           Y           Z
 ---------------------------------------------------------------------
      1         16           0        0.089570   -0.620229   -0.000000
      2          6           0        0.089570    1.008606    0.000000
      3          1           0       -1.268634   -0.867776   -0.000000
      4          1           0       -0.857508    1.571487    0.528661
      5          1           0       -0.857508    1.571487   -0.528661
      6          1           0        1.013117    1.596836    0.000000
 ---------------------------------------------------------------------

 SCF Done:  E(RB3LYP) =  -437.742409436     A.U. after   11 cycles

 The electronic state is 1-A'.
 Alpha  occ. eigenvalues --  -89.50429 -10.80952  -8.58185  -6.54568  -6.54188
 Alpha  occ. eigenvalues --   -6.53732  -1.40695  -1.23275  -1.07455  -0.98415
 Alpha  occ. eigenvalues --   -0.91069  -0.90994
 Alpha virt. eigenvalues --   -0.70871  -0.51828  -0.43937  -0.42118  -0.41543
 Alpha virt. eigenvalues --   -0.37392  -0.34066  -0.29725  -0.29380  -0.28229
 Alpha virt. eigenvalues --   -0.26764  -0.24345  -0.23689  -0.23151  -0.18931

 Mulliken charges:
               1
     1  S    0.762060
     2  C    0.056604
     3  H    0.287920
     4  H    0.308443
     5  H    0.308443
     6  H    0.276531
 Sum of Mulliken charges =   2.00000

 Dipole moment (field-independent basis, Debye):
    X=             -2.7050    Y=              3.5074    Z=             -0.0000  Tot=              4.4293
 Quadrupole moment (field-independent basis, Debye-Ang):
   XX=             -9.6598   YY=             -0.4788   ZZ=            -14.9074
   XY=             -1.2536   XZ=              0.0000   YZ=             -0.0000

  Exact polarizability:  23.062  -0.570  36.779   0.000  -0.000  17.918
 Approx polarizability:  36.312  -5.012  79.810   0.000  -0.000  28.455

                      1                      2                      3
                     A"                     A"                     A'
 Frequencies --    444.7678               670.5715               755.0667
 Red. masses --      1.1017                 1.1321                 1.1179
 Frc consts  --      0.1284                 0.2999                 0.3755
 IR Inten    --      5.3023                20.8404                13.0934

                      4                      5                      6
                     A'                     A"                     A'
 Frequencies --    857.7755               984.3019               989.1855
 Red. masses --      1.0730                 1.1286                 3.7768
 Frc consts  --      0.4652                 0.6443                 2.1774
 IR Inten    --    496.5947                84.0781                 6.9120

                      7                      8                      9
                     A'                     A'                     A"
 Frequencies --   1065.2382              1457.3412              2018.5737
 Red. masses --      1.3083                 1.1363                 1.0299
 Frc consts  --      0.8747                 1.4219                 2.4725
 IR Inten    --     14.8531                15.3431               203.4860

                     10                     11                     12
                     A'                     A'                     A'
 Frequencies --   2371.1877              2438.9982              3084.5012
 Red. masses --      1.0855                 1.0423                 1.0964
 Frc consts  --      3.5959                 3.6530                 6.1457
 IR Inten    --    283.5663               172.6906               190.0160

 - Thermochemistry -
 -------------------
 Temperature   298.150 Kelvin.  Pressure   1.00000 Atm.
 Atom     1 has atomic number 16 and mass  31.97207

 Molecular mass:    48.00337 amu.
 Principal axes and moments of inertia in atomic units:
                           1         2         3
     Eigenvalues --    17.73370 118.13498 131.84524
           X           -0.01824   0.99983   0.00000
           Y            0.99983   0.01824   0.00000
           Z           -0.00000  -0.00000   1.00000
 This molecule is an asymmetric top.
 Rotational symmetry number  1.
 Rotational temperatures (Kelvin)      4.88414     0.73318     0.65694
 Rotational constants (GHZ):         101.76901    15.27694    13.68833
 Zero-point vibrational energy     102505.1 (Joules/Mol)
                                   24.49930 (Kcal/Mol)
 Warning -- explicit consideration of   1 degrees of freedom as
           vibrations may cause significant error
 Vibrational temperatures:    639.92   964.80  1086.37  1234.15  1416.19
          (Kelvin)           1423.22  1532.64  2096.79  2904.27  3411.61
                             3509.17  4437.90

 Zero-point correction=                           0.039042 (Hartree/Particle)
 Thermal correction to Energy=                    0.042536
 Thermal correction to Enthalpy=                  0.043481
 Thermal correction to Gibbs Free Energy=         0.015147
 Sum of electronic and zero-point Energies=           -437.703367
 Sum of electronic and thermal Energies=              -437.699873
 Sum of electronic and thermal Enthalpies=            -437.698929
 Sum of electronic and thermal Free Energies=         -437.727263

                     E (Thermal)             CV                S
                      KCal/Mol        Cal/Mol-Kelvin    Cal/Mol-Kelvin
 Total                   26.692             10.707             59.634
 Electronic               0.000              0.000              0.000
 Translational            0.889              2.981             37.530
 Rotational               0.889              2.981             20.252
 Vibrational             24.915              4.745              1.852
 Vibration     1          0.804              1.372              0.812

 Optimization completed.
    -- Stationary point found.
 Normal termination of Gaussian 09 at Wed Aug  3 22:54:19 2016.
