 Gaussian 09, Revision E.01,
 Gaussian 09:  EM64L-G09RevE.01 30-Nov-2015

 ------------------------------
 #p b3lyp/6-311++G(3df,2p) freq
 ------------------------------

 ---------
 b3lyp opt
 ---------
 Symbolic Z-matrix:
 Charge =  0 Multiplicity = 1

                         Standard orientation:
 ---------------------------------------------------------------------
 Center     Atomic      Atomic             Coordinates (Angstroms)
 Number     Number       Type             X           Y           Z
 ---------------------------------------------------------------------
      1         16           0        1.598382    0.203460   -0.075899
      2         16           0       -0.674426   -0.489142    0.075683
      3          6           0       -1.928561    0.558296   -0.012577
      4          1           0        1.770938    0.018775    1.242294
      5          1           0       -0.557230   -0.854812   -1.209099
      6          1           0       -2.125300    1.149948   -0.893320
      7          1           0       -2.300337    0.907211    0.939053
 ---------------------------------------------------------------------

 SCF Done:  E(RB3LYP) =  -836.906770690     A.U. after   13 cycles

 The electronic state is 1-A.
 Alpha  occ. eigenvalues --  -88.94025 -88.82878 -10.19955  -8.02009  -7.91490
 Alpha  occ. eigenvalues --   -5.98180  -5.98103  -5.97707  -5.87726  -5.87551
 Alpha  occ. eigenvalues --   -5.87002  -0.85257  -0.70434  -0.63912  -0.50303
 Alpha  occ. eigenvalues --   -0.44696  -0.41220  -0.38990  -0.34169  -0.24591
 Alpha  occ. eigenvalues --   -0.22726
 Alpha virt. eigenvalues --   -0.07817  -0.03803   0.00368   0.00555   0.02496
 Alpha virt. eigenvalues --    0.02643   0.05150   0.06101   0.06499   0.06714
 Alpha virt. eigenvalues --    0.07572   0.08447   0.08723   0.10828   0.11135

 Mulliken charges:
               1
     1  S   -0.345357
     2  S    0.204681
     3  C   -0.403209
     4  H    0.111110
     5  H    0.133188
     6  H    0.157868
     7  H    0.141720
 Sum of Mulliken charges =  -0.00000

 Dipole moment (field-independent basis, Debye):
    X=             -2.0848    Y=             -0.4185    Z=             -0.0401  Tot=              2.1267
 Quadrupole moment (field-independent basis, Debye-Ang):
   XX=            -38.3944   YY=            -35.6322   ZZ=            -30.4161
   XY=             -1.7377   XZ=              1.8440   YZ=              0.7141

  Exact polarizability: 119.838  -4.153  53.481   1.122   0.996  48.416
 Approx polarizability: 253.309 -10.465  83.666   0.396   1.373  80.985

                      1                      2                      3
                      A                      A                      A
 Frequencies --    177.1738               200.7063               288.7396
 Red. masses --      1.0920                 4.8469                13.8265
 Frc consts  --      0.0202                 0.1150                 0.6792
 IR Inten    --      9.2550                36.5727                82.6766

                      4                      5                      6
                      A                      A                      A
 Frequencies --    444.9826               650.3779               694.8040
 Red. masses --      1.0920                 1.0628                 1.2978
 Frc consts  --      0.1274                 0.2649                 0.3691
 IR Inten    --     12.2504                 3.1589               192.5550

                      7                      8                      9
                      A                      A                      A
 Frequencies --    730.8182               927.7048              1000.1780
 Red. masses --      1.0940                 1.1362                 3.7314
 Frc consts  --      0.3443                 0.5761                 2.1993
 IR Inten    --      8.3804                24.1744                42.6337

                     10                     11                     12
                      A                      A                      A
 Frequencies --   1109.9786              1436.8789              2673.3754
 Red. masses --      1.1914                 1.1429                 1.0392
 Frc consts  --      0.8649                 1.3902                 4.3759
 IR Inten    --      1.7107                 9.4384                 2.4587

                     13                     14                     15
                      A                      A                      A
 Frequencies --   2683.9642              3148.5176              3257.5247
 Red. masses --      1.0388                 1.0495                 1.1205
 Frc consts  --      4.4090                 6.1297                 7.0057
 IR Inten    --      1.2945                 2.4502                 0.2131

 - Thermochemistry -
 -------------------
 Temperature   298.150 Kelvin.  Pressure   1.00000 Atm.
 Atom     1 has atomic number 16 and mass  31.97207

 Molecular mass:    79.97544 amu.
 Principal axes and moments of inertia in atomic units:
                           1         2         3
     Eigenvalues --    73.28916 568.64996 606.33976
           X            0.99942  -0.03033   0.01522
           Y            0.02908   0.99665   0.07639
           Z           -0.01748  -0.07591   0.99696
 This molecule is an asymmetric top.
 Rotational symmetry number  1.
 Rotational temperatures (Kelvin)      1.18181     0.15231     0.14285
 Rotational constants (GHZ):          24.62494     3.17373     2.97645
 Zero-point vibrational energy     116191.6 (Joules/Mol)
                                   27.77047 (Kcal/Mol)
 Warning -- explicit consideration of   4 degrees of freedom as
           vibrations may cause significant error
 Vibrational temperatures:    254.91   288.77   415.43   640.23   935.75
          (Kelvin)            999.67  1051.48  1334.76  1439.03  1597.01
                             2067.35  3846.39  3861.62  4530.01  4686.85

 Zero-point correction=                           0.044255 (Hartree/Particle)
 Thermal correction to Energy=                    0.049413
 Thermal correction to Enthalpy=                  0.050357
 Thermal correction to Gibbs Free Energy=         0.016235
 Sum of electronic and zero-point Energies=           -836.862516
 Sum of electronic and thermal Energies=              -836.857358
 Sum of electronic and thermal Enthalpies=            -836.856414
 Sum of electronic and thermal Free Energies=         -836.890536

                     E (Thermal)             CV                S
                      KCal/Mol        Cal/Mol-Kelvin    Cal/Mol-Kelvin
 Total                   31.007             16.482             71.816
 Electronic               0.000              0.000              0.000
 Translational            0.889              2.981             39.052
 Rotational               0.889              2.981             24.739
 Vibrational             29.230             10.521              8.026
 Vibration     1          0.628              1.870              2.358
 Vibration     2          0.638              1.839              2.127
 Vibration     3          0.685              1.695              1.481
 Vibration     4          0.804              1.372              0.811

 Normal termination of Gaussian 09 at Wed Aug  3 20:31:05 2016.
