 Gaussian 09, Revision E.01,
 Gaussian 09:  EM64L-G09RevE.01 30-Nov-2015

 ------------------------------
 #p b3lyp/6-311++G(3df,2p) freq
 ------------------------------

 ---------
 b3lyp opt
 ---------
 Symbolic Z-matrix:
 Charge =  1 Multiplicity = 2

                         Standard orientation:
 ---------------------------------------------------------------------
 Center     Atomic      Atomic             Coordinates (Angstroms)
 Number     Number       Type             X           Y           Z
 ---------------------------------------------------------------------
      1         16           0       -0.000000    1.363334   -0.244440
      2         16           0        0.000000   -1.363334   -0.244440
      3          6           0       -0.000000   -0.000000    0.955313
      4          1           0       -0.896356    0.037574    1.564637
      5          1           0       -1.320546   -1.334385   -0.519538
      6          1           0        0.896356   -0.037574    1.564637
      7          1           0        1.320546    1.334385   -0.519538
 ---------------------------------------------------------------------

 SCF Done:  E(UB3LYP) =  -836.651378246     A.U. after   12 cycles

 The electronic state is 2-B.
 Alpha  occ. eigenvalues --  -89.12896 -89.12896 -10.46659  -8.21229  -8.21228
 Alpha  occ. eigenvalues --   -6.17606  -6.17606  -6.17234  -6.17234  -6.16953
 Alpha  occ. eigenvalues --   -6.16953  -1.08235  -0.97593  -0.86941  -0.72230
 Alpha  occ. eigenvalues --   -0.68514  -0.64046  -0.61504  -0.58087  -0.54192
 Alpha  occ. eigenvalues --   -0.48354
 Alpha virt. eigenvalues --   -0.23686  -0.19988  -0.19854  -0.17999  -0.13410
 Alpha virt. eigenvalues --   -0.12556  -0.11578  -0.09856  -0.08521  -0.07657
 Alpha virt. eigenvalues --   -0.07088  -0.06742  -0.06263  -0.05893  -0.02837

  Beta  occ. eigenvalues --  -89.12525 -89.12525 -10.46671  -8.20891  -8.20890
  Beta  occ. eigenvalues --   -6.17140  -6.17140  -6.16797  -6.16797  -6.16294
  Beta  occ. eigenvalues --   -6.16294  -1.07038  -0.95531  -0.86105  -0.71962
  Beta  occ. eigenvalues --   -0.67502  -0.63740  -0.60117  -0.57369  -0.50463
  Beta virt. eigenvalues --   -0.38507  -0.23304  -0.19488  -0.19176  -0.17487
  Beta virt. eigenvalues --   -0.13244  -0.12328  -0.11360  -0.09512  -0.07991
  Beta virt. eigenvalues --   -0.07457  -0.06900  -0.06548  -0.06007  -0.05694

 Mulliken charges and spin densities:
               1          2
     1  S    0.163351   0.524548
     2  S    0.163351   0.524548
     3  C   -0.125468  -0.041934
     4  H    0.201841   0.001250
     5  H    0.197542  -0.004831
     6  H    0.201841   0.001250
     7  H    0.197542  -0.004831
 Sum of Mulliken charges =   1.00000   1.00000

 Dipole moment (field-independent basis, Debye):
    X=              0.0000    Y=              0.0000    Z=              0.8838  Tot=              0.8838
 Quadrupole moment (field-independent basis, Debye-Ang):
   XX=            -25.4440   YY=            -22.6902   ZZ=            -27.2886
   XY=              3.3426   XZ=              0.0000   YZ=             -0.0000

  Exact polarizability:  40.282   5.006  84.318  -0.000  -0.000  42.087
 Approx polarizability:  67.429   5.155 159.199   0.000  -0.000  67.686

                      1                      2                      3
                      A                      B                      A
 Frequencies --    254.6280               375.4847               380.7678
 Red. masses --     12.9196                 1.0808                 1.0413
 Frc consts  --      0.4935                 0.0898                 0.0890
 IR Inten    --      0.3378                18.1868                16.7357

                      4                      5                      6
                      B                      A                      B
 Frequencies --    634.9887               718.9666               756.6363
 Red. masses --      6.0779                 6.5280                 1.1158
 Frc consts  --      1.4439                 1.9881                 0.3764
 IR Inten    --      9.1348                 0.8656                 1.5308

                      7                      8                      9
                      A                      B                      A
 Frequencies --    874.1727              1039.1378              1160.1170
 Red. masses --      1.0535                 1.2971                 1.0385
 Frc consts  --      0.4743                 0.8252                 0.8235
 IR Inten    --      3.7545                16.0479                 0.0002

                     10                     11                     12
                      B                      A                      B
 Frequencies --   1208.6661              1438.3658              2643.2985
 Red. masses --      1.1504                 1.0719                 1.0392
 Frc consts  --      0.9902                 1.3066                 4.2780
 IR Inten    --      3.8143                 4.9076                67.1796

                     13                     14                     15
                      A                      A                      B
 Frequencies --   2646.9362              3111.3950              3191.0579
 Red. masses --      1.0394                 1.0548                 1.1161
 Frc consts  --      4.2906                 6.0164                 6.6959
 IR Inten    --      3.7596                11.1867                21.8726

 - Thermochemistry -
 -------------------
 Temperature   298.150 Kelvin.  Pressure   1.00000 Atm.
 Atom     1 has atomic number 16 and mass  31.97207

 Molecular mass:    79.97544 amu.
 Principal axes and moments of inertia in atomic units:
                           1         2         3
     Eigenvalues --    90.09352 455.58949 509.75037
           X            0.02966  -0.00000   0.99956
           Y            0.99956  -0.00000  -0.02966
           Z            0.00000   1.00000   0.00000
 This molecule is an asymmetric top.
 Rotational symmetry number  2.
 Rotational temperatures (Kelvin)      0.96138     0.19011     0.16991
 Rotational constants (GHZ):          20.03186     3.96133     3.54044
 Zero-point vibrational energy     122226.2 (Joules/Mol)
                                   29.21275 (Kcal/Mol)
 Warning -- explicit consideration of   3 degrees of freedom as
           vibrations may cause significant error
 Vibrational temperatures:    366.35   540.24   547.84   913.61  1034.43
          (Kelvin)           1088.63  1257.74  1495.09  1669.15  1739.00
                             2069.48  3803.11  3808.35  4476.60  4591.21

 Zero-point correction=                           0.046553 (Hartree/Particle)
 Thermal correction to Energy=                    0.051001
 Thermal correction to Enthalpy=                  0.051945
 Thermal correction to Gibbs Free Energy=         0.019324
 Sum of electronic and zero-point Energies=           -836.604825
 Sum of electronic and thermal Energies=              -836.600377
 Sum of electronic and thermal Enthalpies=            -836.599433
 Sum of electronic and thermal Free Energies=         -836.632054

                     E (Thermal)             CV                S
                      KCal/Mol        Cal/Mol-Kelvin    Cal/Mol-Kelvin
 Total                   32.004             14.626             68.657
 Electronic               0.000              0.000              1.377
 Translational            0.889              2.981             39.052
 Rotational               0.889              2.981             23.174
 Vibrational             30.226              8.664              5.054
 Vibration     1          0.665              1.755              1.698
 Vibration     2          0.746              1.522              1.057
 Vibration     3          0.750              1.511              1.036

 Optimization completed.
    -- Stationary point found.
 Normal termination of Gaussian 09 at Wed Aug  3 22:56:00 2016.
