 Gaussian 09, Revision E.01,
 Gaussian 09:  EM64L-G09RevE.01 30-Nov-2015

 ------------------------------
 #p b3lyp/6-311++G(3df,2p) freq
 ------------------------------

 ---------
 b3lyp opt
 ---------
 Symbolic Z-matrix:
 Charge =  1 Multiplicity = 2

                         Standard orientation:
 ---------------------------------------------------------------------
 Center     Atomic      Atomic             Coordinates (Angstroms)
 Number     Number       Type             X           Y           Z
 ---------------------------------------------------------------------
      1         16           0       -0.060950   -0.247585    1.366257
      2         16           0       -0.060950   -0.247585   -1.366257
      3          6           0       -0.060950    0.948320    0.000000
      4          1           0        0.777628    1.634336    0.000000
      5          1           0        1.273906   -0.439534   -1.418306
      6          1           0       -1.009353    1.477539    0.000000
      7          1           0        1.273906   -0.439534    1.418306
 ---------------------------------------------------------------------

 SCF Done:  E(UB3LYP) =  -836.650569934     A.U. after   12 cycles

 The electronic state is 2-A".
 Alpha  occ. eigenvalues --  -89.12949 -89.12949 -10.46670  -8.21273  -8.21272
 Alpha  occ. eigenvalues --   -6.17649  -6.17649  -6.17275  -6.17275  -6.17000
 Alpha  occ. eigenvalues --   -6.17000  -1.08226  -0.97679  -0.87065  -0.72286
 Alpha  occ. eigenvalues --   -0.66890  -0.66560  -0.59855  -0.58742  -0.54210
 Alpha  occ. eigenvalues --   -0.48430
 Alpha virt. eigenvalues --   -0.23789  -0.20232  -0.19740  -0.17582  -0.13640
 Alpha virt. eigenvalues --   -0.12877  -0.11990  -0.09241  -0.08889  -0.07741
 Alpha virt. eigenvalues --   -0.07284  -0.06809  -0.06670  -0.04542  -0.02947

  Beta  occ. eigenvalues --  -89.12577 -89.12577 -10.46684  -8.20934  -8.20933
  Beta  occ. eigenvalues --   -6.17185  -6.17185  -6.16842  -6.16842  -6.16334
  Beta  occ. eigenvalues --   -6.16334  -1.07026  -0.95593  -0.86237  -0.71930
  Beta  occ. eigenvalues --   -0.66127  -0.65841  -0.58921  -0.57914  -0.50439
  Beta virt. eigenvalues --   -0.38570  -0.23420  -0.19441  -0.19385  -0.16978
  Beta virt. eigenvalues --   -0.13515  -0.12676  -0.11729  -0.08931  -0.08362
  Beta virt. eigenvalues --   -0.07469  -0.07148  -0.06590  -0.06584  -0.04156

 Mulliken charges and spin densities:
               1          2
     1  S    0.163303   0.525863
     2  S    0.163303   0.525863
     3  C   -0.106189  -0.041078
     4  H    0.207273   0.000125
     5  H    0.190311  -0.005525
     6  H    0.191687   0.000276
     7  H    0.190311  -0.005525
 Sum of Mulliken charges =   1.00000   1.00000

 Dipole moment (field-independent basis, Debye):
    X=              1.6726    Y=              0.9882    Z=             -0.0000  Tot=              1.9427
 Quadrupole moment (field-independent basis, Debye-Ang):
   XX=            -25.6434   YY=            -27.5359   ZZ=            -22.2517
   XY=             -1.7650   XZ=              0.0000   YZ=              0.0000

  Exact polarizability:  39.974  -1.683  41.842   0.000  -0.000  85.431
 Approx polarizability:  67.722  -4.000  67.198  -0.000   0.000 161.081

                      1                      2                      3
                     A'                     A"                     A'
 Frequencies --    256.9627               338.8571               390.8763
 Red. masses --     10.1960                 1.0533                 1.0928
 Frc consts  --      0.3967                 0.0713                 0.0984
 IR Inten    --      0.1200                11.7712                16.7264

                      4                      5                      6
                     A"                     A'                     A'
 Frequencies --    640.1179               701.3678               766.8951
 Red. masses --      7.0189                 2.7826                 1.4467
 Frc consts  --      1.6945                 0.8065                 0.5013
 IR Inten    --      7.8672                 2.0937                 1.0727

                      7                      8                      9
                     A"                     A'                     A"
 Frequencies --    855.7955              1057.2764              1142.4026
 Red. masses --      1.0363                 1.2951                 1.0720
 Frc consts  --      0.4472                 0.8529                 0.8243
 IR Inten    --      5.5322                16.6261                 1.0733

                     10                     11                     12
                     A"                     A'                     A"
 Frequencies --   1223.6887              1438.4225              2642.1859
 Red. masses --      1.1097                 1.0720                 1.0395
 Frc consts  --      0.9790                 1.3069                 4.2754
 IR Inten    --      1.6383                 5.1513                29.4257

                     13                     14                     15
                     A'                     A'                     A'
 Frequencies --   2646.0454              3108.4890              3190.6395
 Red. masses --      1.0391                 1.0558                 1.1150
 Frc consts  --      4.2865                 6.0109                 6.6875
 IR Inten    --     28.2395                12.2427                21.1434

 - Thermochemistry -
 -------------------
 Temperature   298.150 Kelvin.  Pressure   1.00000 Atm.
 Atom     1 has atomic number 16 and mass  31.97207

 Molecular mass:    79.97544 amu.
 Principal axes and moments of inertia in atomic units:
                           1         2         3
     Eigenvalues --    89.47635 458.71174 512.22089
           X            0.00000  -0.07648   0.99707
           Y            0.00000   0.99707   0.07648
           Z            1.00000  -0.00000  -0.00000
 This molecule is an asymmetric top.
 Rotational symmetry number  1.
 Rotational temperatures (Kelvin)      0.96801     0.18882     0.16909
 Rotational constants (GHZ):          20.17004     3.93437     3.52337
 Zero-point vibrational energy     122019.2 (Joules/Mol)
                                   29.16330 (Kcal/Mol)
 Warning -- explicit consideration of   3 degrees of freedom as
           vibrations may cause significant error
 Vibrational temperatures:    369.71   487.54   562.38   920.99  1009.11
          (Kelvin)           1103.39  1231.30  1521.18  1643.66  1760.61
                             2069.57  3801.51  3807.06  4472.42  4590.61

 Zero-point correction=                           0.046475 (Hartree/Particle)
 Thermal correction to Energy=                    0.050952
 Thermal correction to Enthalpy=                  0.051896
 Thermal correction to Gibbs Free Energy=         0.018564
 Sum of electronic and zero-point Energies=           -836.604095
 Sum of electronic and thermal Energies=              -836.599618
 Sum of electronic and thermal Enthalpies=            -836.598674
 Sum of electronic and thermal Free Energies=         -836.632006

                     E (Thermal)             CV                S
                      KCal/Mol        Cal/Mol-Kelvin    Cal/Mol-Kelvin
 Total                   31.973             14.694             70.154
 Electronic               0.000              0.000              1.377
 Translational            0.889              2.981             39.052
 Rotational               0.889              2.981             24.556
 Vibrational             30.195              8.732              5.169
 Vibration     1          0.667              1.751              1.682
 Vibration     2          0.719              1.598              1.218
 Vibration     3          0.759              1.490              0.997

 Normal termination of Gaussian 09 at Wed Aug  3 22:55:50 2016.
