 Gaussian 09, Revision E.01,
 Gaussian 09:  EM64L-G09RevE.01 30-Nov-2015

 ------------------------------
 #p b3lyp/6-311++G(3df,2p) freq
 ------------------------------

 ---------
 b3lyp opt
 ---------
 Symbolic Z-matrix:
 Charge =  0 Multiplicity = 1

                         Standard orientation:
 ---------------------------------------------------------------------
 Center     Atomic      Atomic             Coordinates (Angstroms)
 Number     Number       Type             X           Y           Z
 ---------------------------------------------------------------------
      1         16           0       -0.495580   -0.108937   -0.022644
      2          6           0        1.141854    0.059385   -0.035337
      3          1           0       -1.158231    0.424871    1.081253
      4          1           0        1.656602   -0.882817    0.042886
      5          1           0        1.625415    0.978169    0.250442
      6          1           0       -1.045637    0.866459   -0.800251
 ---------------------------------------------------------------------

 SCF Done:  E(RB3LYP) =  -438.652558208     A.U. after   12 cycles

 The electronic state is 1-A.
 Alpha  occ. eigenvalues --  -88.92363 -10.14506  -8.00340  -5.96503  -5.96471
 Alpha  occ. eigenvalues --   -5.96064  -0.83184  -0.63219  -0.46789  -0.46160
 Alpha  occ. eigenvalues --   -0.41598  -0.32616  -0.19843
 Alpha virt. eigenvalues --   -0.02939  -0.00257   0.00448   0.02682   0.04211
 Alpha virt. eigenvalues --    0.04916   0.06888   0.08262   0.08644   0.09082
 Alpha virt. eigenvalues --    0.11011   0.11396   0.13039   0.14358   0.14648

 Mulliken charges:
               1
     1  S    0.077712
     2  C   -0.543510
     3  H    0.065159
     4  H    0.138267
     5  H    0.138254
     6  H    0.124117
 Sum of Mulliken charges =  -0.00000

 Dipole moment (field-independent basis, Debye):
    X=             -1.7758    Y=              0.7133    Z=              0.4677  Tot=              1.9700
 Quadrupole moment (field-independent basis, Debye-Ang):
   XX=            -21.4844   YY=            -20.5242   ZZ=            -22.6601
   XY=             -1.1202   XZ=              0.9198   YZ=             -0.1629

  Exact polarizability:  53.842  -2.622  31.810  -4.508  -0.128  38.273
 Approx polarizability:  84.189  -4.185  46.682  -8.690  -0.610  55.641

                      1                      2                      3
                      A                      A                      A
 Frequencies --    226.3961               563.3730               811.6189
 Red. masses --      1.2492                 1.0806                 1.0529
 Frc consts  --      0.0377                 0.2021                 0.4086
 IR Inten    --     55.4477                81.3156                 7.8314

                      4                      5                      6
                      A                      A                      A
 Frequencies --    908.4922               975.2427              1034.0939
 Red. masses --      1.2670                 3.0893                 1.2817
 Frc consts  --      0.6161                 1.7311                 0.8075
 IR Inten    --      7.7453                67.4575                 4.4945

                      7                      8                      9
                      A                      A                      A
 Frequencies --   1375.1175              1412.2221              2173.7380
 Red. masses --      1.0414                 1.0947                 1.0381
 Frc consts  --      1.1602                 1.2863                 2.8899
 IR Inten    --     75.2157                 5.9545               288.1207

                     10                     11                     12
                      A                      A                      A
 Frequencies --   2447.2723              3163.9409              3281.3390
 Red. masses --      1.0354                 1.0457                 1.1227
 Frc consts  --      3.6536                 6.1675                 7.1225
 IR Inten    --    114.7324                 0.8605                 0.2434

 - Thermochemistry -
 -------------------
 Temperature   298.150 Kelvin.  Pressure   1.00000 Atm.
 Atom     1 has atomic number 16 and mass  31.97207

 Molecular mass:    48.00337 amu.
 Principal axes and moments of inertia in atomic units:
                           1         2         3
     Eigenvalues --    17.60778 119.00184 122.94665
           X            0.99906  -0.04329   0.00305
           Y            0.04332   0.99899  -0.01215
           Z           -0.00252   0.01227   0.99992
 This molecule is an asymmetric top.
 Rotational symmetry number  1.
 Rotational temperatures (Kelvin)      4.91907     0.72784     0.70448
 Rotational constants (GHZ):         102.49683    15.16566    14.67906
 Zero-point vibrational energy     109894.0 (Joules/Mol)
                                   26.26530 (Kcal/Mol)
 Warning -- explicit consideration of   2 degrees of freedom as
           vibrations may cause significant error
 Vibrational temperatures:    325.73   810.57  1167.74  1307.12  1403.15
          (Kelvin)           1487.83  1978.48  2031.87  3127.52  3521.07
                             4552.20  4721.11

 Zero-point correction=                           0.041856 (Hartree/Particle)
 Thermal correction to Energy=                    0.045607
 Thermal correction to Enthalpy=                  0.046551
 Thermal correction to Gibbs Free Energy=         0.017714
 Sum of electronic and zero-point Energies=           -438.610702
 Sum of electronic and thermal Energies=              -438.606952
 Sum of electronic and thermal Enthalpies=            -438.606007
 Sum of electronic and thermal Free Energies=         -438.634845

                     E (Thermal)             CV                S
                      KCal/Mol        Cal/Mol-Kelvin    Cal/Mol-Kelvin
 Total                   28.619             10.965             60.693
 Electronic               0.000              0.000              0.000
 Translational            0.889              2.981             37.530
 Rotational               0.889              2.981             20.182
 Vibrational             26.841              5.003              2.980
 Vibration     1          0.650              1.801              1.907
 Vibration     2          0.919              1.111              0.517

 Optimization completed.
    -- Stationary point found.
 Normal termination of Gaussian 09 at Wed Aug  3 20:37:34 2016.
