 Gaussian 09, Revision E.01,
 Gaussian 09:  EM64L-G09RevE.01 30-Nov-2015

 ------------------------------
 #p b3lyp/6-311++G(3df,2p) freq
 ------------------------------

 ---------
 b3lyp opt
 ---------
 Symbolic Z-matrix:
 Charge =  2 Multiplicity = 3

                         Standard orientation:
 ---------------------------------------------------------------------
 Center     Atomic      Atomic             Coordinates (Angstroms)
 Number     Number       Type             X           Y           Z
 ---------------------------------------------------------------------
      1         16           0        0.024536   -0.426010    0.000000
      2          6           0        0.024536    1.280394   -0.000000
      3          1           0        1.339063   -0.851516   -0.000000
      4          1           0       -0.749933    2.060967    0.000000
      5          1           0       -0.564466   -1.037830    1.105110
      6          1           0       -0.564466   -1.037830   -1.105110
 ---------------------------------------------------------------------

 SCF Done:  E(UB3LYP) =  -437.669631615     A.U. after   12 cycles

 The electronic state is 3-A".
 Alpha  occ. eigenvalues --  -89.54074 -10.78552  -8.61944  -6.58018  -6.57964
 Alpha  occ. eigenvalues --   -6.57939  -1.42529  -1.19564  -1.05407  -1.04892
 Alpha  occ. eigenvalues --   -0.99461  -0.81506  -0.78692
 Alpha virt. eigenvalues --   -0.52160  -0.51449  -0.50197  -0.49784  -0.36676
 Alpha virt. eigenvalues --   -0.34809  -0.30321  -0.29698  -0.28668  -0.28272
 Alpha virt. eigenvalues --   -0.24430  -0.21348  -0.21306  -0.17750  -0.17446

  Beta  occ. eigenvalues --  -89.54111 -10.75589  -8.61939  -6.58027  -6.57979
  Beta  occ. eigenvalues --   -6.57963  -1.40730  -1.13897  -1.04219  -1.03368
  Beta  occ. eigenvalues --   -0.97208
  Beta virt. eigenvalues --   -0.63353  -0.62176  -0.50367  -0.49576  -0.47973
  Beta virt. eigenvalues --   -0.47082  -0.35616  -0.33806  -0.29684  -0.28792
  Beta virt. eigenvalues --   -0.27066  -0.26680  -0.23245  -0.20398  -0.20376

 Mulliken charges and spin densities:
               1          2
     1  S    0.538457   0.116615
     2  C    0.129365   1.704863
     3  H    0.342080   0.023505
     4  H    0.323894  -0.002707
     5  H    0.333102   0.078862
     6  H    0.333102   0.078862
 Sum of Mulliken charges =   2.00000   2.00000

 Dipole moment (field-independent basis, Debye):
    X=             -0.4562    Y=             -1.5875    Z=             -0.0000  Tot=              1.6517
 Quadrupole moment (field-independent basis, Debye-Ang):
   XX=            -11.1337   YY=             -3.0509   ZZ=            -12.2969
   XY=             -2.0543   XZ=              0.0000   YZ=              0.0000

  Exact polarizability:  21.136  -0.416  33.887   0.000   0.000  21.137
 Approx polarizability:  31.110   1.000  50.658  -0.000   0.000  31.023

                      1                      2                      3
                     A"                     A'                     A"
 Frequencies --    253.8116               611.6619               656.6016
 Red. masses --      1.1399                 1.4778                 1.1900
 Frc consts  --      0.0433                 0.3258                 0.3023
 IR Inten    --     41.3267                30.0804                 7.3629

                      4                      5                      6
                     A'                     A'                     A'
 Frequencies --    677.4862               880.1347              1060.3505
 Red. masses --      1.7682                 1.6435                 1.0871
 Frc consts  --      0.4782                 0.7501                 0.7201
 IR Inten    --      5.6798                 5.9862                 2.6817

                      7                      8                      9
                     A"                     A'                     A"
 Frequencies --   1083.6077              1105.2272              2281.8086
 Red. masses --      1.0262                 1.0267                 1.0513
 Frc consts  --      0.7100                 0.7389                 3.2252
 IR Inten    --      9.1806                11.3249               317.5518

                     10                     11                     12
                     A'                     A'                     A'
 Frequencies --   2281.9920              2391.5773              3052.3007
 Red. masses --      1.0300                 1.0405                 1.0949
 Frc consts  --      3.1602                 3.5064                 6.0102
 IR Inten    --    198.1834               322.3360               329.4386

 - Thermochemistry -
 -------------------
 Temperature   298.150 Kelvin.  Pressure   1.00000 Atm.
 Atom     1 has atomic number 16 and mass  31.97207

 Molecular mass:    48.00337 amu.
 Principal axes and moments of inertia in atomic units:
                           1         2         3
     Eigenvalues --    19.36666 125.62602 127.41126
           X           -0.05024   0.99874   0.00000
           Y            0.99874   0.05024   0.00000
           Z           -0.00000   0.00000   1.00000
 This molecule is an asymmetric top.
 Rotational symmetry number  1.
 Rotational temperatures (Kelvin)      4.47232     0.68946     0.67980
 Rotational constants (GHZ):          93.18805    14.36598    14.16469
 Zero-point vibrational energy      97714.3 (Joules/Mol)
                                   23.35428 (Kcal/Mol)
 Warning -- explicit consideration of   2 degrees of freedom as
           vibrations may cause significant error
 Vibrational temperatures:    365.18   880.04   944.70   974.75  1266.32
          (Kelvin)           1525.61  1559.07  1590.17  3283.01  3283.27
                             3440.94  4391.57

 Zero-point correction=                           0.037217 (Hartree/Particle)
 Thermal correction to Energy=                    0.041077
 Thermal correction to Enthalpy=                  0.042021
 Thermal correction to Gibbs Free Energy=         0.011963
 Sum of electronic and zero-point Energies=           -437.632414
 Sum of electronic and thermal Energies=              -437.628555
 Sum of electronic and thermal Enthalpies=            -437.627610
 Sum of electronic and thermal Free Energies=         -437.657669

                     E (Thermal)             CV                S
                      KCal/Mol        Cal/Mol-Kelvin    Cal/Mol-Kelvin
 Total                   25.776             11.937             63.263
 Electronic               0.000              0.000              2.183
 Translational            0.889              2.981             37.530
 Rotational               0.889              2.981             20.366
 Vibrational             23.999              5.975              3.183
 Vibration     1          0.665              1.756              1.704
 Vibration     2          0.971              1.007              0.430

 Optimization completed.
    -- Stationary point found.
 Normal termination of Gaussian 09 at Wed Aug  3 22:57:03 2016.
