 Gaussian 09, Revision E.01,
 Gaussian 09:  EM64L-G09RevE.01 30-Nov-2015

 ------------------------------
 #p b3lyp/6-311++G(3df,2p) freq
 ------------------------------

 ---------
 b3lyp opt
 ---------
 Symbolic Z-matrix:
 Charge =  0 Multiplicity = 3

                         Standard orientation:
 ---------------------------------------------------------------------
 Center     Atomic      Atomic             Coordinates (Angstroms)
 Number     Number       Type             X           Y           Z
 ---------------------------------------------------------------------
      1         16           0        0.000000    0.000000    0.558991
      2          6           0       -0.000000   -0.000000   -1.153607
      3          1           0       -0.000000   -0.942971   -1.671888
      4          1           0        0.000000   -1.481453    0.660786
      5          1           0        0.000000    0.942971   -1.671888
      6          1           0        0.000000    1.481453    0.660786
 ---------------------------------------------------------------------

 SCF Done:  E(UB3LYP) =  -438.592272967     A.U. after   12 cycles

 The electronic state is 3-B1.
 Alpha  occ. eigenvalues --  -88.89686 -10.19859  -7.97815  -5.93978  -5.93916
 Alpha  occ. eigenvalues --   -5.93576  -0.81862  -0.64123  -0.52014  -0.42239
 Alpha  occ. eigenvalues --   -0.42126  -0.34424  -0.22517  -0.19349
 Alpha virt. eigenvalues --   -0.00198   0.00023   0.00459   0.04822   0.05199
 Alpha virt. eigenvalues --    0.06543   0.07859   0.09339   0.09443   0.09567
 Alpha virt. eigenvalues --    0.11522   0.12619   0.14626   0.16200   0.17017

  Beta  occ. eigenvalues --  -88.89416 -10.18637  -7.97486  -5.93919  -5.93531
  Beta  occ. eigenvalues --   -5.92983  -0.79850  -0.60680  -0.49156  -0.40232
  Beta  occ. eigenvalues --   -0.40125  -0.30312
  Beta virt. eigenvalues --   -0.10296  -0.06719   0.00585   0.00614   0.00843
  Beta virt. eigenvalues --    0.04999   0.05211   0.06873   0.08420   0.10167
  Beta virt. eigenvalues --    0.10525   0.10676   0.12167   0.13369   0.15117

 Mulliken charges and spin densities:
               1          2
     1  S    0.026405   0.283113
     2  C   -0.320607   0.861340
     3  H    0.145505  -0.024047
     4  H    0.001596   0.451821
     5  H    0.145505  -0.024047
     6  H    0.001596   0.451821
 Sum of Mulliken charges =   0.00000   2.00000

 Dipole moment (field-independent basis, Debye):
    X=              0.0000    Y=              0.0000    Z=             -0.2576  Tot=              0.2576
 Quadrupole moment (field-independent basis, Debye-Ang):
   XX=            -24.2298   YY=            -20.4109   ZZ=            -20.7865
   XY=              0.0000   XZ=             -0.0000   YZ=             -0.0000

  Exact polarizability:  31.381   0.000  55.324  -0.000  -0.000  46.007
 Approx polarizability:  44.106   0.000  83.258   0.000  -0.000  65.391

                      1                      2                      3
                     B1                     A2                     B1
 Frequencies --    261.0992               316.1769               368.9090
 Red. masses --      1.2510                 1.0078                 1.0900
 Frc consts  --      0.0502                 0.0594                 0.0874
 IR Inten    --     35.6570                 0.0000                50.6215

                      4                      5                      6
                     B2                     A1                     B2
 Frequencies --    682.5144               841.2791               934.9101
 Red. masses --      1.0417                 5.4103                 1.0549
 Frc consts  --      0.2859                 2.2561                 0.5433
 IR Inten    --    138.0352                 3.1329               459.8547

                      7                      8                      9
                     A1                     B2                     A1
 Frequencies --    938.1519              1013.2213              1393.2827
 Red. masses --      1.0694                 1.2727                 1.1229
 Frc consts  --      0.5545                 0.7698                 1.2844
 IR Inten    --      4.2792                 2.5794                 0.0684

                     10                     11                     12
                     A1                     A1                     B2
 Frequencies --   1821.4786              3175.3391              3307.9154
 Red. masses --      1.0080                 1.0460                 1.1245
 Frc consts  --      1.9703                 6.2140                 7.2495
 IR Inten    --      0.6908                 1.3071                 0.1581

 - Thermochemistry -
 -------------------
 Temperature   298.150 Kelvin.  Pressure   1.00000 Atm.
 Atom     1 has atomic number 16 and mass  31.97207

 Molecular mass:    48.00337 amu.
 Principal axes and moments of inertia in atomic units:
                           1         2         3
     Eigenvalues --    22.19795 115.67309 137.87104
           X            0.00000   0.00000   1.00000
           Y            0.00000   1.00000  -0.00000
           Z            1.00000  -0.00000  -0.00000
 This molecule is an asymmetric top.
 Rotational symmetry number  2.
 Rotational temperatures (Kelvin)      3.90188     0.74878     0.62822
 Rotational constants (GHZ):          81.30217    15.60208    13.09007
 Zero-point vibrational energy      90044.6 (Joules/Mol)
                                   21.52117 (Kcal/Mol)
 Warning -- explicit consideration of   3 degrees of freedom as
           vibrations may cause significant error
 Vibrational temperatures:    375.66   454.91   530.78   981.98  1210.41
          (Kelvin)           1345.13  1349.79  1457.80  2004.62  2620.70
                             4568.60  4759.35

 Zero-point correction=                           0.034296 (Hartree/Particle)
 Thermal correction to Energy=                    0.038666
 Thermal correction to Enthalpy=                  0.039610
 Thermal correction to Gibbs Free Energy=         0.009317
 Sum of electronic and zero-point Energies=           -438.557977
 Sum of electronic and thermal Energies=              -438.553607
 Sum of electronic and thermal Enthalpies=            -438.552663
 Sum of electronic and thermal Free Energies=         -438.582956

                     E (Thermal)             CV                S
                      KCal/Mol        Cal/Mol-Kelvin    Cal/Mol-Kelvin
 Total                   24.263             13.731             63.758
 Electronic               0.000              0.000              2.183
 Translational            0.889              2.981             37.530
 Rotational               0.889              2.981             19.121
 Vibrational             22.486              7.770              4.924
 Vibration     1          0.669              1.744              1.654
 Vibration     2          0.703              1.643              1.330
 Vibration     3          0.741              1.536              1.084

 Optimization completed.
    -- Stationary point found.
 Normal termination of Gaussian 09 at Wed Aug  3 22:54:33 2016.
