 Gaussian 09, Revision E.01,
 Gaussian 09:  EM64L-G09RevE.01 30-Nov-2015

 ------------------------------
 #p b3lyp/6-311++G(3df,2p) freq
 ------------------------------

 ---------
 b3lyp opt
 ---------
 Symbolic Z-matrix:
 Charge =  2 Multiplicity = 1

                         Standard orientation:
 ---------------------------------------------------------------------
 Center     Atomic      Atomic             Coordinates (Angstroms)
 Number     Number       Type             X           Y           Z
 ---------------------------------------------------------------------
      1         16           0       -1.479184   -0.227747   -0.000841
      2         16           0        1.595928   -0.089581   -0.000002
      3          6           0        0.143042    0.621584    0.000252
      4          1           0       -2.042106    0.526986   -0.995820
      5          1           0        1.228156   -1.405982   -0.001258
      6          1           0        0.123479    1.713502    0.000936
      7          1           0       -2.035681    0.513233    1.008122
 ---------------------------------------------------------------------

 SCF Done:  E(RB3LYP) =  -836.125279009     A.U. after   11 cycles

 The electronic state is 1-A.
 Alpha  occ. eigenvalues --  -89.40145 -89.38456 -10.74419  -8.48352  -8.46611
 Alpha  occ. eigenvalues --   -6.44591  -6.44377  -6.43962  -6.42736  -6.42665
 Alpha  occ. eigenvalues --   -6.42300  -1.33107  -1.25748  -1.07827  -0.95605
 Alpha  occ. eigenvalues --   -0.93424  -0.91755  -0.82421  -0.81082  -0.79939
 Alpha virt. eigenvalues --   -0.57523  -0.48331  -0.43502  -0.40851  -0.37974
 Alpha virt. eigenvalues --   -0.36024  -0.31633  -0.29239  -0.27286  -0.27087
 Alpha virt. eigenvalues --   -0.25349  -0.24511  -0.24015  -0.23552  -0.21684

 Mulliken charges:
               1
     1  S    0.267537
     2  S    0.438500
     3  C    0.177574
     4  H    0.291964
     5  H    0.243391
     6  H    0.288971
     7  H    0.292062
 Sum of Mulliken charges =   2.00000

 Dipole moment (field-independent basis, Debye):
    X=             -2.1855    Y=              0.7979    Z=              0.0103  Tot=              2.3267
 Quadrupole moment (field-independent basis, Debye-Ang):
   XX=             -0.9863   YY=            -20.8027   ZZ=            -24.7192
   XY=             -4.2290   XZ=             -0.0205   YZ=             -0.0104

  Exact polarizability:  60.930  -4.834  37.327  -0.017  -0.003  31.007
 Approx polarizability: 104.379 -14.327  64.618  -0.033  -0.009  51.889

                      1                      2                      3
                      A                      A                      A
 Frequencies --     15.8389               274.4616               507.2771
 Red. masses --      1.1351                 6.6973                 1.3678
 Frc consts  --      0.0002                 0.2972                 0.2074
 IR Inten    --     26.5588                 2.8252                 6.8366

                      4                      5                      6
                      A                      A                      A
 Frequencies --    599.3268               854.8926               887.1030
 Red. masses --      3.9089                 1.1700                 1.0438
 Frc consts  --      0.8272                 0.5038                 0.4840
 IR Inten    --      6.4770                12.7711                 0.0092

                      7                      8                      9
                      A                      A                      A
 Frequencies --    967.6297               989.8341              1090.7058
 Red. masses --      1.2424                 1.3667                 2.0946
 Frc consts  --      0.6854                 0.7890                 1.4681
 IR Inten    --     54.8967                22.2655                 3.9547

                     10                     11                     12
                      A                      A                      A
 Frequencies --   1151.9204              1318.5090              2493.4929
 Red. masses --      1.0949                 1.3947                 1.0370
 Frc consts  --      0.8560                 1.4285                 3.7989
 IR Inten    --      9.9704                13.9087               206.7823

                     13                     14                     15
                      A                      A                      A
 Frequencies --   2494.5009              2524.3862              3105.6303
 Red. masses --      1.0397                 1.0399                 1.0918
 Frc consts  --      3.8117                 3.9042                 6.2045
 IR Inten    --    172.9631                61.9433               104.1755

 - Thermochemistry -
 -------------------
 Temperature   298.150 Kelvin.  Pressure   1.00000 Atm.
 Atom     1 has atomic number 16 and mass  31.97207

 Molecular mass:    79.97544 amu.
 Principal axes and moments of inertia in atomic units:
                           1         2         3
     Eigenvalues --    49.85444 584.11386 619.51476
           X            0.99970  -0.02439  -0.00012
           Y            0.02439   0.99970  -0.00033
           Z            0.00013   0.00033   1.00000
 This molecule is an asymmetric top.
 Rotational symmetry number  1.
 Rotational temperatures (Kelvin)      1.73733     0.14828     0.13981
 Rotational constants (GHZ):          36.20021     3.08971     2.91315
 Zero-point vibrational energy     115293.1 (Joules/Mol)
                                   27.55572 (Kcal/Mol)
 Warning -- explicit consideration of   4 degrees of freedom as
           vibrations may cause significant error
 Vibrational temperatures:     22.79   394.89   729.86   862.30  1230.00
          (Kelvin)           1276.34  1392.20  1424.15  1569.28  1657.35
                             1897.04  3587.58  3589.03  3632.02  4468.30

 Zero-point correction=                           0.043913 (Hartree/Particle)
 Thermal correction to Energy=                    0.048744
 Thermal correction to Enthalpy=                  0.049688
 Thermal correction to Gibbs Free Energy=         0.014589
 Sum of electronic and zero-point Energies=           -836.081366
 Sum of electronic and thermal Energies=              -836.076535
 Sum of electronic and thermal Enthalpies=            -836.075591
 Sum of electronic and thermal Free Energies=         -836.110690

                     E (Thermal)             CV                S
                      KCal/Mol        Cal/Mol-Kelvin    Cal/Mol-Kelvin
 Total                   30.587             14.491             73.871
 Electronic               0.000              0.000              0.000
 Translational            0.889              2.981             39.052
 Rotational               0.889              2.981             24.404
 Vibrational             28.810              8.530             10.415
 Vibration     1          0.593              1.986              7.097
 Vibration     2          0.677              1.721              1.568
 Vibration     3          0.862              1.234              0.640
 Vibration     4          0.957              1.033              0.451

 Optimization completed.
    -- Stationary point found.
 Normal termination of Gaussian 09 at Wed Aug  3 20:35:05 2016.
