 Gaussian 09, Revision E.01,
 Gaussian 09:  EM64L-G09RevE.01 30-Nov-2015

 ------------------------------
 #p b3lyp/6-311++G(3df,2p) freq
 ------------------------------

 ---------
 b3lyp opt
 ---------
 Symbolic Z-matrix:
 Charge =  2 Multiplicity = 1

                         Standard orientation:
 ---------------------------------------------------------------------
 Center     Atomic      Atomic             Coordinates (Angstroms)
 Number     Number       Type             X           Y           Z
 ---------------------------------------------------------------------
      1         16           0       -0.000000   -1.073199   -0.301226
      2         16           0        0.000000    1.073199   -0.301226
      3          6           0        0.000000    0.000000    1.186463
      4          1           0        0.932740   -0.052123    1.747155
      5          1           0        1.353839    1.185199   -0.486924
      6          1           0       -0.932740    0.052123    1.747155
      7          1           0       -1.353839   -1.185199   -0.486924
 ---------------------------------------------------------------------

 SCF Done:  E(RB3LYP) =  -836.115056256     A.U. after   10 cycles

 The electronic state is 1-A.
 Alpha  occ. eigenvalues --  -89.43640 -89.43640 -10.72152  -8.51545  -8.51540
 Alpha  occ. eigenvalues --   -6.47877  -6.47862  -6.47465  -6.47465  -6.47193
 Alpha  occ. eigenvalues --   -6.47192  -1.39343  -1.20502  -1.12880  -0.97867
 Alpha  occ. eigenvalues --   -0.96047  -0.87717  -0.86033  -0.84377  -0.83318
 Alpha virt. eigenvalues --   -0.58297  -0.47975  -0.46047  -0.45242  -0.42466
 Alpha virt. eigenvalues --   -0.31598  -0.31289  -0.30248  -0.30011  -0.27080
 Alpha virt. eigenvalues --   -0.26969  -0.24455  -0.24242  -0.22604  -0.22393

 Mulliken charges:
               1
     1  S    0.424734
     2  S    0.424734
     3  C    0.057455
     4  H    0.250127
     5  H    0.296412
     6  H    0.250127
     7  H    0.296412
 Sum of Mulliken charges =   2.00000

 Dipole moment (field-independent basis, Debye):
    X=             -0.0000    Y=             -0.0000    Z=              0.8457  Tot=              0.8457
 Quadrupole moment (field-independent basis, Debye-Ang):
   XX=            -20.4578   YY=            -14.3580   ZZ=            -19.3232
   XY=              4.3959   XZ=             -0.0000   YZ=              0.0000

  Exact polarizability:  33.917   3.576  48.162  -0.000  -0.000  38.595
 Approx polarizability:  56.818   5.323 100.985   0.000  -0.000  66.838

                      1                      2                      3
                      A                      B                      B
 Frequencies --    456.9055               501.9252               660.4604
 Red. masses --     17.0632                 9.2913                 1.0485
 Frc consts  --      2.0988                 1.3791                 0.2695
 IR Inten    --      0.0208                 5.0983                15.6366

                      4                      5                      6
                      A                      A                      B
 Frequencies --    728.6479               765.9365               833.1894
 Red. masses --      1.2658                 3.1796                 1.0452
 Frc consts  --      0.3960                 1.0990                 0.4275
 IR Inten    --     34.9137                 0.1734                18.3854

                      7                      8                      9
                      A                      B                      A
 Frequencies --    920.0224              1020.5321              1052.5874
 Red. masses --      1.0432                 1.2932                 1.0604
 Frc consts  --      0.5203                 0.7935                 0.6922
 IR Inten    --      0.0669                 9.3624                 1.4871

                     10                     11                     12
                      B                      A                      B
 Frequencies --   1117.6771              1404.0378              2489.3662
 Red. masses --      1.1381                 1.0676                 1.0396
 Frc consts  --      0.8377                 1.2399                 3.7958
 IR Inten    --      7.1029                 6.2438               286.5284

                     13                     14                     15
                      A                      A                      B
 Frequencies --   2496.6099              3066.0633              3184.8575
 Red. masses --      1.0413                 1.0496                 1.1282
 Frc consts  --      3.8241                 5.8132                 6.7425
 IR Inten    --     17.1728               107.4535               108.5133

 - Thermochemistry -
 -------------------
 Temperature   298.150 Kelvin.  Pressure   1.00000 Atm.
 Atom     1 has atomic number 16 and mass  31.97207

 Molecular mass:    79.97544 amu.
 Principal axes and moments of inertia in atomic units:
                           1         2         3
     Eigenvalues --   123.40869 292.58785 378.07274
           X            0.04402  -0.00000   0.99903
           Y            0.99903   0.00000  -0.04402
           Z           -0.00000   1.00000   0.00000
 This molecule is an asymmetric top.
 Rotational symmetry number  2.
 Rotational temperatures (Kelvin)      0.70185     0.29603     0.22909
 Rotational constants (GHZ):          14.62410     6.16820     4.77353
 Zero-point vibrational energy     123806.4 (Joules/Mol)
                                   29.59045 (Kcal/Mol)
 Warning -- explicit consideration of   2 degrees of freedom as
           vibrations may cause significant error
 Vibrational temperatures:    657.38   722.16   950.25  1048.36  1102.01
          (Kelvin)           1198.77  1323.71  1468.32  1514.44  1608.09
                             2020.09  3581.64  3592.06  4411.38  4582.29

 Zero-point correction=                           0.047155 (Hartree/Particle)
 Thermal correction to Energy=                    0.051003
 Thermal correction to Enthalpy=                  0.051947
 Thermal correction to Gibbs Free Energy=         0.021232
 Sum of electronic and zero-point Energies=           -836.067901
 Sum of electronic and thermal Energies=              -836.064053
 Sum of electronic and thermal Enthalpies=            -836.063109
 Sum of electronic and thermal Free Energies=         -836.093825

                     E (Thermal)             CV                S
                      KCal/Mol        Cal/Mol-Kelvin    Cal/Mol-Kelvin
 Total                   32.005             13.066             64.646
 Electronic               0.000              0.000              0.000
 Translational            0.889              2.981             39.052
 Rotational               0.889              2.981             22.750
 Vibrational             30.227              7.105              2.844
 Vibration     1          0.815              1.346              0.775
 Vibration     2          0.857              1.246              0.653

 Optimization completed.
    -- Stationary point found.
 Normal termination of Gaussian 09 at Wed Aug  3 22:55:18 2016.
