 Gaussian 09, Revision E.01,
 Gaussian 09:  EM64L-G09RevE.01 30-Nov-2015

 ------------------------------
 #p b3lyp/6-311++G(3df,2p) freq
 ------------------------------

 ---------
 b3lyp opt
 ---------
 Symbolic Z-matrix:
 Charge =  1 Multiplicity = 2

                         Standard orientation:
 ---------------------------------------------------------------------
 Center     Atomic      Atomic             Coordinates (Angstroms)
 Number     Number       Type             X           Y           Z
 ---------------------------------------------------------------------
      1         16           0        0.546788   -0.000294   -0.112002
      2          6           0       -1.191850    0.000019    0.066496
      3          1           0        0.890981    1.001728    0.735168
      4          1           0       -1.689912    0.952233   -0.040399
      5          1           0       -1.690168   -0.951841   -0.042415
      6          1           0        0.891589   -0.997538    0.740699
 ---------------------------------------------------------------------

 SCF Done:  E(UB3LYP) =  -438.376425067     A.U. after   12 cycles

 The electronic state is 2-A.
 Alpha  occ. eigenvalues --  -89.19531 -10.46092  -8.27846  -6.23969  -6.23933
 Alpha  occ. eigenvalues --   -6.23522  -1.10383  -0.91308  -0.75889  -0.70687
 Alpha  occ. eigenvalues --   -0.66864  -0.64470  -0.48190
 Alpha virt. eigenvalues --   -0.25434  -0.24672  -0.21217  -0.13434  -0.13188
 Alpha virt. eigenvalues --   -0.11517  -0.10511  -0.08880  -0.08397  -0.08115
 Alpha virt. eigenvalues --   -0.06215  -0.05156  -0.03061  -0.03014  -0.00064

  Beta  occ. eigenvalues --  -89.19522 -10.44640  -8.27828  -6.23976  -6.23958
  Beta  occ. eigenvalues --   -6.23443  -1.09480  -0.88292  -0.75481  -0.69757
  Beta  occ. eigenvalues --   -0.66046  -0.62704
  Beta virt. eigenvalues --   -0.33124  -0.25165  -0.23850  -0.20552  -0.13095
  Beta virt. eigenvalues --   -0.13035  -0.11288  -0.10225  -0.08817  -0.08047
  Beta virt. eigenvalues --   -0.08041  -0.05171  -0.04498  -0.03002  -0.02560

 Mulliken charges and spin densities:
               1          2
     1  S    0.282117   0.031652
     2  C   -0.170342   0.958016
     3  H    0.229107   0.027144
     4  H    0.215046  -0.022285
     5  H    0.214987  -0.022234
     6  H    0.229085   0.027708
 Sum of Mulliken charges =   1.00000   1.00000

 Dipole moment (field-independent basis, Debye):
    X=              0.4115    Y=              0.0036    Z=              1.0438  Tot=              1.1220
 Quadrupole moment (field-independent basis, Debye-Ang):
   XX=            -12.0255   YY=            -13.9292   ZZ=            -18.1447
   XY=              0.0040   XZ=              1.8595   YZ=             -0.0022

  Exact polarizability:  35.051  -0.001  26.523   1.064  -0.003  23.399
 Approx polarizability:  50.145  -0.001  40.602   1.661  -0.007  34.825

                      1                      2                      3
                      A                      A                      A
 Frequencies --     55.7229               501.5485               712.4023
 Red. masses --      1.0201                 1.2456                 4.0925
 Frc consts  --      0.0019                 0.1846                 1.2237
 IR Inten    --     13.4860                60.8947                 5.8781

                      4                      5                      6
                      A                      A                      A
 Frequencies --    742.2091               856.9621              1072.3951
 Red. masses --      1.0201                 1.2819                 1.2036
 Frc consts  --      0.3311                 0.5546                 0.8156
 IR Inten    --      0.4050                 7.1700                 3.6903

                      7                      8                      9
                      A                      A                      A
 Frequencies --   1167.7888              1381.0548              2573.5482
 Red. masses --      1.0384                 1.0819                 1.0347
 Frc consts  --      0.8343                 1.2158                 4.0376
 IR Inten    --      4.7550                 0.0394                40.2859

                     10                     11                     12
                      A                      A                      A
 Frequencies --   2590.8900              3144.9028              3293.2105
 Red. masses --      1.0431                 1.0428                 1.1290
 Frc consts  --      4.1256                 6.0767                 7.2140
 IR Inten    --     51.7350                32.2738                40.9947

 - Thermochemistry -
 -------------------
 Temperature   298.150 Kelvin.  Pressure   1.00000 Atm.
 Atom     1 has atomic number 16 and mass  31.97207

 Molecular mass:    48.00337 amu.
 Principal axes and moments of inertia in atomic units:
                           1         2         3
     Eigenvalues --    18.91439 126.51451 135.03385
           X            0.99907   0.00009   0.04301
           Y           -0.00008   1.00000  -0.00012
           Z           -0.04301   0.00012   0.99907
 This molecule is an asymmetric top.
 Rotational symmetry number  1.
 Rotational temperatures (Kelvin)      4.57925     0.68462     0.64142
 Rotational constants (GHZ):          95.41628    14.26509    13.36510
 Zero-point vibrational energy     108218.0 (Joules/Mol)
                                   25.86472 (Kcal/Mol)
 Warning -- explicit consideration of   2 degrees of freedom as
           vibrations may cause significant error
 Vibrational temperatures:     80.17   721.62  1024.99  1067.87  1232.98
          (Kelvin)           1542.94  1680.19  1987.03  3702.76  3727.71
                             4524.81  4738.19

 Zero-point correction=                           0.041218 (Hartree/Particle)
 Thermal correction to Energy=                    0.045420
 Thermal correction to Enthalpy=                  0.046364
 Thermal correction to Gibbs Free Energy=         0.015277
 Sum of electronic and zero-point Energies=           -438.335207
 Sum of electronic and thermal Energies=              -438.331006
 Sum of electronic and thermal Enthalpies=            -438.330061
 Sum of electronic and thermal Free Energies=         -438.361148

                     E (Thermal)             CV                S
                      KCal/Mol        Cal/Mol-Kelvin    Cal/Mol-Kelvin
 Total                   28.501             11.948             65.427
 Electronic               0.000              0.000              1.377
 Translational            0.889              2.981             37.530
 Rotational               0.889              2.981             20.408
 Vibrational             26.724              5.986              6.111
 Vibration     1          0.596              1.975              4.603
 Vibration     2          0.857              1.247              0.654

 Normal termination of Gaussian 09 at Wed Aug  3 20:37:53 2016.
