 Gaussian 09, Revision E.01,
 Gaussian 09:  EM64L-G09RevE.01 30-Nov-2015

 ------------------------------
 #p b3lyp/6-311++G(3df,2p) freq
 ------------------------------

 ---------
 b3lyp opt
 ---------
 Symbolic Z-matrix:
 Charge =  1 Multiplicity = 2

                         Standard orientation:
 ---------------------------------------------------------------------
 Center     Atomic      Atomic             Coordinates (Angstroms)
 Number     Number       Type             X           Y           Z
 ---------------------------------------------------------------------
      1         16           0        0.644126   -0.090508    0.000003
      2          6           0       -1.132846    0.011758   -0.000044
      3          1           0        0.922069    1.238194   -0.000026
      4          1           0       -1.452475    0.572043   -0.886286
      5          1           0       -1.452596    0.568207    0.888633
      6          1           0       -1.525932   -1.000863   -0.002103
 ---------------------------------------------------------------------

 SCF Done:  E(UB3LYP) =  -438.408425408     A.U. after   12 cycles

 The electronic state is 2-A.
 Alpha  occ. eigenvalues --  -89.20413 -10.45033  -8.28528  -6.25356  -6.24470
 Alpha  occ. eigenvalues --   -6.24089  -1.09615  -0.92251  -0.73316  -0.69862
 Alpha  occ. eigenvalues --   -0.66723  -0.62488  -0.57723
 Alpha virt. eigenvalues --   -0.24763  -0.21595  -0.16502  -0.13933  -0.13049
 Alpha virt. eigenvalues --   -0.11174  -0.10516  -0.09286  -0.08952  -0.07301
 Alpha virt. eigenvalues --   -0.07021  -0.03877  -0.03180  -0.02041  -0.00547

  Beta  occ. eigenvalues --  -89.19796 -10.45003  -8.27960  -6.24102  -6.23751
  Beta  occ. eigenvalues --   -6.23442  -1.07100  -0.90591  -0.72478  -0.67443
  Beta  occ. eigenvalues --   -0.66387  -0.61341
  Beta virt. eigenvalues --   -0.44472  -0.24281  -0.20170  -0.16001  -0.13260
  Beta virt. eigenvalues --   -0.12830  -0.10595  -0.09780  -0.09038  -0.08850
  Beta virt. eigenvalues --   -0.07228  -0.06525  -0.03120  -0.01899  -0.01569

 Mulliken charges and spin densities:
               1          2
     1  S    0.419513   0.936759
     2  C   -0.328169  -0.015657
     3  H    0.215891  -0.015586
     4  H    0.234225   0.047839
     5  H    0.234236   0.048104
     6  H    0.224304  -0.001459
 Sum of Mulliken charges =   1.00000   1.00000

 Dipole moment (field-independent basis, Debye):
    X=             -0.4370    Y=              1.0812    Z=              0.0005  Tot=              1.1662
 Quadrupole moment (field-independent basis, Debye-Ang):
   XX=            -12.1093   YY=            -15.2527   ZZ=            -16.8243
   XY=              1.2110   XZ=             -0.0011   YZ=              0.0001

  Exact polarizability:  36.088   0.659  25.933  -0.003   0.000  22.743
 Approx polarizability:  53.201   0.731  39.434  -0.007   0.001  33.533

                      1                      2                      3
                      A                      A                      A
 Frequencies --    210.4836               690.4716               792.3665
 Red. masses --      1.0469                 7.4512                 1.0341
 Frc consts  --      0.0273                 2.0930                 0.3825
 IR Inten    --      7.9755                 3.5036                 6.0412

                      4                      5                      6
                      A                      A                      A
 Frequencies --    823.6505              1097.9141              1309.4412
 Red. masses --      1.1651                 1.2454                 1.1015
 Frc consts  --      0.4657                 0.8845                 1.1128
 IR Inten    --      3.9270                12.2369                23.9444

                      7                      8                      9
                      A                      A                      A
 Frequencies --   1402.4398              1425.2443              2594.5864
 Red. masses --      1.0555                 1.0577                 1.0392
 Frc consts  --      1.2231                 1.2658                 4.1217
 IR Inten    --     22.0575                11.6803                35.3303

                     10                     11                     12
                      A                      A                      A
 Frequencies --   2983.8580              3040.5478              3158.3603
 Red. masses --      1.0332                 1.0976                 1.1025
 Frc consts  --      5.4199                 5.9783                 6.4797
 IR Inten    --     69.3792                22.3545                19.7300

 - Thermochemistry -
 -------------------
 Temperature   298.150 Kelvin.  Pressure   1.00000 Atm.
 Atom     1 has atomic number 16 and mass  31.97207

 Molecular mass:    48.00337 amu.
 Principal axes and moments of inertia in atomic units:
                           1         2         3
     Eigenvalues --    17.84441 133.85897 140.36524
           X            0.99961   0.02786  -0.00001
           Y           -0.02786   0.99961   0.00000
           Z            0.00001  -0.00000   1.00000
 This molecule is an asymmetric top.
 Rotational symmetry number  1.
 Rotational temperatures (Kelvin)      4.85383     0.64705     0.61706
 Rotational constants (GHZ):         101.13762    13.48241    12.85747
 Zero-point vibrational energy     116811.5 (Joules/Mol)
                                   27.91863 (Kcal/Mol)
 Warning -- explicit consideration of   1 degrees of freedom as
           vibrations may cause significant error
 Vibrational temperatures:    302.84   993.43  1140.04  1185.05  1579.65
          (Kelvin)           1883.99  2017.80  2050.61  3733.03  4293.10
                             4374.66  4544.17

 Zero-point correction=                           0.044491 (Hartree/Particle)
 Thermal correction to Energy=                    0.048187
 Thermal correction to Enthalpy=                  0.049131
 Thermal correction to Gibbs Free Energy=         0.019562
 Sum of electronic and zero-point Energies=           -438.363934
 Sum of electronic and thermal Energies=              -438.360238
 Sum of electronic and thermal Enthalpies=            -438.359294
 Sum of electronic and thermal Free Energies=         -438.388864

                     E (Thermal)             CV                S
                      KCal/Mol        Cal/Mol-Kelvin    Cal/Mol-Kelvin
 Total                   30.238             10.539             62.235
 Electronic               0.000              0.000              1.377
 Translational            0.889              2.981             37.530
 Rotational               0.889              2.981             20.444
 Vibrational             28.461              4.577              2.883
 Vibration     1          0.643              1.825              2.039

 Normal termination of Gaussian 09 at Wed Aug  3 20:37:56 2016.
