 Gaussian 09, Revision E.01,
 Gaussian 09:  EM64L-G09RevE.01 30-Nov-2015

 ------------------------------
 #p b3lyp/6-311++G(3df,2p) freq
 ------------------------------

 ---------
 b3lyp opt
 ---------
 Symbolic Z-matrix:
 Charge =  1 Multiplicity = 2

                         Standard orientation:
 ---------------------------------------------------------------------
 Center     Atomic      Atomic             Coordinates (Angstroms)
 Number     Number       Type             X           Y           Z
 ---------------------------------------------------------------------
      1         16           0        1.418059   -0.225669   -0.000487
      2         16           0       -1.587902   -0.089157    0.000417
      3          6           0       -0.061333    0.660791   -0.000778
      4          1           0        2.154955    0.359773   -0.983255
      5          1           0       -1.186044   -1.375914   -0.005050
      6          1           0       -0.033735    1.739958    0.001530
      7          1           0        2.150317    0.348655    0.992549
 ---------------------------------------------------------------------

 SCF Done:  E(UB3LYP) =  -836.618774224     A.U. after   13 cycles

 The electronic state is 2-A.
 Alpha  occ. eigenvalues --  -89.17051 -89.09188 -10.44557  -8.25288  -8.17590
 Alpha  occ. eigenvalues --   -6.21423  -6.21396  -6.20939  -6.13828  -6.13527
 Alpha  occ. eigenvalues --   -6.13438  -1.09173  -0.99797  -0.84172  -0.72739
 Alpha  occ. eigenvalues --   -0.72110  -0.65935  -0.58087  -0.57250  -0.55019
 Alpha  occ. eigenvalues --   -0.41177
 Alpha virt. eigenvalues --   -0.23428  -0.22274  -0.21313  -0.16090  -0.14951
 Alpha virt. eigenvalues --   -0.12460  -0.11246  -0.11221  -0.09324  -0.07131
 Alpha virt. eigenvalues --   -0.06972  -0.06443  -0.05430  -0.04599  -0.04484

  Beta  occ. eigenvalues --  -89.17082 -89.08939 -10.43645  -8.25303  -8.17363
  Beta  occ. eigenvalues --   -6.21456  -6.21417  -6.20974  -6.13700  -6.13318
  Beta  occ. eigenvalues --   -6.12725  -1.08194  -0.98866  -0.82259  -0.72120
  Beta  occ. eigenvalues --   -0.71192  -0.65434  -0.57912  -0.56400  -0.50679
  Beta virt. eigenvalues --   -0.31065  -0.22885  -0.21135  -0.20864  -0.15753
  Beta virt. eigenvalues --   -0.14423  -0.12267  -0.11127  -0.11030  -0.09248
  Beta virt. eigenvalues --   -0.07012  -0.06643  -0.06315  -0.05063  -0.04376

 Mulliken charges and spin densities:
               1          2
     1  S    0.155731   0.020668
     2  S    0.049135   0.381149
     3  C   -0.027552   0.541924
     4  H    0.216016   0.039854
     5  H    0.168773  -0.004723
     6  H    0.222269  -0.019800
     7  H    0.215628   0.040928
 Sum of Mulliken charges =   1.00000   1.00000

 Dipole moment (field-independent basis, Debye):
    X=              3.5836    Y=              0.2616    Z=              0.0057  Tot=              3.5932
 Quadrupole moment (field-independent basis, Debye-Ang):
   XX=            -15.4591   YY=            -26.3244   ZZ=            -29.8636
   XY=              2.6531   XZ=              0.0125   YZ=              0.0019

  Exact polarizability:  74.649   4.478  42.107   0.031  -0.008  37.502
 Approx polarizability: 111.185   7.644  70.081   0.037  -0.019  59.989

                      1                      2                      3
                      A                      A                      A
 Frequencies --     72.3932               228.0193               276.0090
 Red. masses --      1.4934                 1.0796                 6.1975
 Frc consts  --      0.0046                 0.0331                 0.2782
 IR Inten    --     10.1908                15.8700                 0.0470

                      4                      5                      6
                      A                      A                      A
 Frequencies --    581.6414               659.1054               838.9174
 Red. masses --      1.1387                 4.1977                 1.0770
 Frc consts  --      0.2270                 1.0744                 0.4466
 IR Inten    --     49.2096                25.9023                 4.5362

                      7                      8                      9
                      A                      A                      A
 Frequencies --    840.4224               978.4649              1017.9116
 Red. masses --      1.2401                 1.8250                 1.7184
 Frc consts  --      0.5161                 1.0295                 1.0490
 IR Inten    --     27.7598                13.7644                 3.2498

                     10                     11                     12
                      A                      A                      A
 Frequencies --   1222.5593              1291.9884              2511.8484
 Red. masses --      1.0427                 1.2611                 1.0422
 Frc consts  --      0.9182                 1.2403                 3.8742
 IR Inten    --     22.3069                 8.7890                19.1779

                     13                     14                     15
                      A                      A                      A
 Frequencies --   2528.8869              2643.1278              3209.0576
 Red. masses --      1.0340                 1.0388                 1.0882
 Frc consts  --      3.8960                 4.2759                 6.6027
 IR Inten    --     15.5425                11.7553                26.9908

 - Thermochemistry -
 -------------------
 Temperature   298.150 Kelvin.  Pressure   1.00000 Atm.
 Atom     1 has atomic number 16 and mass  31.97207

 Molecular mass:    79.97544 amu.
 Principal axes and moments of inertia in atomic units:
                           1         2         3
     Eigenvalues --    50.78074 562.90664 599.63693
           X            0.99976   0.02169   0.00014
           Y           -0.02169   0.99976   0.00023
           Z           -0.00014  -0.00024   1.00000
 This molecule is an asymmetric top.
 Rotational symmetry number  1.
 Rotational temperatures (Kelvin)      1.70564     0.15387     0.14444
 Rotational constants (GHZ):          35.53988     3.20611     3.00972
 Zero-point vibrational energy     113049.2 (Joules/Mol)
                                   27.01941 (Kcal/Mol)
 Warning -- explicit consideration of   4 degrees of freedom as
           vibrations may cause significant error
 Vibrational temperatures:    104.16   328.07   397.11   836.85   948.30
          (Kelvin)           1207.01  1209.18  1407.79  1464.55  1758.99
                             1858.88  3613.99  3638.50  3802.87  4617.11

 Zero-point correction=                           0.043058 (Hartree/Particle)
 Thermal correction to Energy=                    0.048186
 Thermal correction to Enthalpy=                  0.049130
 Thermal correction to Gibbs Free Energy=         0.014078
 Sum of electronic and zero-point Energies=           -836.575716
 Sum of electronic and thermal Energies=              -836.570588
 Sum of electronic and thermal Enthalpies=            -836.569644
 Sum of electronic and thermal Free Energies=         -836.604696

                     E (Thermal)             CV                S
                      KCal/Mol        Cal/Mol-Kelvin    Cal/Mol-Kelvin
 Total                   30.237             15.707             73.773
 Electronic               0.000              0.000              1.377
 Translational            0.889              2.981             39.052
 Rotational               0.889              2.981             24.353
 Vibrational             28.460              9.745              8.991
 Vibration     1          0.598              1.967              4.087
 Vibration     2          0.651              1.798              1.894
 Vibration     3          0.678              1.718              1.558
 Vibration     4          0.938              1.071              0.482

 Normal termination of Gaussian 09 at Wed Aug  3 20:32:04 2016.
