 Gaussian 09, Revision E.01,
 Gaussian 09:  EM64L-G09RevE.01 30-Nov-2015

 ------------------------------
 #p b3lyp/6-311++G(3df,2p) freq
 ------------------------------

 ---------
 b3lyp opt
 ---------
 Symbolic Z-matrix:
 Charge =  0 Multiplicity = 1

                         Standard orientation:
 ---------------------------------------------------------------------
 Center     Atomic      Atomic             Coordinates (Angstroms)
 Number     Number       Type             X           Y           Z
 ---------------------------------------------------------------------
      1         16           0        1.553243   -0.178688   -0.058459
      2         16           0       -1.553291   -0.178569    0.058441
      3          6           0        0.000004    0.771213   -0.000192
      4          1           0        0.022049    1.409940   -0.879412
      5          1           0       -1.363268   -0.866631   -1.078641
      6          1           0       -0.022010    1.409694    0.879208
      7          1           0        1.363974   -0.864173    1.080285
 ---------------------------------------------------------------------

 SCF Done:  E(RB3LYP) =  -836.970725996     A.U. after   10 cycles

 The electronic state is 1-A.
 Alpha  occ. eigenvalues --  -88.85684 -88.85682 -10.24165  -7.94315  -7.94312
 Alpha  occ. eigenvalues --   -5.90677  -5.90675  -5.90332  -5.90330  -5.89748
 Alpha  occ. eigenvalues --   -5.89746  -0.82347  -0.73105  -0.63490  -0.49026
 Alpha  occ. eigenvalues --   -0.42172  -0.41961  -0.38684  -0.33911  -0.26643
 Alpha  occ. eigenvalues --   -0.24562
 Alpha virt. eigenvalues --   -0.03249  -0.00544   0.00405   0.01631   0.02055
 Alpha virt. eigenvalues --    0.02677   0.05238   0.05360   0.06530   0.07662
 Alpha virt. eigenvalues --    0.07910   0.08521   0.09704   0.10536   0.10793

 Mulliken charges:
               1
     1  S   -0.231032
     2  S   -0.231223
     3  C   -0.092706
     4  H    0.159632
     5  H    0.117836
     6  H    0.159674
     7  H    0.117819
 Sum of Mulliken charges =  -0.00000

 Dipole moment (field-independent basis, Debye):
    X=              0.0011    Y=              0.5059    Z=              0.0007  Tot=              0.5059
 Quadrupole moment (field-independent basis, Debye-Ang):
   XX=            -38.8564   YY=            -33.1159   ZZ=            -32.1890
   XY=              0.0004   XZ=              1.6268   YZ=              0.0024

  Exact polarizability:  73.007   0.002  52.301   1.995  -0.001  48.569
 Approx polarizability: 102.242  -0.000  83.043   1.582   0.002  79.927

                      1                      2                      3
                      A                      A                      A
 Frequencies --    223.4495               255.9676               291.5648
 Red. masses --      1.4724                 1.1735                 2.3670
 Frc consts  --      0.0433                 0.0453                 0.1186
 IR Inten    --      3.6779                31.6762                 8.2618

                      4                      5                      6
                      A                      A                      A
 Frequencies --    625.9306               704.0918               732.4303
 Red. masses --      5.7778                 1.2756                 3.7477
 Frc consts  --      1.3337                 0.3726                 1.1845
 IR Inten    --      1.9848                 4.7808                27.8252

                      7                      8                      9
                      A                      A                      A
 Frequencies --    902.9335              1007.7973              1203.7255
 Red. masses --      1.1301                 1.2869                 1.0383
 Frc consts  --      0.5429                 0.7701                 0.8864
 IR Inten    --      3.6544                17.1860                 0.5453

                     10                     11                     12
                      A                      A                      A
 Frequencies --   1256.9039              1451.9951              2679.2068
 Red. masses --      1.1516                 1.0707                 1.0385
 Frc consts  --      1.0719                 1.3300                 4.3919
 IR Inten    --     25.2820                 1.5595                 0.3483

                     13                     14                     15
                      A                      A                      A
 Frequencies --   2679.8019              3072.0626              3125.9518
 Red. masses --      1.0384                 1.0562                 1.1098
 Frc consts  --      4.3936                 5.8728                 6.3895
 IR Inten    --      0.0383                 5.6095                 1.8495

 - Thermochemistry -
 -------------------
 Temperature   298.150 Kelvin.  Pressure   1.00000 Atm.
 Atom     1 has atomic number 16 and mass  31.97207

 Molecular mass:    79.97544 amu.
 Principal axes and moments of inertia in atomic units:
                           1         2         3
     Eigenvalues --    66.96082 579.04372 616.92273
           X            0.99983   0.00002   0.01869
           Y           -0.00002   1.00000   0.00007
           Z           -0.01869  -0.00007   0.99983
 This molecule is an asymmetric top.
 Rotational symmetry number  1.
 Rotational temperatures (Kelvin)      1.29350     0.14958     0.14040
 Rotational constants (GHZ):          26.95220     3.11676     2.92539
 Zero-point vibrational energy     120905.5 (Joules/Mol)
                                   28.89710 (Kcal/Mol)
 Warning -- explicit consideration of   3 degrees of freedom as
           vibrations may cause significant error
 Vibrational temperatures:    321.49   368.28   419.50   900.57  1013.03
          (Kelvin)           1053.80  1299.12  1449.99  1731.89  1808.40
                             2089.09  3854.78  3855.63  4420.01  4497.54

 Zero-point correction=                           0.046050 (Hartree/Particle)
 Thermal correction to Energy=                    0.050799
 Thermal correction to Enthalpy=                  0.051744
 Thermal correction to Gibbs Free Energy=         0.018429
 Sum of electronic and zero-point Energies=           -836.924676
 Sum of electronic and thermal Energies=              -836.919927
 Sum of electronic and thermal Enthalpies=            -836.918982
 Sum of electronic and thermal Free Energies=         -836.952297

                     E (Thermal)             CV                S
                      KCal/Mol        Cal/Mol-Kelvin    Cal/Mol-Kelvin
 Total                   31.877             15.105             70.116
 Electronic               0.000              0.000              0.000
 Translational            0.889              2.981             39.052
 Rotational               0.889              2.981             24.684
 Vibrational             30.100              9.143              6.380
 Vibration     1          0.649              1.805              1.931
 Vibration     2          0.666              1.753              1.689
 Vibration     3          0.687              1.689              1.465

 Normal termination of Gaussian 09 at Wed Aug  3 20:30:56 2016.
