 Gaussian 09, Revision E.01,
 Gaussian 09:  EM64L-G09RevE.01 30-Nov-2015

 ------------------------------
 #p b3lyp/6-311++G(3df,2p) freq
 ------------------------------

 ---------
 b3lyp opt
 ---------
 Symbolic Z-matrix:
 Charge =  2 Multiplicity = 3

                         Standard orientation:
 ---------------------------------------------------------------------
 Center     Atomic      Atomic             Coordinates (Angstroms)
 Number     Number       Type             X           Y           Z
 ---------------------------------------------------------------------
      1         16           0       -0.000000   -1.523826   -0.276090
      2         16           0        0.000000    1.523826   -0.276090
      3          6           0        0.000000    0.000000    0.744405
      4          1           0        0.890517    0.000000    1.394252
      5          1           0        0.000000    2.383444    0.789981
      6          1           0       -0.890517   -0.000000    1.394252
      7          1           0       -0.000000   -2.383444    0.789981
 ---------------------------------------------------------------------

 SCF Done:  E(UB3LYP) =  -836.078015733     A.U. after   12 cycles

 The electronic state is 3-B2.
 Alpha  occ. eigenvalues --  -89.40523 -89.40523 -10.70212  -8.48455  -8.48454
 Alpha  occ. eigenvalues --   -6.45310  -6.45310  -6.44423  -6.44423  -6.44012
 Alpha  occ. eigenvalues --   -6.44012  -1.31504  -1.24356  -1.09948  -0.94761
 Alpha  occ. eigenvalues --   -0.92611  -0.87951  -0.85417  -0.81141  -0.79195
 Alpha  occ. eigenvalues --   -0.76340
 Alpha virt. eigenvalues --   -0.46302  -0.43299  -0.42791  -0.37523  -0.34152
 Alpha virt. eigenvalues --   -0.33110  -0.27347  -0.27214  -0.26612  -0.24942
 Alpha virt. eigenvalues --   -0.24392  -0.24295  -0.22508  -0.22353  -0.21839

  Beta  occ. eigenvalues --  -89.39865 -89.39865 -10.70227  -8.47850  -8.47849
  Beta  occ. eigenvalues --   -6.44030  -6.44030  -6.43647  -6.43647  -6.43272
  Beta  occ. eigenvalues --   -6.43272  -1.29118  -1.20421  -1.07731  -0.93984
  Beta  occ. eigenvalues --   -0.89974  -0.87124  -0.83924  -0.79852
  Beta virt. eigenvalues --   -0.64052  -0.62468  -0.45624  -0.42097  -0.41487
  Beta virt. eigenvalues --   -0.36163  -0.33367  -0.31633  -0.27008  -0.25410
  Beta virt. eigenvalues --   -0.25327  -0.24751  -0.24274  -0.21925  -0.21839

 Mulliken charges and spin densities:
               1          2
     1  S    0.444787   0.996597
     2  S    0.444787   0.996597
     3  C    0.024015  -0.069384
     4  H    0.261695   0.057927
     5  H    0.281510  -0.019832
     6  H    0.261695   0.057927
     7  H    0.281510  -0.019832
 Sum of Mulliken charges =   2.00000   2.00000

 Dipole moment (field-independent basis, Debye):
    X=              0.0000    Y=             -0.0000    Z=              2.5970  Tot=              2.5970
 Quadrupole moment (field-independent basis, Debye-Ang):
   XX=            -25.4168   YY=              2.0916   ZZ=            -21.9324
   XY=              0.0000   XZ=             -0.0000   YZ=              0.0000

  Exact polarizability:  29.529  -0.000  57.110   0.000   0.000  37.427
 Approx polarizability:  46.504   0.000  81.913  -0.000   0.000  61.800

                      1                      2                      3
                     B1                     A2                     A1
 Frequencies --    172.2178               185.4876               241.0306
 Red. masses --      1.0475                 1.0846                10.6408
 Frc consts  --      0.0183                 0.0220                 0.3642
 IR Inten    --     44.3197                 0.0000                 0.0003

                      4                      5                      6
                     A1                     B1                     B2
 Frequencies --    577.1650               651.9495               664.2955
 Red. masses --      3.6687                 1.4237                 5.1381
 Frc consts  --      0.7200                 0.3565                 1.3359
 IR Inten    --      2.4804                 6.8575                 0.0287

                      7                      8                      9
                     B2                     A1                     A2
 Frequencies --    868.2214               974.3474              1062.2757
 Red. masses --      1.0851                 1.2449                 1.0154
 Frc consts  --      0.4819                 0.6963                 0.6751
 IR Inten    --     23.6191                 1.5011                 0.0000

                     10                     11                     12
                     B2                     A1                     B2
 Frequencies --   1242.9848              1320.9375              2510.4794
 Red. masses --      1.2054                 1.0545                 1.0389
 Frc consts  --      1.0973                 1.0840                 3.8577
 IR Inten    --      8.1429                36.3542               207.5795

                     13                     14                     15
                     A1                     A1                     B1
 Frequencies --   2513.4197              2937.5864              2977.6232
 Red. masses --      1.0398                 1.0556                 1.1023
 Frc consts  --      3.8702                 5.3668                 5.7583
 IR Inten    --     89.9325               104.1700                68.6741

 - Thermochemistry -
 -------------------
 Temperature   298.150 Kelvin.  Pressure   1.00000 Atm.
 Atom     1 has atomic number 16 and mass  31.97207

 Molecular mass:    79.97544 amu.
 Principal axes and moments of inertia in atomic units:
                           1         2         3
     Eigenvalues --    64.51233 576.83502 629.93100
           X            0.00000  -0.00000   1.00000
           Y            1.00000  -0.00000  -0.00000
           Z            0.00000   1.00000   0.00000
 This molecule is an asymmetric top.
 Rotational symmetry number  2.
 Rotational temperatures (Kelvin)      1.34259     0.15015     0.13750
 Rotational constants (GHZ):          27.97514     3.12870     2.86498
 Zero-point vibrational energy     113047.2 (Joules/Mol)
                                   27.01894 (Kcal/Mol)
 Warning -- explicit consideration of   4 degrees of freedom as
           vibrations may cause significant error
 Vibrational temperatures:    247.78   266.87   346.79   830.41   938.01
          (Kelvin)            955.77  1249.18  1401.87  1528.38  1788.38
                             1900.53  3612.02  3616.25  4226.53  4284.13

 Zero-point correction=                           0.043057 (Hartree/Particle)
 Thermal correction to Energy=                    0.048168
 Thermal correction to Enthalpy=                  0.049112
 Thermal correction to Gibbs Free Energy=         0.014615
 Sum of electronic and zero-point Energies=           -836.034958
 Sum of electronic and thermal Energies=              -836.029848
 Sum of electronic and thermal Enthalpies=            -836.028904
 Sum of electronic and thermal Free Energies=         -836.063401

                     E (Thermal)             CV                S
                      KCal/Mol        Cal/Mol-Kelvin    Cal/Mol-Kelvin
 Total                   30.226             15.964             72.606
 Electronic               0.000              0.000              2.183
 Translational            0.889              2.981             39.052
 Rotational               0.889              2.981             23.287
 Vibrational             28.448             10.003              8.084
 Vibration     1          0.626              1.877              2.411
 Vibration     2          0.632              1.860              2.272
 Vibration     3          0.658              1.778              1.795
 Vibration     4          0.934              1.081              0.491

 Optimization completed.
    -- Stationary point found.
 Normal termination of Gaussian 09 at Wed Aug  3 22:55:36 2016.
