 Gaussian 09, Revision E.01,
 Gaussian 09:  EM64L-G09RevE.01 30-Nov-2015

 ------------------------------
 #p b3lyp/6-311++G(3df,2p) freq
 ------------------------------

 ---------
 b3lyp opt
 ---------
 Symbolic Z-matrix:
 Charge =  2 Multiplicity = 1

                         Standard orientation:
 ---------------------------------------------------------------------
 Center     Atomic      Atomic             Coordinates (Angstroms)
 Number     Number       Type             X           Y           Z
 ---------------------------------------------------------------------
      1         16           0        1.402333   -0.240583   -0.088804
      2         16           0       -0.515484    0.439781    0.060901
      3          6           0       -1.784927   -0.587047   -0.000400
      4          1           0        1.805597    0.525623    0.969388
      5          1           0       -0.868470    1.627946   -0.534670
      6          1           0       -2.768658   -0.183259   -0.267085
      7          1           0       -1.648497   -1.635186    0.281217
 ---------------------------------------------------------------------

 SCF Done:  E(RB3LYP) =  -836.069180952     A.U. after   12 cycles

 The electronic state is 1-A.
 Alpha  occ. eigenvalues --  -89.45437 -89.36151 -10.75073  -8.53438  -8.44244
 Alpha  occ. eigenvalues --   -6.49520  -6.49505  -6.49345  -6.40940  -6.40087
 Alpha  occ. eigenvalues --   -6.39558  -1.36787  -1.22049  -1.11222  -0.98586
 Alpha  occ. eigenvalues --   -0.94513  -0.90393  -0.87818  -0.80880  -0.72919
 Alpha virt. eigenvalues --   -0.60554  -0.52037  -0.44459  -0.42923  -0.39873
 Alpha virt. eigenvalues --   -0.33137  -0.30954  -0.29544  -0.27774  -0.26836
 Alpha virt. eigenvalues --   -0.25712  -0.24114  -0.23969  -0.22564  -0.21228

 Mulliken charges:
               1
     1  S    0.390084
     2  S    0.419745
     3  C    0.058489
     4  H    0.257455
     5  H    0.303096
     6  H    0.284028
     7  H    0.287103
 Sum of Mulliken charges =   2.00000

 Dipole moment (field-independent basis, Debye):
    X=             -3.6965    Y=              0.7413    Z=              0.2379  Tot=              3.7776
 Quadrupole moment (field-independent basis, Debye-Ang):
   XX=             -0.0731   YY=            -19.0760   ZZ=            -26.3967
   XY=              1.8312   XZ=              2.8638   YZ=             -0.3792

  Exact polarizability:  70.902   3.672  39.766   1.734  -0.555  30.160
 Approx polarizability: 142.074   9.909  70.570   2.122   1.850  49.827

                      1                      2                      3
                      A                      A                      A
 Frequencies --    170.9486               247.0348               314.6793
 Red. masses --      2.5348                 1.1768                 1.5340
 Frc consts  --      0.0436                 0.0423                 0.0895
 IR Inten    --     24.1187                54.4911                53.2018

                      4                      5                      6
                      A                      A                      A
 Frequencies --    453.7853               645.7950               829.5645
 Red. masses --      7.1109                 1.0294                 1.0850
 Frc consts  --      0.8627                 0.2529                 0.4399
 IR Inten    --      3.4738                52.6947                 3.9317

                      7                      8                      9
                      A                      A                      A
 Frequencies --    923.2078               969.2279              1021.2139
 Red. masses --      1.1679                 3.4785                 1.2631
 Frc consts  --      0.5865                 1.9253                 0.7761
 IR Inten    --      1.8393                51.4034                45.9835

                     10                     11                     12
                      A                      A                      A
 Frequencies --   1060.6298              1382.8699              2427.6441
 Red. masses --      1.2330                 1.1319                 1.0415
 Frc consts  --      0.8172                 1.2753                 3.6163
 IR Inten    --     23.3069                13.1300               241.0838

                     13                     14                     15
                      A                      A                      A
 Frequencies --   2520.9359              3023.1382              3155.2693
 Red. masses --      1.0395                 1.0496                 1.1287
 Frc consts  --      3.8924                 5.6520                 6.6207
 IR Inten    --    164.4187               224.1434               160.0389

 - Thermochemistry -
 -------------------
 Temperature   298.150 Kelvin.  Pressure   1.00000 Atm.
 Atom     1 has atomic number 16 and mass  31.97207

 Molecular mass:    79.97544 amu.
 Principal axes and moments of inertia in atomic units:
                           1         2         3
     Eigenvalues --    69.57707 449.08754 506.70256
           X            0.99947   0.02628   0.01903
           Y           -0.02542   0.99871  -0.04394
           Z           -0.02016   0.04343   0.99885
 This molecule is an asymmetric top.
 Rotational symmetry number  1.
 Rotational temperatures (Kelvin)      1.24486     0.19287     0.17094
 Rotational constants (GHZ):          25.93874     4.01868     3.56174
 Zero-point vibrational energy     114518.2 (Joules/Mol)
                                   27.37050 (Kcal/Mol)
 Warning -- explicit consideration of   4 degrees of freedom as
           vibrations may cause significant error
 Vibrational temperatures:    245.96   355.43   452.75   652.90   929.15
          (Kelvin)           1193.56  1328.29  1394.50  1469.30  1526.01
                             1989.64  3492.83  3627.06  4349.62  4539.72

 Zero-point correction=                           0.043618 (Hartree/Particle)
 Thermal correction to Energy=                    0.048580
 Thermal correction to Enthalpy=                  0.049524
 Thermal correction to Gibbs Free Energy=         0.015981
 Sum of electronic and zero-point Energies=           -836.025563
 Sum of electronic and thermal Energies=              -836.020601
 Sum of electronic and thermal Enthalpies=            -836.019657
 Sum of electronic and thermal Free Energies=         -836.053200

                     E (Thermal)             CV                S
                      KCal/Mol        Cal/Mol-Kelvin    Cal/Mol-Kelvin
 Total                   30.484             15.813             70.599
 Electronic               0.000              0.000              0.000
 Translational            0.889              2.981             39.052
 Rotational               0.889              2.981             24.274
 Vibrational             28.707              9.851              7.272
 Vibration     1          0.626              1.878              2.425
 Vibration     2          0.661              1.768              1.752
 Vibration     3          0.702              1.646              1.338
 Vibration     4          0.812              1.353              0.784

 Optimization completed.
    -- Stationary point found.
 Normal termination of Gaussian 09 at Wed Aug  3 20:34:59 2016.
