 Gaussian 09, Revision E.01,
 Gaussian 09:  EM64L-G09RevE.01 30-Nov-2015

 ------------------------------
 #p b3lyp/6-311++G(3df,2p) freq
 ------------------------------

 ---------
 b3lyp opt
 ---------
 Symbolic Z-matrix:
 Charge =  2 Multiplicity = 3

                         Standard orientation:
 ---------------------------------------------------------------------
 Center     Atomic      Atomic             Coordinates (Angstroms)
 Number     Number       Type             X           Y           Z
 ---------------------------------------------------------------------
      1         16           0       -1.529980   -0.290689   -0.024634
      2         16           0        1.586418   -0.150362   -0.092698
      3          6           0       -0.003964    0.734122    0.080805
      4          1           0       -0.017799    1.245680    1.058664
      5          1           0        1.562272   -0.856762    1.078979
      6          1           0       -0.039980    1.482019   -0.721611
      7          1           0       -2.383721    0.781134   -0.023551
 ---------------------------------------------------------------------

 SCF Done:  E(UB3LYP) =  -836.076383501     A.U. after   14 cycles

 The electronic state is 3-A.
 Alpha  occ. eigenvalues --  -89.40896 -89.40725 -10.70182  -8.48806  -8.48619
 Alpha  occ. eigenvalues --   -6.45634  -6.45475  -6.44826  -6.44586  -6.44365
 Alpha  occ. eigenvalues --   -6.44170  -1.31551  -1.24571  -1.10253  -0.93905
 Alpha  occ. eigenvalues --   -0.92969  -0.89139  -0.83468  -0.82816  -0.78350
 Alpha  occ. eigenvalues --   -0.77301
 Alpha virt. eigenvalues --   -0.46651  -0.43244  -0.40913  -0.39926  -0.33478
 Alpha virt. eigenvalues --   -0.32462  -0.28943  -0.27484  -0.26851  -0.25690
 Alpha virt. eigenvalues --   -0.24605  -0.23641  -0.22690  -0.22216  -0.21014

  Beta  occ. eigenvalues --  -89.40202 -89.40079 -10.70218  -8.48168  -8.48024
  Beta  occ. eigenvalues --   -6.44333  -6.44199  -6.43962  -6.43814  -6.43588
  Beta  occ. eigenvalues --   -6.43471  -1.29078  -1.20510  -1.08146  -0.92462
  Beta  occ. eigenvalues --   -0.91714  -0.87822  -0.81595  -0.81173
  Beta virt. eigenvalues --   -0.64108  -0.63391  -0.45590  -0.42558  -0.39500
  Beta virt. eigenvalues --   -0.37955  -0.32326  -0.31556  -0.27568  -0.26930
  Beta virt. eigenvalues --   -0.26198  -0.24922  -0.23820  -0.22325  -0.21384

 Mulliken charges and spin densities:
               1          2
     1  S    0.483429   1.033100
     2  S    0.495573   0.974096
     3  C   -0.041172  -0.063930
     4  H    0.269807   0.059858
     5  H    0.254869  -0.015286
     6  H    0.257043   0.028139
     7  H    0.280451  -0.015977
 Sum of Mulliken charges =   2.00000   2.00000

 Dipole moment (field-independent basis, Debye):
    X=             -0.8020    Y=              1.0515    Z=              1.0657  Tot=              1.6984
 Quadrupole moment (field-independent basis, Debye-Ang):
   XX=             -1.3305   YY=            -21.6492   ZZ=            -24.0589
   XY=             -3.3598   XZ=              1.8874   YZ=             -0.8553

  Exact polarizability:  57.789  -1.943  36.638   0.718  -1.005  31.917
 Approx polarizability:  85.288  -2.565  59.893   0.337  -1.868  51.133

                      1                      2                      3
                      A                      A                      A
 Frequencies --    131.4286               202.4142               234.9468
 Red. masses --      1.0843                 1.1817                 5.9841
 Frc consts  --      0.0110                 0.0285                 0.1946
 IR Inten    --     41.2101                12.9815                 3.4716

                      4                      5                      6
                      A                      A                      A
 Frequencies --    558.5230               655.8976               686.7505
 Red. masses --      5.2249                 6.1060                 1.2484
 Frc consts  --      0.9603                 1.5477                 0.3469
 IR Inten    --      3.6539                 7.9132                 5.9665

                      7                      8                      9
                      A                      A                      A
 Frequencies --    890.8385               934.1218              1113.0260
 Red. masses --      1.1096                 1.1527                 1.0846
 Frc consts  --      0.5188                 0.5926                 0.7916
 IR Inten    --      6.7312                11.5957                 3.3690

                     10                     11                     12
                      A                      A                      A
 Frequencies --   1247.8328              1353.2053              2505.0042
 Red. masses --      1.1213                 1.0721                 1.0393
 Frc consts  --      1.0287                 1.1567                 3.8423
 IR Inten    --      4.1359                34.0051               171.5939

                     13                     14                     15
                      A                      A                      A
 Frequencies --   2522.4936              2932.6347              3027.8321
 Red. masses --      1.0398                 1.0610                 1.0995
 Frc consts  --      3.8983                 5.3763                 5.9387
 IR Inten    --     76.2169                98.8473                77.2462

 - Thermochemistry -
 -------------------
 Temperature   298.150 Kelvin.  Pressure   1.00000 Atm.
 Atom     1 has atomic number 16 and mass  31.97207

 Molecular mass:    79.97544 amu.
 Principal axes and moments of inertia in atomic units:
                           1         2         3
     Eigenvalues --    64.36688 595.27963 637.36717
           X            0.99970  -0.02136   0.01188
           Y            0.02201   0.99810  -0.05755
           Z           -0.01063   0.05780   0.99827
 This molecule is an asymmetric top.
 Rotational symmetry number  1.
 Rotational temperatures (Kelvin)      1.34563     0.14550     0.13589
 Rotational constants (GHZ):          28.03835     3.03175     2.83156
 Zero-point vibrational energy     113627.0 (Joules/Mol)
                                   27.15750 (Kcal/Mol)
 Warning -- explicit consideration of   4 degrees of freedom as
           vibrations may cause significant error
 Vibrational temperatures:    189.10   291.23   338.04   803.59   943.69
          (Kelvin)            988.08  1281.72  1343.99  1601.39  1795.35
                             1946.96  3604.14  3629.30  4219.40  4356.37

 Zero-point correction=                           0.043278 (Hartree/Particle)
 Thermal correction to Energy=                    0.048436
 Thermal correction to Enthalpy=                  0.049380
 Thermal correction to Gibbs Free Energy=         0.014025
 Sum of electronic and zero-point Energies=           -836.033105
 Sum of electronic and thermal Energies=              -836.027947
 Sum of electronic and thermal Enthalpies=            -836.027003
 Sum of electronic and thermal Free Energies=         -836.062358

                     E (Thermal)             CV                S
                      KCal/Mol        Cal/Mol-Kelvin    Cal/Mol-Kelvin
 Total                   30.394             15.939             74.411
 Electronic               0.000              0.000              2.183
 Translational            0.889              2.981             39.052
 Rotational               0.889              2.981             24.705
 Vibrational             28.617              9.978              8.471
 Vibration     1          0.612              1.922              2.925
 Vibration     2          0.639              1.836              2.111
 Vibration     3          0.655              1.787              1.841
 Vibration     4          0.914              1.121              0.527

 Normal termination of Gaussian 09 at Wed Aug  3 20:36:15 2016.
