 Gaussian 09, Revision E.01,
 Gaussian 09:  EM64L-G09RevE.01 30-Nov-2015

 ------------------------------
 #p b3lyp/6-311++G(3df,2p) freq
 ------------------------------

 ---------
 b3lyp opt
 ---------
 Symbolic Z-matrix:
 Charge =  0 Multiplicity = 1

                         Standard orientation:
 ---------------------------------------------------------------------
 Center     Atomic      Atomic             Coordinates (Angstroms)
 Number     Number       Type             X           Y           Z
 ---------------------------------------------------------------------
      1         16           0        0.663004   -0.086925    0.000007
      2          6           0       -1.158296    0.020253    0.000035
      3          1           0        0.911448    1.231896    0.000120
      4          1           0       -1.523906    0.525469   -0.889951
      5          1           0       -1.524563    0.516885    0.894590
      6          1           0       -1.521273   -1.004970   -0.005073
 ---------------------------------------------------------------------

 SCF Done:  E(RB3LYP) =  -438.752559961     A.U. after   10 cycles

 The electronic state is 1-A.
 Alpha  occ. eigenvalues --  -88.84513 -10.19938  -7.93119  -5.89483  -5.89151
 Alpha  occ. eigenvalues --   -5.88546  -0.78288  -0.65009  -0.45454  -0.43587
 Alpha  occ. eigenvalues --   -0.39668  -0.33800  -0.24327
 Alpha virt. eigenvalues --   -0.01852   0.00222   0.02707   0.02961   0.03267
 Alpha virt. eigenvalues --    0.06762   0.07689   0.07707   0.08020   0.09321
 Alpha virt. eigenvalues --    0.10524   0.12102   0.13378   0.14303   0.16643

 Mulliken charges:
               1
     1  S   -0.227789
     2  C   -0.349393
     3  H    0.114481
     4  H    0.152381
     5  H    0.152221
     6  H    0.158099
 Sum of Mulliken charges =  -0.00000

 Dipole moment (field-independent basis, Debye):
    X=             -1.3546    Y=              0.7605    Z=             -0.0002  Tot=              1.5535
 Quadrupole moment (field-independent basis, Debye-Ang):
   XX=            -20.3948   YY=            -19.5538   ZZ=            -22.8491
   XY=              1.2631   XZ=              0.0010   YZ=              0.0002

  Exact polarizability:  42.374   0.698  32.607  -0.002  -0.000  33.535
 Approx polarizability:  59.040   2.021  50.666  -0.002   0.001  46.975

                      1                      2                      3
                      A                      A                      A
 Frequencies --    233.0150               698.6356               801.9097
 Red. masses --      1.0297                 5.2201                 1.0753
 Frc consts  --      0.0329                 1.5012                 0.4074
 IR Inten    --     10.5007                 1.4844                 0.3218

                      4                      5                      6
                      A                      A                      A
 Frequencies --    973.1918              1099.0735              1360.6944
 Red. masses --      1.1782                 1.2282                 1.1487
 Frc consts  --      0.6575                 0.8741                 1.2530
 IR Inten    --      4.5087                10.9055                 5.1919

                      7                      8                      9
                      A                      A                      A
 Frequencies --   1478.6521              1491.3190              2679.1589
 Red. masses --      1.0529                 1.0503                 1.0386
 Frc consts  --      1.3563                 1.3762                 4.3924
 IR Inten    --      4.5828                 7.7927                 2.6923

                     10                     11                     12
                      A                      A                      A
 Frequencies --   3049.2655              3130.5189              3131.4858
 Red. masses --      1.0290                 1.1080                 1.1040
 Frc consts  --      5.6371                 6.3977                 6.3785
 IR Inten    --     23.5519                 6.1708                 6.4233

 - Thermochemistry -
 -------------------
 Temperature   298.150 Kelvin.  Pressure   1.00000 Atm.
 Atom     1 has atomic number 16 and mass  31.97207

 Molecular mass:    48.00337 amu.
 Principal axes and moments of inertia in atomic units:
                           1         2         3
     Eigenvalues --    17.45026 140.57943 146.56807
           X            0.99961   0.02781   0.00001
           Y           -0.02781   0.99961   0.00000
           Z           -0.00001  -0.00000   1.00000
 This molecule is an asymmetric top.
 Rotational symmetry number  1.
 Rotational temperatures (Kelvin)      4.96347     0.61612     0.59095
 Rotational constants (GHZ):         103.42205    12.83787    12.31333
 Zero-point vibrational energy     120385.7 (Joules/Mol)
                                   28.77288 (Kcal/Mol)
 Warning -- explicit consideration of   1 degrees of freedom as
           vibrations may cause significant error
 Vibrational temperatures:    335.26  1005.18  1153.77  1400.20  1581.32
          (Kelvin)           1957.73  2127.45  2145.67  3854.71  4387.21
                             4504.11  4505.50

 Zero-point correction=                           0.045852 (Hartree/Particle)
 Thermal correction to Energy=                    0.049472
 Thermal correction to Enthalpy=                  0.050416
 Thermal correction to Gibbs Free Energy=         0.021611
 Sum of electronic and zero-point Energies=           -438.706707
 Sum of electronic and thermal Energies=              -438.703088
 Sum of electronic and thermal Enthalpies=            -438.702144
 Sum of electronic and thermal Free Energies=         -438.730949

                     E (Thermal)             CV                S
                      KCal/Mol        Cal/Mol-Kelvin    Cal/Mol-Kelvin
 Total                   31.044             10.200             60.626
 Electronic               0.000              0.000              0.000
 Translational            0.889              2.981             37.530
 Rotational               0.889              2.981             20.514
 Vibrational             29.267              4.238              2.582
 Vibration     1          0.654              1.790              1.856

 Normal termination of Gaussian 09 at Wed Aug  3 20:33:27 2016.
