 Gaussian 09, Revision E.01,
 Gaussian 09:  EM64L-G09RevE.01 30-Nov-2015

 ------------------------------
 #p b3lyp/6-311++G(3df,2p) freq
 ------------------------------

 ---------
 b3lyp opt
 ---------
 Symbolic Z-matrix:
 Charge =  0 Multiplicity = 1

                         Standard orientation:
 ---------------------------------------------------------------------
 Center     Atomic      Atomic             Coordinates (Angstroms)
 Number     Number       Type             X           Y           Z
 ---------------------------------------------------------------------
      1         16           0        0.022515   -0.349721    0.000000
      2          6           0        0.022515    1.211536   -0.000000
      3          1           0        1.288582   -0.810759    0.000000
      4          1           0       -0.947997    1.696332   -0.000000
      5          1           0       -0.417958   -1.279630    0.998622
      6          1           0       -0.417958   -1.279630   -0.998622
 ---------------------------------------------------------------------

 SCF Done:  E(RB3LYP) =  -438.518975894     A.U. after   12 cycles

 The electronic state is 1-A'.
 Alpha  occ. eigenvalues --  -88.97767 -10.14432  -8.05004  -6.01239  -6.01092
 Alpha  occ. eigenvalues --   -6.00953  -0.87154  -0.64226  -0.51045  -0.47590
 Alpha  occ. eigenvalues --   -0.43224  -0.23245  -0.20818
 Alpha virt. eigenvalues --   -0.05431  -0.02503   0.00235   0.00253   0.03532
 Alpha virt. eigenvalues --    0.04702   0.05500   0.06352   0.08247   0.08328
 Alpha virt. eigenvalues --    0.09822   0.11440   0.12143   0.13598   0.14825

 Mulliken charges:
               1
     1  S    0.238850
     2  C   -0.654182
     3  H    0.170441
     4  H    0.168098
     5  H    0.038396
     6  H    0.038396
 Sum of Mulliken charges =  -0.00000

 Dipole moment (field-independent basis, Debye):
    X=             -0.3879    Y=             -3.4050    Z=             -0.0000  Tot=              3.4271
 Quadrupole moment (field-independent basis, Debye-Ang):
   XX=            -20.1442   YY=            -24.1624   ZZ=            -23.1001
   XY=             -3.0235   XZ=              0.0000   YZ=              0.0000

  Exact polarizability:  33.883   5.198  69.559   0.000  -0.000  42.260
 Approx polarizability:  51.391  15.453 142.143   0.000   0.000  62.374

                      1                      2                      3
                     A"                     A"                     A'
 Frequencies --    513.4519               645.4986               730.2379
 Red. masses --      1.1053                 1.2517                 1.2080
 Frc consts  --      0.1717                 0.3073                 0.3795
 IR Inten    --    129.4415                36.7582               139.3006

                      4                      5                      6
                     A'                     A"                     A'
 Frequencies --    791.3207              1093.2336              1127.5763
 Red. masses --      1.5618                 1.0391                 2.1133
 Frc consts  --      0.5762                 0.7317                 1.5831
 IR Inten    --      5.1844                16.8074                 9.9125

                      7                      8                      9
                     A'                     A'                     A"
 Frequencies --   1248.5181              1338.9121              1776.3675
 Red. masses --      1.0505                 1.2076                 1.0420
 Frc consts  --      0.9648                 1.2755                 1.9372
 IR Inten    --      1.4335               115.6749               519.1438

                     10                     11                     12
                     A'                     A'                     A'
 Frequencies --   1987.6387              2572.9120              3176.9049
 Red. masses --      1.0443                 1.0374                 1.0892
 Frc consts  --      2.4309                 4.0461                 6.4768
 IR Inten    --    672.7537                 6.7438                 1.3922

 - Thermochemistry -
 -------------------
 Temperature   298.150 Kelvin.  Pressure   1.00000 Atm.
 Atom     1 has atomic number 16 and mass  31.97207

 Molecular mass:    48.00337 amu.
 Principal axes and moments of inertia in atomic units:
                           1         2         3
     Eigenvalues --    17.37645 108.67449 111.69456
           X           -0.06023   0.99818  -0.00000
           Y            0.99818   0.06023   0.00000
           Z           -0.00000   0.00000   1.00000
 This molecule is an asymmetric top.
 Rotational symmetry number  1.
 Rotational temperatures (Kelvin)      4.98455     0.79700     0.77545
 Rotational constants (GHZ):         103.86133    16.60685    16.15782
 Zero-point vibrational energy     101698.0 (Joules/Mol)
                                   24.30640 (Kcal/Mol)
 Warning -- explicit consideration of   1 degrees of freedom as
           vibrations may cause significant error
 Vibrational temperatures:    738.74   928.73  1050.65  1138.53  1572.92
          (Kelvin)           1622.33  1796.34  1926.39  2555.79  2859.77
                             3701.84  4570.85

 Zero-point correction=                           0.038735 (Hartree/Particle)
 Thermal correction to Energy=                    0.042174
 Thermal correction to Enthalpy=                  0.043118
 Thermal correction to Gibbs Free Energy=         0.014997
 Sum of electronic and zero-point Energies=           -438.480241
 Sum of electronic and thermal Energies=              -438.476802
 Sum of electronic and thermal Enthalpies=            -438.475858
 Sum of electronic and thermal Free Energies=         -438.503979

                     E (Thermal)             CV                S
                      KCal/Mol        Cal/Mol-Kelvin    Cal/Mol-Kelvin
 Total                   26.464             10.446             59.186
 Electronic               0.000              0.000              0.000
 Translational            0.889              2.981             37.530
 Rotational               0.889              2.981             19.984
 Vibrational             24.687              4.485              1.672
 Vibration     1          0.869              1.220              0.625

 Optimization completed.
    -- Stationary point found.
 Normal termination of Gaussian 09 at Wed Aug  3 22:54:24 2016.
