 Gaussian 09, Revision E.01,
 Gaussian 09:  EM64L-G09RevE.01 30-Nov-2015

 ------------------------------
 #p b3lyp/6-311++G(3df,2p) freq
 ------------------------------

 ---------
 b3lyp opt
 ---------
 Symbolic Z-matrix:
 Charge =  2 Multiplicity = 1

                         Standard orientation:
 ---------------------------------------------------------------------
 Center     Atomic      Atomic             Coordinates (Angstroms)
 Number     Number       Type             X           Y           Z
 ---------------------------------------------------------------------
      1         16           0        0.047015   -0.528570    0.000000
      2          6           0        0.047015    1.158455   -0.000000
      3          1           0       -0.639536   -0.940702    1.124304
      4          1           0        0.122371    1.693895    0.958898
      5          1           0        0.122371    1.693895   -0.958898
      6          1           0       -0.639536   -0.940702   -1.124304
 ---------------------------------------------------------------------

 SCF Done:  E(RB3LYP) =  -437.793234487     A.U. after   10 cycles

 The electronic state is 1-A'.
 Alpha  occ. eigenvalues --  -89.49608 -10.83539  -8.57828  -6.53989  -6.53825
 Alpha  occ. eigenvalues --   -6.53631  -1.40084  -1.19951  -1.04832  -1.00862
 Alpha  occ. eigenvalues --   -0.96227  -0.90537
 Alpha virt. eigenvalues --   -0.67576  -0.50244  -0.49553  -0.46881  -0.35578
 Alpha virt. eigenvalues --   -0.35299  -0.34775  -0.30341  -0.29056  -0.27051
 Alpha virt. eigenvalues --   -0.26679  -0.24996  -0.23511  -0.20564  -0.18306

 Mulliken charges:
               1
     1  S    0.525049
     2  C    0.196386
     3  H    0.341682
     4  H    0.297600
     5  H    0.297600
     6  H    0.341682
 Sum of Mulliken charges =   2.00000

 Dipole moment (field-independent basis, Debye):
    X=             -1.1979    Y=              1.1532    Z=             -0.0000  Tot=              1.6628
 Quadrupole moment (field-independent basis, Debye-Ang):
   XX=            -14.7074   YY=             -1.9921   ZZ=             -8.9967
   XY=              2.4589   XZ=              0.0000   YZ=             -0.0000

  Exact polarizability:  17.816   1.402  33.410  -0.000   0.000  22.798
 Approx polarizability:  27.381  -0.355  59.795   0.000  -0.000  34.218

                      1                      2                      3
                     A'                     A"                     A"
 Frequencies --    429.6772               644.0144               709.2659
 Red. masses --      1.2911                 1.0117                 1.0202
 Frc consts  --      0.1404                 0.2472                 0.3024
 IR Inten    --    204.2581                 1.8686                 0.2737

                      4                      5                      6
                     A'                     A"                     A'
 Frequencies --    871.1080              1030.0913              1062.8249
 Red. masses --      2.9411                 1.2612                 1.2030
 Frc consts  --      1.3149                 0.7885                 0.8007
 IR Inten    --     21.2941                 5.3058                 5.6840

                      7                      8                      9
                     A'                     A'                     A'
 Frequencies --   1175.8356              1394.1857              2390.8853
 Red. masses --      1.1632                 1.1131                 1.0288
 Frc consts  --      0.9475                 1.2748                 3.4650
 IR Inten    --     35.9992                 9.5989               295.4683

                     10                     11                     12
                     A"                     A'                     A"
 Frequencies --   2421.4478              2979.3756              3105.2038
 Red. masses --      1.0532                 1.0490                 1.1308
 Frc consts  --      3.6383                 5.4861                 6.4239
 IR Inten    --    393.6228               164.6418               197.4172

 - Thermochemistry -
 -------------------
 Temperature   298.150 Kelvin.  Pressure   1.00000 Atm.
 Atom     1 has atomic number 16 and mass  31.97207

 Molecular mass:    48.00337 amu.
 Principal axes and moments of inertia in atomic units:
                           1         2         3
     Eigenvalues --    18.77733 119.58858 132.24564
           X            0.04793   0.00000   0.99885
           Y            0.99885   0.00000  -0.04793
           Z           -0.00000   1.00000  -0.00000
 This molecule is an asymmetric top.
 Rotational symmetry number  1.
 Rotational temperatures (Kelvin)      4.61268     0.72426     0.65495
 Rotational constants (GHZ):          96.11280    15.09125    13.64689
 Zero-point vibrational energy     108943.4 (Joules/Mol)
                                   26.03810 (Kcal/Mol)
 Warning -- explicit consideration of   1 degrees of freedom as
           vibrations may cause significant error
 Vibrational temperatures:    618.21   926.59  1020.47  1253.33  1482.07
          (Kelvin)           1529.17  1691.76  2005.92  3439.95  3483.92
                             4286.65  4467.69

 Zero-point correction=                           0.041494 (Hartree/Particle)
 Thermal correction to Energy=                    0.045003
 Thermal correction to Enthalpy=                  0.045947
 Thermal correction to Gibbs Free Energy=         0.017551
 Sum of electronic and zero-point Energies=           -437.751740
 Sum of electronic and thermal Energies=              -437.748232
 Sum of electronic and thermal Enthalpies=            -437.747287
 Sum of electronic and thermal Free Energies=         -437.775684

                     E (Thermal)             CV                S
                      KCal/Mol        Cal/Mol-Kelvin    Cal/Mol-Kelvin
 Total                   28.240             10.653             59.766
 Electronic               0.000              0.000              0.000
 Translational            0.889              2.981             37.530
 Rotational               0.889              2.981             20.324
 Vibrational             26.462              4.691              1.911
 Vibration     1          0.791              1.406              0.860

 Optimization completed.
    -- Stationary point found.
 Normal termination of Gaussian 09 at Wed Aug  3 22:56:47 2016.
