 Gaussian 09, Revision E.01,
 Gaussian 09:  EM64L-G09RevE.01 30-Nov-2015

 ------------------------------
 #p b3lyp/6-311++G(3df,2p) freq
 ------------------------------

 ---------
 b3lyp opt
 ---------
 Symbolic Z-matrix:
 Charge =  2 Multiplicity = 1

                         Standard orientation:
 ---------------------------------------------------------------------
 Center     Atomic      Atomic             Coordinates (Angstroms)
 Number     Number       Type             X           Y           Z
 ---------------------------------------------------------------------
      1         16           0        0.000000    0.000000    0.000000
      2          1           0        0.801919    0.801919    0.801919
      3          1           0       -0.801919   -0.801919    0.801919
      4          1           0       -0.801919    0.801919   -0.801919
      5          1           0        0.801919   -0.801919   -0.801919
 ---------------------------------------------------------------------

 SCF Done:  E(RB3LYP) =  -399.664400955     A.U. after    7 cycles

 The electronic state is 1-A1.
 Alpha  occ. eigenvalues --  -89.56816  -8.65063  -6.61065  -6.61065  -6.61065
 Alpha  occ. eigenvalues --   -1.42579  -1.07664  -1.07664  -1.07664
 Alpha virt. eigenvalues --   -0.55729  -0.55729  -0.55729  -0.53223  -0.39411
 Alpha virt. eigenvalues --   -0.39411  -0.33308  -0.33308  -0.33308  -0.26982
 Alpha virt. eigenvalues --   -0.19261  -0.19261  -0.19261  -0.17119  -0.12600

 Mulliken charges:
               1
     1  S    0.538052
     2  H    0.365487
     3  H    0.365487
     4  H    0.365487
     5  H    0.365487
 Sum of Mulliken charges =   2.00000

 Dipole moment (field-independent basis, Debye):
    X=              0.0000    Y=             -0.0000    Z=             -0.0000  Tot=              0.0000
 Quadrupole moment (field-independent basis, Debye-Ang):
   XX=             -6.2108   YY=             -6.2108   ZZ=             -6.2108
   XY=             -0.0000   XZ=             -0.0000   YZ=             -0.0000

  Exact polarizability:  15.734  -0.000  15.734  -0.000   0.000  15.734
 Approx polarizability:  23.006   0.000  23.006  -0.000  -0.000  23.006

                      1                      2                      3
                     T2                     T2                     T2
 Frequencies --    956.0057               956.0057               956.0057
 Red. masses --      1.0785                 1.0785                 1.0785
 Frc consts  --      0.5808                 0.5808                 0.5808
 IR Inten    --     30.6139                30.6139                30.6139

                      4                      5                      6
                      E                      E                     T2
 Frequencies --   1164.6821              1164.6821              2350.3767
 Red. masses --      1.0078                 1.0078                 1.0530
 Frc consts  --      0.8055                 0.8055                 3.4272
 IR Inten    --      0.0000                 0.0000               559.2238

                      7                      8                      9
                     T2                     T2                     A1
 Frequencies --   2350.3767              2350.3767              2353.3492
 Red. masses --      1.0530                 1.0530                 1.0078
 Frc consts  --      3.4272                 3.4272                 3.2886
 IR Inten    --    559.2238               559.2238                 0.0000

 - Thermochemistry -
 -------------------
 Temperature   298.150 Kelvin.  Pressure   1.00000 Atm.
 Atom     1 has atomic number 16 and mass  31.97207

 Molecular mass:    36.00337 amu.
 Principal axes and moments of inertia in atomic units:
                           1         2         3
     Eigenvalues --    18.51543  18.51543  18.51543
           X           -0.01672  -0.21485   0.97650
           Y           -0.23544   0.95003   0.20499
           Z            0.97175   0.22648   0.06647
 This molecule is a spherical top.
 Rotational symmetry number 12.
 Rotational temperatures (Kelvin)      4.67793     4.67793     4.67793
 Rotational constants (GHZ):          97.47227    97.47227    97.47227
 Zero-point vibrational energy      87338.5 (Joules/Mol)
                                   20.87441 (Kcal/Mol)
 Vibrational temperatures:   1375.48  1375.48  1375.48  1675.72  1675.72
          (Kelvin)           3381.66  3381.66  3381.66  3385.94

 Zero-point correction=                           0.033265 (Hartree/Particle)
 Thermal correction to Energy=                    0.036268
 Thermal correction to Enthalpy=                  0.037212
 Thermal correction to Gibbs Free Energy=         0.014088
 Sum of electronic and zero-point Energies=           -399.631135
 Sum of electronic and thermal Energies=              -399.628133
 Sum of electronic and thermal Enthalpies=            -399.627189
 Sum of electronic and thermal Free Energies=         -399.650313

                     E (Thermal)             CV                S
                      KCal/Mol        Cal/Mol-Kelvin    Cal/Mol-Kelvin
 Total                   22.759              7.716             48.669
 Electronic               0.000              0.000              0.000
 Translational            0.889              2.981             36.673
 Rotational               0.889              2.981             11.565
 Vibrational             20.981              1.754              0.432

 Optimization completed.
    -- Stationary point found.
 Normal termination of Gaussian 09 at Wed Aug  3 22:56:12 2016.
