 Gaussian 09, Revision E.01,
 Gaussian 09:  EM64L-G09RevE.01 30-Nov-2015

 ------------------------------
 #p b3lyp/6-311++G(3df,2p) freq
 ------------------------------

 ---------
 b3lyp opt
 ---------
 Symbolic Z-matrix:
 Charge =  0 Multiplicity = 1

                         Standard orientation:
 ---------------------------------------------------------------------
 Center     Atomic      Atomic             Coordinates (Angstroms)
 Number     Number       Type             X           Y           Z
 ---------------------------------------------------------------------
      1         16           0        0.000000    0.000000    0.059837
      2          1           0        0.000000    1.365666   -0.239348
      3          1           0       -0.000000   -1.365666   -0.239348
      4          1           0       -1.365666    0.000000   -0.239348
      5          1           0        1.365666   -0.000000   -0.239348
 ---------------------------------------------------------------------

 SCF Done:  E(RB3LYP) =  -400.501178865     A.U. after    9 cycles

 The electronic state is 1-A1.
 Alpha  occ. eigenvalues --  -88.91351  -7.98772  -5.94950  -5.94950  -5.94678
 Alpha  occ. eigenvalues --   -0.78796  -0.48731  -0.48731  -0.31031  -0.23883
 Alpha virt. eigenvalues --   -0.05668   0.01784   0.01784   0.04607   0.05215
 Alpha virt. eigenvalues --    0.07155   0.09263   0.09263   0.09553   0.13068
 Alpha virt. eigenvalues --    0.13068   0.15243   0.26693   0.26693   0.28320

 Mulliken charges:
               1
     1  S   -0.178236
     2  H    0.044559
     3  H    0.044559
     4  H    0.044559
     5  H    0.044559
 Sum of Mulliken charges =  -0.00000

 Dipole moment (field-independent basis, Debye):
    X=             -0.0000    Y=              0.0000    Z=             -0.3856  Tot=              0.3856
 Quadrupole moment (field-independent basis, Debye-Ang):
   XX=            -16.0458   YY=            -16.0458   ZZ=            -17.6087
   XY=             -0.0000   XZ=             -0.0000   YZ=             -0.0000

  Exact polarizability:  34.481   0.000  34.481  -0.000  -0.000  23.460
 Approx polarizability:  49.049   0.000  49.049   0.000  -0.000  32.726

                      1                      2                      3
                     A1                     B2                      E
 Frequencies --    679.7017               734.1880              1505.3452
 Red. masses --      1.1275                 1.0078                 1.0665
 Frc consts  --      0.3069                 0.3201                 1.4240
 IR Inten    --      2.6710                 0.0000               114.2466

                      4                      5                      6
                      E                     B1                     B2
 Frequencies --   1505.3452              1785.3388              2038.5908
 Red. masses --      1.0665                 1.0078                 1.0078
 Frc consts  --      1.4240                 1.8927                 2.4677
 IR Inten    --    114.2466                 0.0000                 0.0000

                      7                      8                      9
                      E                      E                     A1
 Frequencies --   2126.5106              2126.5106              2318.3837
 Red. masses --      1.0552                 1.0552                 1.0101
 Frc consts  --      2.8113                 2.8113                 3.1989
 IR Inten    --    359.3241               359.3241                 2.7341

 - Thermochemistry -
 -------------------
 Temperature   298.150 Kelvin.  Pressure   1.00000 Atm.
 Atom     1 has atomic number 16 and mass  31.97207

 Molecular mass:    36.00337 amu.
 Principal axes and moments of inertia in atomic units:
                           1         2         3
     Eigenvalues --    14.56894  14.56894  26.84922
           X            0.04945   0.99878  -0.00000
           Y            0.99878  -0.04945   0.00000
           Z            0.00000   0.00000   1.00000
 This molecule is an oblate symmetric top.
 Rotational symmetry number  4.
 Rotational temperatures (Kelvin)      5.94510     5.94510     3.22593
 Rotational constants (GHZ):         123.87598   123.87598    67.21763
 Zero-point vibrational energy      88642.8 (Joules/Mol)
                                   21.18613 (Kcal/Mol)
 Vibrational temperatures:    977.94  1056.33  2165.85  2165.85  2568.70
          (Kelvin)           2933.07  3059.57  3059.57  3335.63

 Zero-point correction=                           0.033762 (Hartree/Particle)
 Thermal correction to Energy=                    0.036828
 Thermal correction to Enthalpy=                  0.037772
 Thermal correction to Gibbs Free Energy=         0.013568
 Sum of electronic and zero-point Energies=           -400.467417
 Sum of electronic and thermal Energies=              -400.464351
 Sum of electronic and thermal Enthalpies=            -400.463407
 Sum of electronic and thermal Free Energies=         -400.487611

                     E (Thermal)             CV                S
                      KCal/Mol        Cal/Mol-Kelvin    Cal/Mol-Kelvin
 Total                   23.110              7.798             50.942
 Electronic               0.000              0.000              0.000
 Translational            0.889              2.981             36.673
 Rotational               0.889              2.981             13.641
 Vibrational             21.332              1.836              0.629

 Optimization completed.
    -- Stationary point found.
 Normal termination of Gaussian 09 at Wed Aug  3 22:56:12 2016.
