 Gaussian 09, Revision E.01,
 Gaussian 09:  EM64L-G09RevE.01 30-Nov-2015

 ------------------------------
 #p b3lyp/6-311++G(3df,2p) freq
 ------------------------------

 ---------
 b3lyp opt
 ---------
 Symbolic Z-matrix:
 Charge =  2 Multiplicity = 1

                         Standard orientation:
 ---------------------------------------------------------------------
 Center     Atomic      Atomic             Coordinates (Angstroms)
 Number     Number       Type             X           Y           Z
 ---------------------------------------------------------------------
      1         16           0        0.000000    1.108174    0.000000
      2         16           0       -0.000000   -1.108174    0.000000
      3          1           0       -0.933410   -1.209377    1.001224
      4          1           0        0.933410    1.209377   -1.001224
      5          1           0       -0.933410   -1.209377   -1.001224
      6          1           0        0.933410    1.209377    1.001224
 ---------------------------------------------------------------------

 SCF Done:  E(RB3LYP) =  -797.998258859     A.U. after    9 cycles

 The electronic state is 1-AG.
 Alpha  occ. eigenvalues --  -89.44221 -89.44221  -8.52249  -8.52249  -6.48583
 Alpha  occ. eigenvalues --   -6.48574  -6.48206  -6.48206  -6.47849  -6.47848
 Alpha  occ. eigenvalues --   -1.33893  -1.23799  -0.97929  -0.93369  -0.93205
 Alpha  occ. eigenvalues --   -0.90751  -0.82801
 Alpha virt. eigenvalues --   -0.59002  -0.47279  -0.47024  -0.45567  -0.40647
 Alpha virt. eigenvalues --   -0.32957  -0.31904  -0.31500  -0.28770  -0.28531
 Alpha virt. eigenvalues --   -0.26953  -0.24383  -0.24244  -0.23211  -0.21027

 Mulliken charges:
               1
     1  S    0.423524
     2  S    0.423524
     3  H    0.288238
     4  H    0.288238
     5  H    0.288238
     6  H    0.288238
 Sum of Mulliken charges =   2.00000

 Dipole moment (field-independent basis, Debye):
    X=              0.0000    Y=             -0.0000    Z=             -0.0000  Tot=              0.0000
 Quadrupole moment (field-independent basis, Debye-Ang):
   XX=            -18.4064   YY=             -6.0966   ZZ=            -16.2737
   XY=              6.1747   XZ=              0.0000   YZ=              0.0000

  Exact polarizability:  28.361   4.254  45.927  -0.000   0.000  29.771
 Approx polarizability:  46.053   5.037  82.618   0.000  -0.000  50.722

                      1                      2                      3
                     AU                     AG                     AU
 Frequencies --    111.3076               404.1933               719.8873
 Red. masses --      1.0345                14.7160                 1.0080
 Frc consts  --      0.0076                 1.4165                 0.3078
 IR Inten    --     63.5794                 0.0000                10.2493

                      4                      5                      6
                     BU                     AG                     BG
 Frequencies --    734.7193               926.0938               949.8771
 Red. masses --      1.0688                 1.1099                 1.0577
 Frc consts  --      0.3399                 0.5609                 0.5623
 IR Inten    --     51.5001                 0.0000                 0.0000

                      7                      8                      9
                     BU                     AG                     BU
 Frequencies --   1142.9983              1162.3763              2475.4914
 Red. masses --      1.0403                 1.0294                 1.0354
 Frc consts  --      0.8008                 0.8195                 3.7382
 IR Inten    --     17.6805                 0.0000               369.8243

                     10                     11                     12
                     BG                     AU                     AG
 Frequencies --   2484.3148              2485.6329              2492.6385
 Red. masses --      1.0435                 1.0407                 1.0365
 Frc consts  --      3.7945                 3.7882                 3.7942
 IR Inten    --      0.0000               324.4578                 0.0000

 - Thermochemistry -
 -------------------
 Temperature   298.150 Kelvin.  Pressure   1.00000 Atm.
 Atom     1 has atomic number 16 and mass  31.97207

 Molecular mass:    67.97544 amu.
 Principal axes and moments of inertia in atomic units:
                           1         2         3
     Eigenvalues --    26.06275 314.02189 316.82171
           X            0.05598   0.00000   0.99843
           Y            0.99843   0.00000  -0.05598
           Z            0.00000   1.00000   0.00000
 This molecule is an asymmetric top.
 Rotational symmetry number  2.
 Rotational temperatures (Kelvin)      3.32328     0.27582     0.27338
 Rotational constants (GHZ):          69.24600     5.74718     5.69639
 Zero-point vibrational energy      96236.8 (Joules/Mol)
                                   23.00114 (Kcal/Mol)
 Warning -- explicit consideration of   2 degrees of freedom as
           vibrations may cause significant error
 Vibrational temperatures:    160.15   581.54  1035.76  1057.10  1332.44
          (Kelvin)           1366.66  1644.52  1672.40  3561.68  3574.37
                             3576.27  3586.35

 Zero-point correction=                           0.036655 (Hartree/Particle)
 Thermal correction to Energy=                    0.040844
 Thermal correction to Enthalpy=                  0.041789
 Thermal correction to Gibbs Free Energy=         0.011023
 Sum of electronic and zero-point Energies=           -797.961604
 Sum of electronic and thermal Energies=              -797.957414
 Sum of electronic and thermal Enthalpies=            -797.956470
 Sum of electronic and thermal Free Energies=         -797.987236

                     E (Thermal)             CV                S
                      KCal/Mol        Cal/Mol-Kelvin    Cal/Mol-Kelvin
 Total                   25.630             12.303             64.752
 Electronic               0.000              0.000              0.000
 Translational            0.889              2.981             38.567
 Rotational               0.889              2.981             21.099
 Vibrational             23.853              6.341              5.086
 Vibration     1          0.607              1.940              3.246
 Vibration     2          0.769              1.461              0.947

 Optimization completed.
    -- Stationary point found.
 Normal termination of Gaussian 09 at Wed Aug  3 22:56:37 2016.
