 Gaussian 09, Revision E.01,
 Gaussian 09:  EM64L-G09RevE.01 30-Nov-2015

 ------------------------------
 #p b3lyp/6-311++G(3df,2p) freq
 ------------------------------

 ---------
 b3lyp opt
 ---------
 Symbolic Z-matrix:
 Charge =  1 Multiplicity = 3

                         Standard orientation:
 ---------------------------------------------------------------------
 Center     Atomic      Atomic             Coordinates (Angstroms)
 Number     Number       Type             X           Y           Z
 ---------------------------------------------------------------------
      1         16           0       -1.078741   -0.161249   -0.000626
      2          6           0        1.831736   -0.114435   -0.000279
      3          6           0        0.508400    0.491074    0.001298
      4          1           0       -1.679134    0.556934   -0.989560
      5          1           0        2.582943    0.679590    0.000600
      6          1           0        1.997012   -0.733614    0.889803
      7          1           0        1.996157   -0.730850   -0.892425
      8          1           0       -1.677938    0.548094    0.995495
 ---------------------------------------------------------------------

 SCF Done:  E(UB3LYP) =  -477.039970739     A.U. after   13 cycles

 The electronic state is 3-A.
 Alpha  occ. eigenvalues --  -89.18536 -10.47114 -10.38014  -8.26740  -6.22869
 Alpha  occ. eigenvalues --   -6.22826  -6.22476  -1.09986  -0.97107  -0.81906
 Alpha  occ. eigenvalues --   -0.73684  -0.68275  -0.64579  -0.63372  -0.61109
 Alpha  occ. eigenvalues --   -0.47652  -0.46089
 Alpha virt. eigenvalues --   -0.23240  -0.23026  -0.20894  -0.13024  -0.11788
 Alpha virt. eigenvalues --   -0.11316  -0.10384  -0.08695  -0.08282  -0.07367
 Alpha virt. eigenvalues --   -0.06432  -0.05032  -0.04900  -0.03600  -0.02773

  Beta  occ. eigenvalues --  -89.18506 -10.44410 -10.38001  -8.26695  -6.22834
  Beta  occ. eigenvalues --   -6.22793  -6.22350  -1.07992  -0.95185  -0.78378
  Beta  occ. eigenvalues --   -0.72213  -0.65359  -0.62404  -0.61209  -0.60092
  Beta virt. eigenvalues --   -0.32003  -0.31733  -0.22151  -0.21099  -0.19353
  Beta virt. eigenvalues --   -0.12816  -0.11666  -0.11018  -0.10118  -0.07994
  Beta virt. eigenvalues --   -0.07938  -0.06755  -0.06033  -0.04433  -0.04174

 Mulliken charges and spin densities:
               1          2
     1  S    0.192285   0.110369
     2  C   -0.175431  -0.093970
     3  C   -0.085463   1.705491
     4  H    0.233314   0.059800
     5  H    0.199840   0.027336
     6  H    0.201129   0.065509
     7  H    0.201115   0.065480
     8  H    0.233213   0.059985
 Sum of Mulliken charges =   1.00000   2.00000

 Dipole moment (field-independent basis, Debye):
    X=             -1.7964    Y=              0.3878    Z=              0.0031  Tot=              1.8378
 Quadrupole moment (field-independent basis, Debye-Ang):
   XX=             -9.7264   YY=            -23.7645   ZZ=            -21.2657
   XY=             -2.1220   XZ=             -0.0085   YZ=             -0.0107

  Exact polarizability:  59.287  -1.113  33.324  -0.007  -0.003  33.681
 Approx polarizability:  79.777   0.472  50.661  -0.005  -0.008  51.672

                      1                      2                      3
                      A                      A                      A
 Frequencies --     38.1511               143.3269               280.7102
 Red. masses --      1.0628                 1.6181                 3.2096
 Frc consts  --      0.0009                 0.0196                 0.1490
 IR Inten    --      4.8211                20.4436                 6.3641

                      4                      5                      6
                      A                      A                      A
 Frequencies --    618.1783               836.5296               848.1209
 Red. masses --      7.0984                 1.1595                 1.0676
 Frc consts  --      1.5982                 0.4781                 0.4525
 IR Inten    --      3.3478                 7.1485                 3.3486

                      7                      8                      9
                      A                      A                      A
 Frequencies --    973.0353               983.6017              1176.4803
 Red. masses --      1.3108                 1.4380                 1.2991
 Frc consts  --      0.7312                 0.8197                 1.0594
 IR Inten    --      3.8794                 6.4581                 3.1964

                     10                     11                     12
                      A                      A                      A
 Frequencies --   1224.2806              1378.9723              1413.4377
 Red. masses --      2.7044                 1.1739                 1.0403
 Frc consts  --      2.3883                 1.3152                 1.2245
 IR Inten    --     17.2781                13.8821                14.0256

                     13                     14                     15
                      A                      A                      A
 Frequencies --   1420.4416              2512.8964              2519.4211
 Red. masses --      1.0416                 1.0425                 1.0343
 Frc consts  --      1.2382                 3.8787                 3.8680
 IR Inten    --     19.5113                37.9686                27.1714

                     16                     17                     18
                      A                      A                      A
 Frequencies --   2971.2998              3027.5997              3068.5208
 Red. masses --      1.0353                 1.0995                 1.0941
 Frc consts  --      5.3851                 5.9379                 6.0697
 IR Inten    --     20.8939                 3.7777                10.4899

 - Thermochemistry -
 -------------------
 Temperature   298.150 Kelvin.  Pressure   1.00000 Atm.
 Atom     1 has atomic number 16 and mass  31.97207

 Molecular mass:    61.01120 amu.
 Principal axes and moments of inertia in atomic units:
                           1         2         3
     Eigenvalues --    34.05021 373.26085 381.69741
           X            0.99951  -0.03137  -0.00005
           Y            0.03137   0.99951  -0.00221
           Z            0.00012   0.00220   1.00000
 This molecule is an asymmetric top.
 Rotational symmetry number  1.
 Rotational temperatures (Kelvin)      2.54371     0.23205     0.22692
 Rotational constants (GHZ):          53.00235     4.83507     4.72820
 Zero-point vibrational energy     152135.1 (Joules/Mol)
                                   36.36116 (Kcal/Mol)
 Warning -- explicit consideration of   4 degrees of freedom as
           vibrations may cause significant error
 Vibrational temperatures:     54.89   206.22   403.88   889.42  1203.58
          (Kelvin)           1220.26  1399.98  1415.18  1692.69  1761.46
                             1984.03  2033.62  2043.70  3615.49  3624.88
                             4275.03  4356.04  4414.91

 Zero-point correction=                           0.057945 (Hartree/Particle)
 Thermal correction to Energy=                    0.063158
 Thermal correction to Enthalpy=                  0.064102
 Thermal correction to Gibbs Free Energy=         0.028809
 Sum of electronic and zero-point Energies=           -476.982026
 Sum of electronic and thermal Energies=              -476.976813
 Sum of electronic and thermal Enthalpies=            -476.975869
 Sum of electronic and thermal Free Energies=         -477.011162

                     E (Thermal)             CV                S
                      KCal/Mol        Cal/Mol-Kelvin    Cal/Mol-Kelvin
 Total                   39.632             15.254             74.280
 Electronic               0.000              0.000              2.183
 Translational            0.889              2.981             38.245
 Rotational               0.889              2.981             23.099
 Vibrational             37.855              9.292             10.752
 Vibration     1          0.594              1.982              5.353
 Vibration     2          0.616              1.910              2.759
 Vibration     3          0.680              1.709              1.529
 Vibration     4          0.978              0.993              0.419

 Normal termination of Gaussian 09 at Wed Aug  3 20:41:50 2016.
