 Gaussian 09, Revision E.01,
 Gaussian 09:  EM64L-G09RevE.01 30-Nov-2015

 ------------------------------
 #p b3lyp/6-311++G(3df,2p) freq
 ------------------------------

 ---------
 b3lyp opt
 ---------
 Symbolic Z-matrix:
 Charge =  1 Multiplicity = 1

                         Standard orientation:
 ---------------------------------------------------------------------
 Center     Atomic      Atomic             Coordinates (Angstroms)
 Number     Number       Type             X           Y           Z
 ---------------------------------------------------------------------
      1         16           0       -0.526958   -0.716602    0.000097
      2         16           0        1.282292    0.325696   -0.000171
      3          6           0       -1.691086    0.686780   -0.000042
      4          1           0       -2.657372    0.177946   -0.001245
      5          1           0        1.960455   -0.303551   -0.990107
      6          1           0        1.960049   -0.300591    0.991994
      7          1           0       -1.601789    1.279471    0.904534
      8          1           0       -1.600181    1.280541   -0.903752
 ---------------------------------------------------------------------

 SCF Done:  E(RB3LYP) =  -837.278248389     A.U. after   11 cycles

 The electronic state is 1-A.
 Alpha  occ. eigenvalues --  -89.17500 -89.09764 -10.38982  -8.25752  -8.18048
 Alpha  occ. eigenvalues --   -6.21866  -6.21849  -6.21431  -6.14652  -6.13967
 Alpha  occ. eigenvalues --   -6.13360  -1.07611  -0.96935  -0.83945  -0.72138
 Alpha  occ. eigenvalues --   -0.68397  -0.62639  -0.62447  -0.59848  -0.54175
 Alpha  occ. eigenvalues --   -0.46924
 Alpha virt. eigenvalues --   -0.27944  -0.23522  -0.21605  -0.18356  -0.13023
 Alpha virt. eigenvalues --   -0.11904  -0.11539  -0.10522  -0.08987  -0.07982
 Alpha virt. eigenvalues --   -0.07866  -0.07043  -0.05664  -0.05397  -0.05129

 Mulliken charges:
               1
     1  S    0.093234
     2  S    0.250135
     3  C   -0.377624
     4  H    0.197402
     5  H    0.216621
     6  H    0.216533
     7  H    0.201828
     8  H    0.201872
 Sum of Mulliken charges =   1.00000

 Dipole moment (field-independent basis, Debye):
    X=              2.3079    Y=              0.6575    Z=              0.0013  Tot=              2.3997
 Quadrupole moment (field-independent basis, Debye-Ang):
   XX=            -14.0622   YY=            -29.7396   ZZ=            -29.1556
   XY=             -1.9605   XZ=              0.0033   YZ=              0.0039

  Exact polarizability:  67.432  -0.221  44.512   0.004   0.002  39.830
 Approx polarizability: 107.297   6.317  73.900   0.008   0.007  64.112

                      1                      2                      3
                      A                      A                      A
 Frequencies --    103.9745               166.4773               227.3534
 Red. masses --      1.0801                 1.0728                 3.7372
 Frc consts  --      0.0069                 0.0175                 0.1138
 IR Inten    --     17.5480                 6.8167                 1.7677

                      4                      5                      6
                      A                      A                      A
 Frequencies --    449.7108               648.9487               780.7344
 Red. masses --     19.3337                 5.4584                 1.1065
 Frc consts  --      2.3037                 1.3544                 0.3974
 IR Inten    --      2.1173                 3.2158                 3.0600

                      7                      8                      9
                      A                      A                      A
 Frequencies --    795.0014               986.9364               987.1170
 Red. masses --      1.0477                 1.1747                 1.2860
 Frc consts  --      0.3902                 0.6741                 0.7383
 IR Inten    --      0.5930                 2.2883                 6.5039

                     10                     11                     12
                      A                      A                      A
 Frequencies --   1216.0372              1363.1194              1450.7209
 Red. masses --      1.0356                 1.1301                 1.0485
 Frc consts  --      0.9023                 1.2372                 1.3001
 IR Inten    --      6.9790                 0.9699                13.7748

                     13                     14                     15
                      A                      A                      A
 Frequencies --   1468.5787              2585.2966              2588.3811
 Red. masses --      1.0547                 1.0346                 1.0420
 Frc consts  --      1.3402                 4.0744                 4.1133
 IR Inten    --     20.0227                43.1265                47.3087

                     16                     17                     18
                      A                      A                      A
 Frequencies --   3044.2690              3130.9367              3176.6110
 Red. masses --      1.0332                 1.0974                 1.1117
 Frc consts  --      5.6416                 6.3384                 6.6093
 IR Inten    --      9.4977                 9.5940                 1.3298

 - Thermochemistry -
 -------------------
 Temperature   298.150 Kelvin.  Pressure   1.00000 Atm.
 Atom     1 has atomic number 16 and mass  31.97207

 Molecular mass:    80.98327 amu.
 Principal axes and moments of inertia in atomic units:
                           1         2         3
     Eigenvalues --   114.92831 427.65367 516.67404
           X            0.99784  -0.06566   0.00003
           Y            0.06566   0.99784   0.00008
           Z           -0.00004  -0.00008   1.00000
 This molecule is an asymmetric top.
 Rotational symmetry number  1.
 Rotational temperatures (Kelvin)      0.75363     0.20253     0.16764
 Rotational constants (GHZ):          15.70319     4.22010     3.49300
 Zero-point vibrational energy     150551.3 (Joules/Mol)
                                   35.98261 (Kcal/Mol)
 Warning -- explicit consideration of   4 degrees of freedom as
           vibrations may cause significant error
 Vibrational temperatures:    149.60   239.52   327.11   647.03   933.69
          (Kelvin)           1123.30  1143.83  1419.98  1420.24  1749.60
                             1961.22  2087.26  2112.95  3719.66  3724.10
                             4380.02  4504.71  4570.43

 Zero-point correction=                           0.057342 (Hartree/Particle)
 Thermal correction to Energy=                    0.062712
 Thermal correction to Enthalpy=                  0.063657
 Thermal correction to Gibbs Free Energy=         0.028746
 Sum of electronic and zero-point Energies=           -837.220906
 Sum of electronic and thermal Energies=              -837.215536
 Sum of electronic and thermal Enthalpies=            -837.214592
 Sum of electronic and thermal Free Energies=         -837.249502

                     E (Thermal)             CV                S
                      KCal/Mol        Cal/Mol-Kelvin    Cal/Mol-Kelvin
 Total                   39.353             16.497             73.476
 Electronic               0.000              0.000              0.000
 Translational            0.889              2.981             39.089
 Rotational               0.889              2.981             24.744
 Vibrational             37.575             10.536              9.642
 Vibration     1          0.605              1.946              3.378
 Vibration     2          0.624              1.884              2.475
 Vibration     3          0.651              1.799              1.900
 Vibration     4          0.809              1.362              0.797

 Normal termination of Gaussian 09 at Wed Aug  3 20:40:52 2016.
