 Gaussian 09, Revision E.01,
 Gaussian 09:  EM64L-G09RevE.01 30-Nov-2015

 ------------------------------
 #p b3lyp/6-311++G(3df,2p) freq
 ------------------------------

 ---------
 b3lyp opt
 ---------
 Symbolic Z-matrix:
 Charge =  1 Multiplicity = 1

                         Standard orientation:
 ---------------------------------------------------------------------
 Center     Atomic      Atomic             Coordinates (Angstroms)
 Number     Number       Type             X           Y           Z
 ---------------------------------------------------------------------
      1         16           0        0.063196   -0.628111   -0.000000
      2          6           0        0.063196    1.200881    0.000000
      3          1           0        0.609788    1.498486    0.891642
      4          1           0       -0.828808   -0.866902   -0.987617
      5          1           0        0.609788    1.498486   -0.891642
      6          1           0       -0.828808   -0.866902    0.987617
      7          1           0       -0.952266    1.581317    0.000000
 ---------------------------------------------------------------------

 SCF Done:  E(RB3LYP) =  -439.057987792     A.U. after   10 cycles

 The electronic state is 1-A'.
 Alpha  occ. eigenvalues --  -89.17767 -10.43572  -8.26159  -6.22295  -6.22256
 Alpha  occ. eigenvalues --   -6.21786  -1.08294  -0.91884  -0.73988  -0.70192
 Alpha  occ. eigenvalues --   -0.65300  -0.64211  -0.59086
 Alpha virt. eigenvalues --   -0.24322  -0.24035  -0.21111  -0.13717  -0.13038
 Alpha virt. eigenvalues --   -0.12865  -0.10180  -0.09718  -0.09100  -0.07687
 Alpha virt. eigenvalues --   -0.07451  -0.06345  -0.03467  -0.02265  -0.02097

 Mulliken charges:
               1
     1  S    0.236093
     2  C   -0.340831
     3  H    0.220776
     4  H    0.222643
     5  H    0.220776
     6  H    0.222643
     7  H    0.217900
 Sum of Mulliken charges =   1.00000

 Dipole moment (field-independent basis, Debye):
    X=             -1.2130    Y=             -0.0497    Z=              0.0000  Tot=              1.2140
 Quadrupole moment (field-independent basis, Debye-Ang):
   XX=            -16.8607   YY=            -13.0924   ZZ=            -15.4648
   XY=              2.0340   XZ=             -0.0000   YZ=             -0.0000

  Exact polarizability:  26.337   1.924  35.293  -0.000   0.000  27.307
 Approx polarizability:  39.636   3.028  49.797  -0.000  -0.000  42.483

                      1                      2                      3
                     A"                     A'                     A"
 Frequencies --    230.0366               630.5367               749.5970
 Red. masses --      1.0237                 6.2206                 1.0160
 Frc consts  --      0.0319                 1.4571                 0.3364
 IR Inten    --     12.1028                 3.8208                 0.0651

                      4                      5                      6
                     A'                     A'                     A"
 Frequencies --    776.7980              1058.4168              1109.7570
 Red. masses --      1.0718                 1.2379                 1.2257
 Frc consts  --      0.3811                 0.8170                 0.8894
 IR Inten    --      5.6189                 3.1584                 9.9507

                      7                      8                      9
                     A'                     A'                     A'
 Frequencies --   1204.0849              1372.1332              1461.0296
 Red. masses --      1.0362                 1.1286                 1.0467
 Frc consts  --      0.8851                 1.2520                 1.3165
 IR Inten    --      3.9761                 1.0365                15.0803

                     10                     11                     12
                     A"                     A'                     A"
 Frequencies --   1462.2789              2619.9631              2628.5685
 Red. masses --      1.0429                 1.0352                 1.0416
 Frc consts  --      1.3139                 4.1866                 4.2402
 IR Inten    --     13.2264                38.4384                44.6668

                     13                     14                     15
                     A'                     A"                     A'
 Frequencies --   3064.2163              3161.5071              3187.5543
 Red. masses --      1.0270                 1.1081                 1.1112
 Frc consts  --      5.6814                 6.5253                 6.6520
 IR Inten    --      9.7790                12.8387                10.8637

 - Thermochemistry -
 -------------------
 Temperature   298.150 Kelvin.  Pressure   1.00000 Atm.
 Atom     1 has atomic number 16 and mass  31.97207

 Molecular mass:    49.01120 amu.
 Principal axes and moments of inertia in atomic units:
                           1         2         3
     Eigenvalues --    23.89079 148.21516 149.81128
           X            0.04238   0.00000   0.99910
           Y            0.99910   0.00000  -0.04238
           Z            0.00000   1.00000   0.00000
 This molecule is an asymmetric top.
 Rotational symmetry number  1.
 Rotational temperatures (Kelvin)      3.62541     0.58438     0.57815
 Rotational constants (GHZ):          75.54129    12.17650    12.04676
 Zero-point vibrational energy     147837.4 (Joules/Mol)
                                   35.33398 (Kcal/Mol)
 Warning -- explicit consideration of   1 degrees of freedom as
           vibrations may cause significant error
 Vibrational temperatures:    330.97   907.20  1078.50  1117.64  1522.82
          (Kelvin)           1596.69  1732.41  1974.19  2102.09  2103.89
                             3769.54  3781.92  4408.72  4548.70  4586.17

 Zero-point correction=                           0.056308 (Hartree/Particle)
 Thermal correction to Energy=                    0.060069
 Thermal correction to Enthalpy=                  0.061013
 Thermal correction to Gibbs Free Energy=         0.031806
 Sum of electronic and zero-point Energies=           -439.001680
 Sum of electronic and thermal Energies=              -438.997918
 Sum of electronic and thermal Enthalpies=            -438.996974
 Sum of electronic and thermal Free Energies=         -439.026182

                     E (Thermal)             CV                S
                      KCal/Mol        Cal/Mol-Kelvin    Cal/Mol-Kelvin
 Total                   37.694             11.233             61.473
 Electronic               0.000              0.000              0.000
 Translational            0.889              2.981             37.592
 Rotational               0.889              2.981             20.900
 Vibrational             35.917              5.271              2.981
 Vibration     1          0.652              1.795              1.879

 Optimization completed.
    -- Stationary point found.
 Normal termination of Gaussian 09 at Wed Aug  3 22:56:55 2016.
