 Gaussian 09, Revision E.01,
 Gaussian 09:  EM64L-G09RevE.01 30-Nov-2015

 ------------------------------
 #p b3lyp/6-311++G(3df,2p) freq
 ------------------------------

 ---------
 b3lyp opt
 ---------
 Symbolic Z-matrix:
 Charge =  1 Multiplicity = 1

                         Standard orientation:
 ---------------------------------------------------------------------
 Center     Atomic      Atomic             Coordinates (Angstroms)
 Number     Number       Type             X           Y           Z
 ---------------------------------------------------------------------
      1         16           0       -0.459638   -0.641166   -0.074266
      2         16           0        1.384266    0.300444    0.077470
      3          6           0       -1.704474    0.682084   -0.019721
      4          1           0       -1.656100    1.185627   -0.981707
      5          1           0        1.834314   -0.285894   -1.049636
      6          1           0       -0.577670   -1.086235    1.196562
      7          1           0       -2.665288    0.181809    0.101400
      8          1           0       -1.502464    1.363754    0.800442
 ---------------------------------------------------------------------

 SCF Done:  E(RB3LYP) =  -837.289468277     A.U. after   11 cycles

 The electronic state is 1-A.
 Alpha  occ. eigenvalues --  -89.17152 -89.09875 -10.41782  -8.25239  -8.18313
 Alpha  occ. eigenvalues --   -6.21435  -6.21326  -6.20882  -6.14817  -6.14271
 Alpha  occ. eigenvalues --   -6.13661  -1.08503  -0.95738  -0.87669  -0.70719
 Alpha  occ. eigenvalues --   -0.68316  -0.64185  -0.62647  -0.62024  -0.54522
 Alpha  occ. eigenvalues --   -0.48838
 Alpha virt. eigenvalues --   -0.27576  -0.22783  -0.20142  -0.18895  -0.13532
 Alpha virt. eigenvalues --   -0.12159  -0.11513  -0.10105  -0.09055  -0.08241
 Alpha virt. eigenvalues --   -0.07630  -0.06727  -0.06454  -0.05918  -0.05278

 Mulliken charges:
               1
     1  S    0.348913
     2  S    0.003855
     3  C   -0.360625
     4  H    0.202463
     5  H    0.198711
     6  H    0.185855
     7  H    0.207401
     8  H    0.213428
 Sum of Mulliken charges =   1.00000

 Dipole moment (field-independent basis, Debye):
    X=             -1.7716    Y=             -0.3940    Z=              0.1506  Tot=              1.8211
 Quadrupole moment (field-independent basis, Debye-Ang):
   XX=            -18.8774   YY=            -28.5998   ZZ=            -27.9304
   XY=             -0.7842   XZ=             -2.6241   YZ=             -0.7375

  Exact polarizability:  65.340   0.626  44.498  -1.271  -1.099  40.223
 Approx polarizability: 102.991   7.426  72.404  -2.031  -0.759  66.542

                      1                      2                      3
                      A                      A                      A
 Frequencies --    178.4158               192.6852               250.8617
 Red. masses --      1.6130                 1.1215                 1.6071
 Frc consts  --      0.0303                 0.0245                 0.0596
 IR Inten    --     11.2631                 1.6981                 6.2238

                      4                      5                      6
                      A                      A                      A
 Frequencies --    480.2617               650.7732               732.2495
 Red. masses --     15.5905                 5.7451                 1.0794
 Frc consts  --      2.1187                 1.4335                 0.3410
 IR Inten    --      3.1643                 2.1227                 5.2660

                      7                      8                      9
                      A                      A                      A
 Frequencies --    854.6704               954.4007              1010.8688
 Red. masses --      1.0603                 1.1186                 1.2100
 Frc consts  --      0.4563                 0.6003                 0.7285
 IR Inten    --      1.5815                 2.2736                 7.3896

                     10                     11                     12
                      A                      A                      A
 Frequencies --   1108.0449              1364.2996              1449.3372
 Red. masses --      1.1891                 1.1375                 1.0457
 Frc consts  --      0.8602                 1.2474                 1.2942
 IR Inten    --     15.0518                 0.9028                17.6720

                     13                     14                     15
                      A                      A                      A
 Frequencies --   1459.0566              2611.9779              2655.4289
 Red. masses --      1.0477                 1.0394                 1.0392
 Frc consts  --      1.3141                 4.1778                 4.3174
 IR Inten    --     12.3054                29.1069                35.2916

                     16                     17                     18
                      A                      A                      A
 Frequencies --   3050.1507              3148.9768              3176.3772
 Red. masses --      1.0286                 1.1053                 1.1105
 Frc consts  --      5.6383                 6.4577                 6.6012
 IR Inten    --     12.3875                10.5990                 7.6196

 - Thermochemistry -
 -------------------
 Temperature   298.150 Kelvin.  Pressure   1.00000 Atm.
 Atom     1 has atomic number 16 and mass  31.97207

 Molecular mass:    80.98327 amu.
 Principal axes and moments of inertia in atomic units:
                           1         2         3
     Eigenvalues --   108.82796 440.24628 517.22387
           X            0.99862  -0.04873  -0.01970
           Y            0.04783   0.99789  -0.04391
           Z            0.02180   0.04291   0.99884
 This molecule is an asymmetric top.
 Rotational symmetry number  1.
 Rotational temperatures (Kelvin)      0.79588     0.19674     0.16746
 Rotational constants (GHZ):          16.58343     4.09939     3.48928
 Zero-point vibrational energy     151500.1 (Joules/Mol)
                                   36.20939 (Kcal/Mol)
 Warning -- explicit consideration of   4 degrees of freedom as
           vibrations may cause significant error
 Vibrational temperatures:    256.70   277.23   360.93   690.99   936.32
          (Kelvin)           1053.54  1229.68  1373.17  1454.41  1594.23
                             1962.92  2085.27  2099.25  3758.05  3820.57
                             4388.48  4530.67  4570.09

 Zero-point correction=                           0.057703 (Hartree/Particle)
 Thermal correction to Energy=                    0.062850
 Thermal correction to Enthalpy=                  0.063795
 Thermal correction to Gibbs Free Energy=         0.029628
 Sum of electronic and zero-point Energies=           -837.231765
 Sum of electronic and thermal Energies=              -837.226618
 Sum of electronic and thermal Enthalpies=            -837.225674
 Sum of electronic and thermal Free Energies=         -837.259840

                     E (Thermal)             CV                S
                      KCal/Mol        Cal/Mol-Kelvin    Cal/Mol-Kelvin
 Total                   39.439             16.362             71.909
 Electronic               0.000              0.000              0.000
 Translational            0.889              2.981             39.089
 Rotational               0.889              2.981             24.720
 Vibrational             37.662             10.400              8.100
 Vibration     1          0.629              1.869              2.345
 Vibration     2          0.635              1.850              2.202
 Vibration     3          0.663              1.761              1.725
 Vibration     4          0.837              1.294              0.709

 Normal termination of Gaussian 09 at Wed Aug  3 20:40:52 2016.
