 Gaussian 09, Revision E.01,
 Gaussian 09:  EM64L-G09RevE.01 30-Nov-2015

 ------------------------------
 #p b3lyp/6-311++G(3df,2p) freq
 ------------------------------

 ---------
 b3lyp opt
 ---------
 Symbolic Z-matrix:
 Charge =  2 Multiplicity = 1

                         Standard orientation:
 ---------------------------------------------------------------------
 Center     Atomic      Atomic             Coordinates (Angstroms)
 Number     Number       Type             X           Y           Z
 ---------------------------------------------------------------------
      1         16           0       -1.211737    0.058144   -0.000001
      2          6           0        1.671301    0.095015    0.000321
      3          6           0        0.302690   -0.526004   -0.000220
      4          1           0        2.323468   -0.231663    0.843747
      5          1           0        1.765874    1.169620   -0.510103
      6          1           0        2.326098   -0.236057   -0.839312
      7          1           0        1.764275    1.172485    0.504754
      8          1           0        0.340029   -1.618894   -0.000273
      9          1           0       -0.975892    1.400138    0.000593
 ---------------------------------------------------------------------

 SCF Done:  E(RB3LYP) =  -477.175504806     A.U. after   11 cycles

 The electronic state is 1-A.
 Alpha  occ. eigenvalues --  -89.36380 -10.72281 -10.71788  -8.44582  -6.40744
 Alpha  occ. eigenvalues --   -6.40561  -6.40298  -1.32779  -1.25846  -1.09837
 Alpha  occ. eigenvalues --   -0.98364  -0.95346  -0.94440  -0.87604  -0.80538
 Alpha  occ. eigenvalues --   -0.77842
 Alpha virt. eigenvalues --   -0.55025  -0.44494  -0.41740  -0.40226  -0.35420
 Alpha virt. eigenvalues --   -0.34437  -0.29548  -0.29077  -0.28312  -0.27819
 Alpha virt. eigenvalues --   -0.24435  -0.23885  -0.22895  -0.22745  -0.20732

 Mulliken charges:
               1
     1  S    0.383464
     2  C   -0.147912
     3  C    0.115008
     4  H    0.285797
     5  H    0.292214
     6  H    0.285709
     7  H    0.292011
     8  H    0.276600
     9  H    0.217109
 Sum of Mulliken charges =   2.00000

 Dipole moment (field-independent basis, Debye):
    X=              6.2717    Y=              2.4147    Z=             -0.0025  Tot=              6.7205
 Quadrupole moment (field-independent basis, Debye-Ang):
   XX=              4.3456   YY=            -12.8480   ZZ=            -20.6769
   XY=              1.9378   XZ=             -0.0075   YZ=             -0.0037

  Exact polarizability:  50.020  -3.562  35.445  -0.000   0.002  27.426
 Approx polarizability:  83.651 -12.593  58.911  -0.004   0.001  43.425

                      1                      2                      3
                      A                      A                      A
 Frequencies --    128.7618               351.2085               504.0235
 Red. masses --      1.1798                 2.2869                 1.2386
 Frc consts  --      0.0115                 0.1662                 0.1854
 IR Inten    --      0.5547                14.7750                25.8455

                      4                      5                      6
                      A                      A                      A
 Frequencies --    565.2418               649.5816               766.6310
 Red. masses --      1.1745                 1.3715                 3.3439
 Frc consts  --      0.2211                 0.3410                 1.1579
 IR Inten    --     94.5896               154.3544                11.7269

                      7                      8                      9
                      A                      A                      A
 Frequencies --    893.3658               920.8567              1019.1702
 Red. masses --      1.1652                 1.0444                 1.3494
 Frc consts  --      0.5479                 0.5218                 0.8258
 IR Inten    --     21.8369                 3.3429                15.9089

                     10                     11                     12
                      A                      A                      A
 Frequencies --   1096.0585              1157.2502              1262.4237
 Red. masses --      1.4053                 2.0669                 1.0249
 Frc consts  --      0.9947                 1.6309                 0.9624
 IR Inten    --     46.1849                14.6988                33.5532

                     13                     14                     15
                      A                      A                      A
 Frequencies --   1386.4933              1441.5734              1485.8097
 Red. masses --      1.2724                 1.6419                 1.0282
 Frc consts  --      1.4412                 2.0104                 1.3374
 IR Inten    --     14.3770                 9.7802                13.1718

                     16                     17                     18
                      A                      A                      A
 Frequencies --   2321.7636              2559.7887              2570.4887
 Red. masses --      1.0207                 1.0405                 1.0651
 Frc consts  --      3.2416                 4.0168                 4.1463
 IR Inten    --     63.7147                35.5337                99.7972

                     19                     20                     21
                      A                      A                      A
 Frequencies --   2887.1808              2901.2584              3090.4811
 Red. masses --      1.0989                 1.0758                 1.0894
 Frc consts  --      5.3970                 5.3354                 6.1304
 IR Inten    --    189.3515               193.7122                96.7890

 - Thermochemistry -
 -------------------
 Temperature   298.150 Kelvin.  Pressure   1.00000 Atm.
 Atom     1 has atomic number 16 and mass  31.97207

 Molecular mass:    62.01902 amu.
 Principal axes and moments of inertia in atomic units:
                           1         2         3
     Eigenvalues --    46.10682 360.26374 392.46876
           X            0.99989   0.01497  -0.00003
           Y           -0.01497   0.99989  -0.00010
           Z            0.00003   0.00010   1.00000
 This molecule is an asymmetric top.
 Rotational symmetry number  1.
 Rotational temperatures (Kelvin)      1.87855     0.24042     0.22069
 Rotational constants (GHZ):          39.14260     5.00950     4.59843
 Zero-point vibrational energy     179197.1 (Joules/Mol)
                                   42.82913 (Kcal/Mol)
 Warning -- explicit consideration of   4 degrees of freedom as
           vibrations may cause significant error
 Vibrational temperatures:    185.26   505.31   725.18   813.26   934.60
          (Kelvin)           1103.01  1285.35  1324.91  1466.36  1576.98
                             1665.02  1816.34  1994.85  2074.10  2137.75
                             3340.50  3682.96  3698.36  4154.00  4174.26
                             4446.51

 Zero-point correction=                           0.068253 (Hartree/Particle)
 Thermal correction to Energy=                    0.072968
 Thermal correction to Enthalpy=                  0.073912
 Thermal correction to Gibbs Free Energy=         0.041540
 Sum of electronic and zero-point Energies=           -477.107252
 Sum of electronic and thermal Energies=              -477.102537
 Sum of electronic and thermal Enthalpies=            -477.101593
 Sum of electronic and thermal Free Energies=         -477.133964

                     E (Thermal)             CV                S
                      KCal/Mol        Cal/Mol-Kelvin    Cal/Mol-Kelvin
 Total                   45.788             15.754             68.132
 Electronic               0.000              0.000              0.000
 Translational            0.889              2.981             38.294
 Rotational               0.889              2.981             23.393
 Vibrational             44.011              9.792              6.445
 Vibration     1          0.611              1.924              2.964
 Vibration     2          0.728              1.573              1.161
 Vibration     3          0.859              1.241              0.648
 Vibration     4          0.921              1.106              0.513

 Normal termination of Gaussian 09 at Wed Aug  3 20:46:31 2016.
