 Gaussian 09, Revision E.01,
 Gaussian 09:  EM64L-G09RevE.01 30-Nov-2015

 ------------------------------
 #p b3lyp/6-311++G(3df,2p) freq
 ------------------------------

 ---------
 b3lyp opt
 ---------
 Symbolic Z-matrix:
 Charge =  2 Multiplicity = 1

                         Standard orientation:
 ---------------------------------------------------------------------
 Center     Atomic      Atomic             Coordinates (Angstroms)
 Number     Number       Type             X           Y           Z
 ---------------------------------------------------------------------
      1         16           0       -1.075508   -0.195519   -0.053785
      2          6           0        0.636321    0.542284    0.026559
      3          6           0        1.751269   -0.346314    0.016337
      4          1           0        0.728098    1.379863    0.735975
      5          1           0        1.692794   -1.418903   -0.194203
      6          1           0        0.833101    1.063343   -0.959887
      7          1           0        2.750285    0.080209    0.160915
      8          1           0       -1.385428   -0.093840    1.269114
      9          1           0       -1.736269    0.941809   -0.408730
 ---------------------------------------------------------------------

 SCF Done:  E(RB3LYP) =  -477.206511043     A.U. after   10 cycles

 The electronic state is 1-A.
 Alpha  occ. eigenvalues --  -89.37964 -10.75199 -10.69605  -8.46235  -6.42438
 Alpha  occ. eigenvalues --   -6.42278  -6.41856  -1.31206  -1.22602  -1.07835
 Alpha  occ. eigenvalues --   -0.95988  -0.93727  -0.91314  -0.87643  -0.86540
 Alpha  occ. eigenvalues --   -0.79557
 Alpha virt. eigenvalues --   -0.59228  -0.45346  -0.42818  -0.39172  -0.33504
 Alpha virt. eigenvalues --   -0.31891  -0.30760  -0.28123  -0.27188  -0.26076
 Alpha virt. eigenvalues --   -0.24537  -0.23819  -0.23385  -0.22717  -0.20606

 Mulliken charges:
               1
     1  S    0.228240
     2  C    0.032854
     3  C    0.068181
     4  H    0.268188
     5  H    0.276383
     6  H    0.280748
     7  H    0.282746
     8  H    0.273300
     9  H    0.289361
 Sum of Mulliken charges =   2.00000

 Dipole moment (field-independent basis, Debye):
    X=              2.8266    Y=              1.0327    Z=              0.4934  Tot=              3.0496
 Quadrupole moment (field-independent basis, Debye-Ang):
   XX=              3.3083   YY=            -16.2195   ZZ=            -18.1984
   XY=             -2.5817   XZ=             -1.2559   YZ=             -1.0036

  Exact polarizability:  46.825  -1.845  33.259  -0.276  -0.569  29.003
 Approx polarizability:  64.582  -3.675  52.221   0.244  -2.407  46.945

                      1                      2                      3
                      A                      A                      A
 Frequencies --    136.7774               231.8863               330.6314
 Red. masses --      1.1190                 1.0557                 3.0851
 Frc consts  --      0.0123                 0.0334                 0.1987
 IR Inten    --     25.8725                26.1674                10.1373

                      4                      5                      6
                      A                      A                      A
 Frequencies --    526.1460               605.9519               833.8179
 Red. masses --      1.4051                 3.1976                 1.1252
 Frc consts  --      0.2292                 0.6918                 0.4609
 IR Inten    --     15.9376                 3.0984                19.7038

                      7                      8                      9
                      A                      A                      A
 Frequencies --    858.4532              1001.1197              1042.1408
 Red. masses --      1.0498                 1.3004                 1.2210
 Frc consts  --      0.4558                 0.7679                 0.7813
 IR Inten    --      8.8633                 6.2916                 9.2792

                     10                     11                     12
                      A                      A                      A
 Frequencies --   1141.4043              1181.8201              1236.9285
 Red. masses --      1.6115                 1.0611                 1.0756
 Frc consts  --      1.2370                 0.8732                 0.9696
 IR Inten    --     69.9869                22.9823                52.9750

                     13                     14                     15
                      A                      A                      A
 Frequencies --   1296.4696              1329.0752              1493.1962
 Red. masses --      1.3449                 1.6793                 1.2575
 Frc consts  --      1.3319                 1.7477                 1.6520
 IR Inten    --     18.7089                18.0679                 6.0017

                     16                     17                     18
                      A                      A                      A
 Frequencies --   2548.8112              2553.2201              2721.6999
 Red. masses --      1.0353                 1.0424                 1.0727
 Frc consts  --      3.9625                 4.0039                 4.6816
 IR Inten    --    134.3271               116.5690               191.8487

                     19                     20                     21
                      A                      A                      A
 Frequencies --   2983.4465              3042.6794              3148.3596
 Red. masses --      1.0821                 1.0567                 1.1245
 Frc consts  --      5.6746                 5.7639                 6.5670
 IR Inten    --    117.0063                65.4009                88.7275

 - Thermochemistry -
 -------------------
 Temperature   298.150 Kelvin.  Pressure   1.00000 Atm.
 Atom     1 has atomic number 16 and mass  31.97207

 Molecular mass:    62.01902 amu.
 Principal axes and moments of inertia in atomic units:
                           1         2         3
     Eigenvalues --    55.37484 352.43768 383.45582
           X            0.99971  -0.02058  -0.01226
           Y            0.02032   0.99958  -0.02058
           Z            0.01267   0.02032   0.99971
 This molecule is an asymmetric top.
 Rotational symmetry number  1.
 Rotational temperatures (Kelvin)      1.56414     0.24576     0.22588
 Rotational constants (GHZ):          32.59136     5.12074     4.70652
 Zero-point vibrational energy     180899.5 (Joules/Mol)
                                   43.23602 (Kcal/Mol)
 Warning -- explicit consideration of   5 degrees of freedom as
           vibrations may cause significant error
 Vibrational temperatures:    196.79   333.63   475.70   757.01   871.83
          (Kelvin)           1199.68  1235.12  1440.39  1499.41  1642.22
                             1700.37  1779.66  1865.33  1912.24  2148.37
                             3667.17  3673.51  3915.91  4292.51  4377.73
                             4529.78

 Zero-point correction=                           0.068901 (Hartree/Particle)
 Thermal correction to Energy=                    0.073938
 Thermal correction to Enthalpy=                  0.074883
 Thermal correction to Gibbs Free Energy=         0.041840
 Sum of electronic and zero-point Energies=           -477.137610
 Sum of electronic and thermal Energies=              -477.132573
 Sum of electronic and thermal Enthalpies=            -477.131628
 Sum of electronic and thermal Free Energies=         -477.164671

                     E (Thermal)             CV                S
                      KCal/Mol        Cal/Mol-Kelvin    Cal/Mol-Kelvin
 Total                   46.397             16.371             69.544
 Electronic               0.000              0.000              0.000
 Translational            0.889              2.981             38.294
 Rotational               0.889              2.981             23.530
 Vibrational             44.620             10.410              7.720
 Vibration     1          0.614              1.917              2.848
 Vibration     2          0.653              1.792              1.864
 Vibration     3          0.713              1.614              1.257
 Vibration     4          0.881              1.192              0.596
 Vibration     5          0.965              1.019              0.440

 Optimization completed.
    -- Stationary point found.
 Normal termination of Gaussian 09 at Wed Aug  3 20:46:28 2016.
