 Gaussian 09, Revision E.01,
 Gaussian 09:  EM64L-G09RevE.01 30-Nov-2015

 ------------------------------
 #p b3lyp/6-311++G(3df,2p) freq
 ------------------------------

 ---------
 b3lyp opt
 ---------
 Symbolic Z-matrix:
 Charge =  0 Multiplicity = 1

                         Standard orientation:
 ---------------------------------------------------------------------
 Center     Atomic      Atomic             Coordinates (Angstroms)
 Number     Number       Type             X           Y           Z
 ---------------------------------------------------------------------
      1         16           0        0.000047    0.367019    0.000021
      2          6           0       -1.376742   -0.493886   -0.024588
      3          6           0        1.376711   -0.494067    0.024371
      4          1           0       -2.244950   -0.017467    0.403210
      5          1           0        2.245123   -0.017080   -0.402457
      6          1           0       -1.452587   -1.287434   -0.748834
      7          1           0        1.452368   -1.286892    0.749409
      8          1           0        0.421067    1.332007   -0.916133
      9          1           0       -0.421584    1.332283    0.915769
 ---------------------------------------------------------------------

 SCF Done:  E(RB3LYP) =  -477.889753800     A.U. after   12 cycles

 The electronic state is 1-A.
 Alpha  occ. eigenvalues --  -88.97756 -10.15819 -10.15815  -8.04821  -6.01057
 Alpha  occ. eigenvalues --   -6.00983  -6.00794  -0.89228  -0.70216  -0.61945
 Alpha  occ. eigenvalues --   -0.50936  -0.49523  -0.43361  -0.41425  -0.39624
 Alpha  occ. eigenvalues --   -0.23121  -0.21632
 Alpha virt. eigenvalues --   -0.03245  -0.00938   0.00547   0.01235   0.03834
 Alpha virt. eigenvalues --    0.04126   0.04384   0.04857   0.06895   0.07636
 Alpha virt. eigenvalues --    0.07886   0.08382   0.10216   0.11393   0.11985

 Mulliken charges:
               1
     1  S    0.184152
     2  C   -0.452947
     3  C   -0.452881
     4  H    0.143130
     5  H    0.143155
     6  H    0.161712
     7  H    0.161644
     8  H    0.056022
     9  H    0.056013
 Sum of Mulliken charges =  -0.00000

 Dipole moment (field-independent basis, Debye):
    X=              0.0011    Y=              1.7765    Z=              0.0015  Tot=              1.7765
 Quadrupole moment (field-independent basis, Debye-Ang):
   XX=            -28.9487   YY=            -28.0098   ZZ=            -29.2022
   XY=              0.0025   XZ=              0.0052   YZ=             -0.0010

  Exact polarizability:  74.804  -0.006  59.483  -5.841   0.002  46.656
 Approx polarizability: 115.867  -0.020  97.099 -13.619   0.013  69.793

                      1                      2                      3
                      A                      A                      A
 Frequencies --    336.5636               470.7090               474.7414
 Red. masses --      2.8819                 1.4904                 1.1871
 Frc consts  --      0.1923                 0.1946                 0.1576
 IR Inten    --      3.6914                28.0752                81.7172

                      4                      5                      6
                      A                      A                      A
 Frequencies --    507.5525               581.8101               758.6440
 Red. masses --      1.0980                 1.0961                 1.1030
 Frc consts  --      0.1667                 0.2186                 0.3740
 IR Inten    --     83.6755                25.9788                41.2661

                      7                      8                      9
                      A                      A                      A
 Frequencies --    807.8493               886.2455               918.3907
 Red. masses --      1.0868                 1.1091                 2.7247
 Frc consts  --      0.4179                 0.5133                 1.3540
 IR Inten    --     22.3598                 9.2709                10.1698

                     10                     11                     12
                      A                      A                      A
 Frequencies --   1058.2975              1076.1689              1180.5671
 Red. masses --      2.7703                 1.4594                 1.4286
 Frc consts  --      1.8281                 0.9958                 1.1732
 IR Inten    --     41.8230                32.0582               133.7459

                     13                     14                     15
                      A                      A                      A
 Frequencies --   1311.6920              1382.6846              1399.5166
 Red. masses --      1.0351                 1.1953                 1.1421
 Frc consts  --      1.0493                 1.3464                 1.3180
 IR Inten    --      0.1408                46.1049                 1.3485

                     16                     17                     18
                      A                      A                      A
 Frequencies --   2152.0188              2229.8560              3157.0280
 Red. masses --      1.0417                 1.0370                 1.0474
 Frc consts  --      2.8424                 3.0381                 6.1508
 IR Inten    --    358.6127               281.1756                 2.3927

                     19                     20                     21
                      A                      A                      A
 Frequencies --   3157.5937              3283.6115              3285.0003
 Red. masses --      1.0481                 1.1220                 1.1219
 Frc consts  --      6.1570                 7.1278                 7.1329
 IR Inten    --      0.0330                 0.1481                 1.5747

 - Thermochemistry -
 -------------------
 Temperature   298.150 Kelvin.  Pressure   1.00000 Atm.
 Atom     1 has atomic number 16 and mass  31.97207

 Molecular mass:    62.01902 amu.
 Principal axes and moments of inertia in atomic units:
                           1         2         3
     Eigenvalues --    72.28173 226.48466 276.19110
           X            0.99998   0.00003  -0.00703
           Y           -0.00003   1.00000  -0.00005
           Z            0.00703   0.00005   0.99998
 This molecule is an asymmetric top.
 Rotational symmetry number  1.
 Rotational temperatures (Kelvin)      1.19828     0.38243     0.31360
 Rotational constants (GHZ):          24.96815     7.96849     6.53439
 Zero-point vibrational energy     181931.3 (Joules/Mol)
                                   43.48263 (Kcal/Mol)
 Warning -- explicit consideration of   5 degrees of freedom as
           vibrations may cause significant error
 Vibrational temperatures:    484.24   677.24   683.05   730.25   837.09
          (Kelvin)           1091.52  1162.31  1275.11  1321.36  1522.65
                             1548.37  1698.57  1887.23  1989.37  2013.59
                             3096.27  3208.26  4542.25  4543.07  4724.38
                             4726.38

 Zero-point correction=                           0.069294 (Hartree/Particle)
 Thermal correction to Energy=                    0.073758
 Thermal correction to Enthalpy=                  0.074702
 Thermal correction to Gibbs Free Energy=         0.043293
 Sum of electronic and zero-point Energies=           -477.820460
 Sum of electronic and thermal Energies=              -477.815996
 Sum of electronic and thermal Enthalpies=            -477.815052
 Sum of electronic and thermal Free Energies=         -477.846461

                     E (Thermal)             CV                S
                      KCal/Mol        Cal/Mol-Kelvin    Cal/Mol-Kelvin
 Total                   46.284             16.052             66.107
 Electronic               0.000              0.000              0.000
 Translational            0.889              2.981             38.294
 Rotational               0.889              2.981             23.029
 Vibrational             44.506             10.090              4.784
 Vibration     1          0.717              1.602              1.228
 Vibration     2          0.828              1.315              0.736
 Vibration     3          0.831              1.306              0.724
 Vibration     4          0.863              1.233              0.640
 Vibration     5          0.939              1.071              0.482

 Normal termination of Gaussian 09 at Wed Aug  3 20:41:32 2016.
