 Gaussian 09, Revision E.01,
 Gaussian 09:  EM64L-G09RevE.01 30-Nov-2015

 ------------------------------
 #p b3lyp/6-311++G(3df,2p) freq
 ------------------------------

 ---------
 b3lyp opt
 ---------
 Symbolic Z-matrix:
 Charge =  1 Multiplicity = 2

                         Standard orientation:
 ---------------------------------------------------------------------
 Center     Atomic      Atomic             Coordinates (Angstroms)
 Number     Number       Type             X           Y           Z
 ---------------------------------------------------------------------
      1         16           0        0.084293   -0.529674   -0.148936
      2          6           0        1.420058    0.552630    0.066618
      3          6           0       -1.433487    0.467491    0.086707
      4          1           0        1.557785    1.308906   -0.691730
      5          1           0       -1.373105    1.020421    1.017987
      6          1           0        2.175407    0.312265    0.798548
      7          1           0        0.126908   -1.173803    1.036328
      8          1           0       -1.496004    1.127798   -0.774976
      9          1           0       -2.259102   -0.241521    0.076875
 ---------------------------------------------------------------------

 SCF Done:  E(UB3LYP) =  -477.727009382     A.U. after   13 cycles

 The electronic state is 2-A.
 Alpha  occ. eigenvalues --  -89.16575 -10.43803 -10.42112  -8.24780  -6.20942
 Alpha  occ. eigenvalues --   -6.20865  -6.20449  -1.09036  -0.94164  -0.86060
 Alpha  occ. eigenvalues --   -0.72546  -0.67799  -0.65941  -0.64058  -0.62792
 Alpha  occ. eigenvalues --   -0.58262  -0.45921
 Alpha virt. eigenvalues --   -0.23098  -0.20488  -0.18308  -0.14481  -0.11807
 Alpha virt. eigenvalues --   -0.11418  -0.11178  -0.09550  -0.08528  -0.08222
 Alpha virt. eigenvalues --   -0.07500  -0.06598  -0.05698  -0.04283  -0.03126

  Beta  occ. eigenvalues --  -89.16572 -10.42411 -10.41960  -8.24766  -6.20953
  Beta  occ. eigenvalues --   -6.20894  -6.20382  -1.08215  -0.92690  -0.84195
  Beta  occ. eigenvalues --   -0.72069  -0.67261  -0.65340  -0.63153  -0.62505
  Beta  occ. eigenvalues --   -0.56859
  Beta virt. eigenvalues --   -0.31800  -0.22758  -0.19436  -0.17612  -0.14306
  Beta virt. eigenvalues --   -0.11626  -0.11247  -0.10967  -0.09432  -0.08337
  Beta virt. eigenvalues --   -0.08157  -0.07363  -0.06408  -0.05443  -0.03593

 Mulliken charges and spin densities:
               1          2
     1  S    0.338743   0.041327
     2  C   -0.216235   0.938618
     3  C   -0.384638   0.056508
     4  H    0.200068  -0.021546
     5  H    0.222824   0.003992
     6  H    0.210578  -0.024226
     7  H    0.192910   0.005371
     8  H    0.225072  -0.001903
     9  H    0.210677   0.001859
 Sum of Mulliken charges =   1.00000   1.00000

 Dipole moment (field-independent basis, Debye):
    X=             -0.1586    Y=              0.1354    Z=              0.9006  Tot=              0.9244
 Quadrupole moment (field-independent basis, Debye-Ang):
   XX=            -15.3397   YY=            -21.1227   ZZ=            -22.3921
   XY=              0.3924   XZ=              0.6410   YZ=             -2.4747

  Exact polarizability:  50.826   1.136  38.469   0.600  -1.299  33.724
 Approx polarizability:  70.411   2.346  58.123   1.184  -2.723  51.455

                      1                      2                      3
                      A                      A                      A
 Frequencies --     72.4488               180.7777               260.1403
 Red. masses --      1.0721                 1.0863                 2.7889
 Frc consts  --      0.0033                 0.0209                 0.1112
 IR Inten    --      3.9178                 0.2188                 0.4997

                      4                      5                      6
                      A                      A                      A
 Frequencies --    511.8964               618.8182               711.0938
 Red. masses --      1.3101                 5.8791                 1.2887
 Frc consts  --      0.2023                 1.3264                 0.3839
 IR Inten    --     51.9312                 0.4144                10.6717

                      7                      8                      9
                      A                      A                      A
 Frequencies --    775.4264               817.7295               985.7487
 Red. masses --      2.5798                 1.1181                 1.2274
 Frc consts  --      0.9139                 0.4405                 0.7027
 IR Inten    --      0.5902                 1.5551                 3.1581

                     10                     11                     12
                      A                      A                      A
 Frequencies --   1051.3253              1095.8218              1354.5040
 Red. masses --      1.2821                 1.1710                 1.1299
 Frc consts  --      0.8349                 0.8285                 1.2213
 IR Inten    --      8.6616                 3.3257                 1.0334

                     13                     14                     15
                      A                      A                      A
 Frequencies --   1393.2069              1453.1882              1458.0393
 Red. masses --      1.0953                 1.0480                 1.0488
 Frc consts  --      1.2526                 1.3040                 1.3136
 IR Inten    --      0.6406                16.7401                12.4637

                     16                     17                     18
                      A                      A                      A
 Frequencies --   2632.9673              3057.1882              3150.2142
 Red. masses --      1.0394                 1.0266                 1.0444
 Frc consts  --      4.2455                 5.6532                 6.1064
 IR Inten    --     27.2389                 7.9953                23.7752

                     19                     20                     21
                      A                      A                      A
 Frequencies --   3156.1843              3183.5690              3293.7253
 Red. masses --      1.1069                 1.1111                 1.1277
 Frc consts  --      6.4968                 6.6346                 7.2080
 IR Inten    --     10.5570                 7.5719                30.4125

 - Thermochemistry -
 -------------------
 Temperature   298.150 Kelvin.  Pressure   1.00000 Atm.
 Atom     1 has atomic number 16 and mass  31.97207

 Molecular mass:    62.01902 amu.
 Principal axes and moments of inertia in atomic units:
                           1         2         3
     Eigenvalues --    90.89746 250.34153 309.01994
           X            0.99998   0.00030   0.00568
           Y            0.00028   0.99485  -0.10133
           Z           -0.00568   0.10133   0.99484
 This molecule is an asymmetric top.
 Rotational symmetry number  1.
 Rotational temperatures (Kelvin)      0.95287     0.34598     0.28029
 Rotational constants (GHZ):          19.85469     7.20912     5.84021
 Zero-point vibrational energy     186701.3 (Joules/Mol)
                                   44.62267 (Kcal/Mol)
 Warning -- explicit consideration of   5 degrees of freedom as
           vibrations may cause significant error
 Vibrational temperatures:    104.24   260.10   374.28   736.50   890.34
          (Kelvin)           1023.10  1115.66  1176.53  1418.27  1512.62
                             1576.64  1948.83  2004.51  2090.81  2097.79
                             3788.25  4398.61  4532.45  4541.04  4580.44
                             4738.93

 Zero-point correction=                           0.071111 (Hartree/Particle)
 Thermal correction to Energy=                    0.076552
 Thermal correction to Enthalpy=                  0.077496
 Thermal correction to Gibbs Free Energy=         0.042680
 Sum of electronic and zero-point Energies=           -477.655899
 Sum of electronic and thermal Energies=              -477.650458
 Sum of electronic and thermal Enthalpies=            -477.649513
 Sum of electronic and thermal Free Energies=         -477.684329

                     E (Thermal)             CV                S
                      KCal/Mol        Cal/Mol-Kelvin    Cal/Mol-Kelvin
 Total                   48.037             17.287             73.276
 Electronic               0.000              0.000              1.377
 Translational            0.889              2.981             38.294
 Rotational               0.889              2.981             23.468
 Vibrational             46.259             11.326             10.136
 Vibration     1          0.599              1.967              4.086
 Vibration     2          0.630              1.866              2.320
 Vibration     3          0.668              1.746              1.661
 Vibration     4          0.867              1.224              0.629
 Vibration     5          0.979              0.992              0.418

 Normal termination of Gaussian 09 at Wed Aug  3 20:47:52 2016.
