 Gaussian 09, Revision E.01,
 Gaussian 09:  EM64L-G09RevE.01 30-Nov-2015

 ------------------------------
 #p b3lyp/6-311++G(3df,2p) freq
 ------------------------------

 ---------
 b3lyp opt
 ---------
 Symbolic Z-matrix:
 Charge =  2 Multiplicity = 1

                         Standard orientation:
 ---------------------------------------------------------------------
 Center     Atomic      Atomic             Coordinates (Angstroms)
 Number     Number       Type             X           Y           Z
 ---------------------------------------------------------------------
      1         16           0        0.038782   -0.832104    0.000000
      2          6           0        0.038782    0.733248    0.904615
      3          6           0        0.038782    0.733248   -0.904615
      4          1           0        1.005153    0.962877    1.359958
      5          1           0       -0.889186    0.991085   -1.421221
      6          1           0       -0.889186    0.991085    1.421221
      7          1           0       -1.311415   -1.051335    0.000000
      8          1           0       -0.006429    1.658100   -0.000000
      9          1           0        1.005153    0.962877   -1.359958
 ---------------------------------------------------------------------

 SCF Done:  E(RB3LYP) =  -477.174089573     A.U. after   10 cycles

 The electronic state is 1-A'.
 Alpha  occ. eigenvalues --  -89.43444 -10.75379 -10.75373  -8.51445  -6.47674
 Alpha  occ. eigenvalues --   -6.47442  -6.47103  -1.40314  -1.19546  -1.14479
 Alpha  occ. eigenvalues --   -1.00695  -0.95644  -0.93169  -0.90812  -0.87530
 Alpha  occ. eigenvalues --   -0.84864
 Alpha virt. eigenvalues --   -0.51794  -0.48167  -0.46794  -0.44173  -0.36267
 Alpha virt. eigenvalues --   -0.34744  -0.31971  -0.29087  -0.27734  -0.27101
 Alpha virt. eigenvalues --   -0.25776  -0.25371  -0.24813  -0.23007  -0.22893

 Mulliken charges:
               1
     1  S    0.500953
     2  C   -0.106236
     3  C   -0.106236
     4  H    0.285806
     5  H    0.282843
     6  H    0.282843
     7  H    0.283751
     8  H    0.290471
     9  H    0.285806
 Sum of Mulliken charges =   2.00000

 Dipole moment (field-independent basis, Debye):
    X=             -1.0877    Y=              2.5198    Z=             -0.0000  Tot=              2.7445
 Quadrupole moment (field-independent basis, Debye-Ang):
   XX=            -16.2563   YY=            -10.3558   ZZ=            -13.0764
   XY=              2.1082   XZ=              0.0000   YZ=             -0.0000

  Exact polarizability:  29.470   1.890  37.999  -0.000  -0.000  35.532
 Approx polarizability:  45.667   2.948  64.568   0.000  -0.000  58.550

                      1                      2                      3
                     A'                     A"                     A'
 Frequencies --    397.4189               504.2088               533.5586
 Red. masses --      1.0650                 3.4578                 6.0867
 Frc consts  --      0.0991                 0.5179                 1.0209
 IR Inten    --     12.2414                 2.9951                 1.9429

                      4                      5                      6
                     A"                     A'                     A"
 Frequencies --    743.3761               785.4521               820.7353
 Red. masses --      1.0621                 6.2290                 1.5265
 Frc consts  --      0.3458                 2.2642                 0.6059
 IR Inten    --     14.2217                 6.0115                 5.2754

                      7                      8                      9
                     A'                     A'                     A"
 Frequencies --    876.5426              1005.8455              1029.0955
 Red. masses --      1.0625                 1.1549                 1.1981
 Frc consts  --      0.4810                 0.6884                 0.7476
 IR Inten    --      4.1162                30.3563                 0.8274

                     10                     11                     12
                     A"                     A'                     A'
 Frequencies --   1141.0652              1157.3586              1214.7195
 Red. masses --      1.1229                 1.1007                 1.0364
 Frc consts  --      0.8614                 0.8687                 0.9010
 IR Inten    --      0.0001                15.3344                 5.7400

                     13                     14                     15
                     A"                     A'                     A"
 Frequencies --   1375.9544              1401.9436              1582.8660
 Red. masses --      1.0822                 1.0675                 1.0258
 Frc consts  --      1.2072                 1.2361                 1.5142
 IR Inten    --      1.6140                 3.9984                28.6439

                     16                     17                     18
                     A'                     A'                     A"
 Frequencies --   2021.7124              2514.9251              3026.4173
 Red. masses --      1.0714                 1.0407                 1.0454
 Frc consts  --      2.5801                 3.8783                 5.6416
 IR Inten    --     64.7677               116.9679               196.6901

                     19                     20                     21
                     A'                     A'                     A"
 Frequencies --   3037.0772              3161.0725              3165.4416
 Red. masses --      1.0480                 1.1240                 1.1367
 Frc consts  --      5.6954                 6.6176                 6.7104
 IR Inten    --     47.3490               253.0332                 0.9090

 - Thermochemistry -
 -------------------
 Temperature   298.150 Kelvin.  Pressure   1.00000 Atm.
 Atom     1 has atomic number 16 and mass  31.97207

 Molecular mass:    62.01902 amu.
 Principal axes and moments of inertia in atomic units:
                           1         2         3
     Eigenvalues --   117.21594 170.99414 249.75201
           X            0.03455   0.00000   0.99940
           Y            0.99940   0.00000  -0.03455
           Z           -0.00000   1.00000  -0.00000
 This molecule is an asymmetric top.
 Rotational symmetry number  1.
 Rotational temperatures (Kelvin)      0.73893     0.50653     0.34680
 Rotational constants (GHZ):          15.39672    10.55440     7.22613
 Zero-point vibrational energy     188392.6 (Joules/Mol)
                                   45.02692 (Kcal/Mol)
 Warning -- explicit consideration of   3 degrees of freedom as
           vibrations may cause significant error
 Vibrational temperatures:    571.80   725.44   767.67  1069.55  1130.09
          (Kelvin)           1180.85  1261.15  1447.19  1480.64  1641.74
                             1665.18  1747.71  1979.69  2017.08  2277.39
                             2908.79  3618.41  4354.33  4369.67  4548.07
                             4554.36

 Zero-point correction=                           0.071755 (Hartree/Particle)
 Thermal correction to Energy=                    0.075777
 Thermal correction to Enthalpy=                  0.076721
 Thermal correction to Gibbs Free Energy=         0.045928
 Sum of electronic and zero-point Energies=           -477.102335
 Sum of electronic and thermal Energies=              -477.098313
 Sum of electronic and thermal Enthalpies=            -477.097368
 Sum of electronic and thermal Free Energies=         -477.128161

                     E (Thermal)             CV                S
                      KCal/Mol        Cal/Mol-Kelvin    Cal/Mol-Kelvin
 Total                   47.551             14.110             64.809
 Electronic               0.000              0.000              0.000
 Translational            0.889              2.981             38.294
 Rotational               0.889              2.981             23.130
 Vibrational             45.773              8.148              3.384
 Vibration     1          0.764              1.476              0.972
 Vibration     2          0.859              1.241              0.648
 Vibration     3          0.889              1.176              0.579

 Optimization completed.
    -- Stationary point found.
 Normal termination of Gaussian 09 at Wed Aug  3 23:01:40 2016.
