 Gaussian 09, Revision E.01,
 Gaussian 09:  EM64L-G09RevE.01 30-Nov-2015

 ------------------------------
 #p b3lyp/6-311++G(3df,2p) freq
 ------------------------------

 ---------
 b3lyp opt
 ---------
 Symbolic Z-matrix:
 Charge =  2 Multiplicity = 3

                         Standard orientation:
 ---------------------------------------------------------------------
 Center     Atomic      Atomic             Coordinates (Angstroms)
 Number     Number       Type             X           Y           Z
 ---------------------------------------------------------------------
      1         16           0        0.000039    0.412499    0.000047
      2          6           0       -1.473390   -0.513718    0.038647
      3          6           0        1.473259   -0.514209   -0.038662
      4          1           0       -1.485155   -1.379471    0.697881
      5          1           0        1.483354   -1.382250   -0.694874
      6          1           0       -2.307185   -0.122494   -0.542455
      7          1           0        2.308694   -0.120333    0.538311
      8          1           0       -0.120554    1.286326   -1.060707
      9          1           0        0.120997    1.285813    1.061187
 ---------------------------------------------------------------------

 SCF Done:  E(UB3LYP) =  -477.080255241     A.U. after   12 cycles

 The electronic state is 3-A.
 Alpha  occ. eigenvalues --  -89.48831 -10.69801 -10.69800  -8.56551  -6.52618
 Alpha  occ. eigenvalues --   -6.52593  -6.52564  -1.38796  -1.19463  -1.12220
 Alpha  occ. eigenvalues --   -1.01099  -0.96706  -0.92916  -0.89563  -0.88477
 Alpha  occ. eigenvalues --   -0.73503  -0.72710
 Alpha virt. eigenvalues --   -0.46156  -0.45845  -0.45093  -0.44613  -0.33472
 Alpha virt. eigenvalues --   -0.31223  -0.29028  -0.28267  -0.28002  -0.24976
 Alpha virt. eigenvalues --   -0.23964  -0.23599  -0.22765  -0.21108  -0.20272

  Beta  occ. eigenvalues --  -89.48912 -10.68384 -10.68382  -8.56588  -6.52680
  Beta  occ. eigenvalues --   -6.52659  -6.52631  -1.37266  -1.15397  -1.09363
  Beta  occ. eigenvalues --   -0.99742  -0.95240  -0.91574  -0.88548  -0.87417
  Beta virt. eigenvalues --   -0.58365  -0.58220  -0.44837  -0.44459  -0.43035
  Beta virt. eigenvalues --   -0.41015  -0.33236  -0.30358  -0.28301  -0.27343
  Beta virt. eigenvalues --   -0.26924  -0.24161  -0.23702  -0.22579  -0.22325

 Mulliken charges and spin densities:
               1          2
     1  S    0.495877   0.135284
     2  C   -0.097705   0.900518
     3  C   -0.097638   0.900782
     4  H    0.285666  -0.021784
     5  H    0.285720  -0.021749
     6  H    0.265973  -0.015537
     7  H    0.265887  -0.015489
     8  H    0.298108   0.068981
     9  H    0.298113   0.068995
 Sum of Mulliken charges =   2.00000   2.00000

 Dipole moment (field-independent basis, Debye):
    X=              0.0004    Y=              1.0949    Z=             -0.0005  Tot=              1.0949
 Quadrupole moment (field-independent basis, Debye-Ang):
   XX=             -5.0587   YY=            -13.3279   ZZ=            -17.9305
   XY=              0.0056   XZ=              1.0263   YZ=             -0.0009

  Exact polarizability:  47.626   0.001  35.669   1.325  -0.001  29.068
 Approx polarizability:  66.942   0.000  53.742   2.472  -0.003  43.553

                      1                      2                      3
                      A                      A                      A
 Frequencies --    134.5167               179.1310               269.4135
 Red. masses --      1.0647                 1.0968                 2.6437
 Frc consts  --      0.0114                 0.0207                 0.1131
 IR Inten    --      0.1300                 0.2370                 0.0504

                      4                      5                      6
                      A                      A                      A
 Frequencies --    536.3420               596.2801               606.2277
 Red. masses --      1.4327                 1.1326                 1.2287
 Frc consts  --      0.2428                 0.2373                 0.2660
 IR Inten    --      6.3541                82.3698                37.0923

                      7                      8                      9
                      A                      A                      A
 Frequencies --    677.9244               753.2502               799.9216
 Red. masses --      6.0425                 5.7716                 1.0622
 Frc consts  --      1.6362                 1.9294                 0.4005
 IR Inten    --      0.7117                 1.4695                 0.5112

                     10                     11                     12
                      A                      A                      A
 Frequencies --    852.8482              1023.1037              1033.9152
 Red. masses --      1.1355                 1.2335                 1.2320
 Frc consts  --      0.4866                 0.7607                 0.7760
 IR Inten    --      0.0445                 2.6374                 5.5781

                     13                     14                     15
                      A                      A                      A
 Frequencies --   1140.7741              1338.6643              1350.3724
 Red. masses --      1.0358                 1.0618                 1.0616
 Frc consts  --      0.7942                 1.1211                 1.1406
 IR Inten    --      5.1755                 3.1752                 2.5777

                     16                     17                     18
                      A                      A                      A
 Frequencies --   2376.9600              2383.6995              3057.5236
 Red. masses --      1.0484                 1.0321                 1.0392
 Frc consts  --      3.4901                 3.4554                 5.7237
 IR Inten    --    177.5347               132.7438               237.7209

                     19                     20                     21
                      A                      A                      A
 Frequencies --   3061.9718              3224.7162              3227.0366
 Red. masses --      1.0386                 1.1348                 1.1375
 Frc consts  --      5.7375                 6.9526                 6.9790
 IR Inten    --     53.5323               157.5054               115.8788

 - Thermochemistry -
 -------------------
 Temperature   298.150 Kelvin.  Pressure   1.00000 Atm.
 Atom     1 has atomic number 16 and mass  31.97207

 Molecular mass:    62.01902 amu.
 Principal axes and moments of inertia in atomic units:
                           1         2         3
     Eigenvalues --    81.59058 254.16575 308.16251
           X            0.99994   0.00008   0.01069
           Y           -0.00008   1.00000  -0.00003
           Z           -0.01069   0.00003   0.99994
 This molecule is an asymmetric top.
 Rotational symmetry number  1.
 Rotational temperatures (Kelvin)      1.06157     0.34078     0.28107
 Rotational constants (GHZ):          22.11948     7.10065     5.85646
 Zero-point vibrational energy     171213.1 (Joules/Mol)
                                   40.92091 (Kcal/Mol)
 Warning -- explicit consideration of   6 degrees of freedom as
           vibrations may cause significant error
 Vibrational temperatures:    193.54   257.73   387.63   771.68   857.91
          (Kelvin)            872.23   975.38  1083.76  1150.91  1227.06
                             1472.02  1487.57  1641.32  1926.04  1942.88
                             3419.91  3429.61  4399.09  4405.49  4639.64
                             4642.98

 Zero-point correction=                           0.065212 (Hartree/Particle)
 Thermal correction to Energy=                    0.070750
 Thermal correction to Enthalpy=                  0.071694
 Thermal correction to Gibbs Free Energy=         0.036838
 Sum of electronic and zero-point Energies=           -477.015044
 Sum of electronic and thermal Energies=              -477.009505
 Sum of electronic and thermal Enthalpies=            -477.008561
 Sum of electronic and thermal Free Energies=         -477.043417

                     E (Thermal)             CV                S
                      KCal/Mol        Cal/Mol-Kelvin    Cal/Mol-Kelvin
 Total                   44.396             18.729             73.360
 Electronic               0.000              0.000              2.183
 Translational            0.889              2.981             38.294
 Rotational               0.889              2.981             23.373
 Vibrational             42.619             12.768              9.510
 Vibration     1          0.613              1.919              2.880
 Vibration     2          0.629              1.868              2.337
 Vibration     3          0.674              1.729              1.600
 Vibration     4          0.891              1.170              0.573
 Vibration     5          0.954              1.040              0.456
 Vibration     6          0.965              1.019              0.439

 Normal termination of Gaussian 09 at Wed Aug  3 20:54:23 2016.
