 Gaussian 09, Revision E.01,
 Gaussian 09:  EM64L-G09RevE.01 30-Nov-2015

 ------------------------------
 #p b3lyp/6-311++G(3df,2p) freq
 ------------------------------

 ---------
 b3lyp opt
 ---------
 Symbolic Z-matrix:
 Charge =  0 Multiplicity = 1

                         Standard orientation:
 ---------------------------------------------------------------------
 Center     Atomic      Atomic             Coordinates (Angstroms)
 Number     Number       Type             X           Y           Z
 ---------------------------------------------------------------------
      1         16           0        0.218390    0.313718    0.025789
      2          6           0        1.564990   -0.449329   -0.142747
      3          6           0       -1.521470   -0.360427   -0.024719
      4          1           0       -0.176316    1.264596    1.033481
      5          1           0       -2.216180    0.477810   -0.100625
      6          1           0        1.833948   -1.159752    0.631164
      7          1           0       -1.589041   -1.023962   -0.883587
      8          1           0       -1.677536   -0.912739    0.899437
      9          1           0        0.069760    1.193102   -0.987691
 ---------------------------------------------------------------------

 SCF Done:  E(RB3LYP) =  -477.861213553     A.U. after   13 cycles

 The electronic state is 1-A.
 Alpha  occ. eigenvalues --  -88.96879 -10.20290 -10.13374  -8.04046  -6.00294
 Alpha  occ. eigenvalues --   -6.00145  -5.99991  -0.87536  -0.72556  -0.61611
 Alpha  occ. eigenvalues --   -0.50906  -0.46665  -0.44085  -0.42088  -0.41244
 Alpha  occ. eigenvalues --   -0.22128  -0.19977
 Alpha virt. eigenvalues --   -0.03674  -0.01903  -0.00466   0.00897   0.02424
 Alpha virt. eigenvalues --    0.03072   0.03646   0.05159   0.06081   0.06844
 Alpha virt. eigenvalues --    0.07957   0.08350   0.09383   0.09749   0.11308

 Mulliken charges:
               1
     1  S    0.070754
     2  C   -0.568419
     3  C   -0.322147
     4  H    0.009430
     5  H    0.148643
     6  H    0.167303
     7  H    0.163034
     8  H    0.178789
     9  H    0.152614
 Sum of Mulliken charges =  -0.00000

 Dipole moment (field-independent basis, Debye):
    X=             -3.8868    Y=              1.0688    Z=              0.6746  Tot=              4.0871
 Quadrupole moment (field-independent basis, Debye-Ang):
   XX=            -33.8713   YY=            -27.5974   ZZ=            -28.1703
   XY=              0.5435   XZ=              2.4510   YZ=             -2.3587

  Exact polarizability:  85.979  -7.659  58.850  -5.252   6.861  50.026
 Approx polarizability: 147.606 -27.649  94.490 -17.574  15.238  78.261

                      1                      2                      3
                      A                      A                      A
 Frequencies --    191.4056               266.5123               414.6179
 Red. masses --      1.0988                 2.9905                 1.3174
 Frc consts  --      0.0237                 0.1251                 0.1334
 IR Inten    --      1.2573                 3.0186                82.8196

                      4                      5                      6
                      A                      A                      A
 Frequencies --    536.3813               624.8987               718.1922
 Red. masses --      4.2582                 1.1158                 1.3953
 Frc consts  --      0.7218                 0.2567                 0.4240
 IR Inten    --     39.5568                55.1310               134.6457

                      7                      8                      9
                      A                      A                      A
 Frequencies --    803.7231               845.0960              1043.8239
 Red. masses --      1.1877                 1.3328                 1.2292
 Frc consts  --      0.4520                 0.5608                 0.7891
 IR Inten    --     22.4877                 2.9796                 8.2508

                     10                     11                     12
                      A                      A                      A
 Frequencies --   1088.9199              1217.1635              1223.1402
 Red. masses --      1.1895                 1.2317                 1.8189
 Frc consts  --      0.8310                 1.0751                 1.6033
 IR Inten    --     22.9394                 7.0221                88.5846

                     13                     14                     15
                      A                      A                      A
 Frequencies --   1286.8536              1438.1514              1461.5927
 Red. masses --      1.2022                 1.0536                 1.0548
 Frc consts  --      1.1730                 1.2839                 1.3276
 IR Inten    --     19.0774                 7.1695                 7.6283

                     16                     17                     18
                      A                      A                      A
 Frequencies --   1850.8287              2541.6870              3020.5071
 Red. masses --      1.0462                 1.0383                 1.0289
 Frc consts  --      2.1116                 3.9521                 5.5308
 IR Inten    --    643.6097                15.8245                 8.3779

                     19                     20                     21
                      A                      A                      A
 Frequencies --   3128.2682              3149.2194              3179.9500
 Red. masses --      1.1043                 1.1073                 1.0894
 Frc consts  --      6.3672                 6.4703                 6.4904
 IR Inten    --      3.9344                 1.3564                 1.2389

 - Thermochemistry -
 -------------------
 Temperature   298.150 Kelvin.  Pressure   1.00000 Atm.
 Atom     1 has atomic number 16 and mass  31.97207

 Molecular mass:    62.01902 amu.
 Principal axes and moments of inertia in atomic units:
                           1         2         3
     Eigenvalues --    64.21730 273.30923 306.86892
           X            0.99989  -0.00163   0.01456
           Y            0.00251   0.99817  -0.06041
           Z           -0.01443   0.06044   0.99807
 This molecule is an asymmetric top.
 Rotational symmetry number  1.
 Rotational temperatures (Kelvin)      1.34876     0.31691     0.28225
 Rotational constants (GHZ):          28.10366     6.60329     5.88115
 Zero-point vibrational energy     179624.9 (Joules/Mol)
                                   42.93137 (Kcal/Mol)
 Warning -- explicit consideration of   4 degrees of freedom as
           vibrations may cause significant error
 Vibrational temperatures:    275.39   383.45   596.54   771.73   899.09
          (Kelvin)           1033.32  1156.38  1215.90  1501.83  1566.71
                             1751.22  1759.82  1851.49  2069.18  2102.90
                             2662.93  3656.92  4345.83  4500.87  4531.02
                             4575.23

 Zero-point correction=                           0.068415 (Hartree/Particle)
 Thermal correction to Energy=                    0.073289
 Thermal correction to Enthalpy=                  0.074233
 Thermal correction to Gibbs Free Energy=         0.041846
 Sum of electronic and zero-point Energies=           -477.792798
 Sum of electronic and thermal Energies=              -477.787924
 Sum of electronic and thermal Enthalpies=            -477.786980
 Sum of electronic and thermal Free Energies=         -477.819368

                     E (Thermal)             CV                S
                      KCal/Mol        Cal/Mol-Kelvin    Cal/Mol-Kelvin
 Total                   45.990             16.516             68.166
 Electronic               0.000              0.000              0.000
 Translational            0.889              2.981             38.294
 Rotational               0.889              2.981             23.203
 Vibrational             44.212             10.554              6.669
 Vibration     1          0.634              1.852              2.214
 Vibration     2          0.672              1.735              1.619
 Vibration     3          0.778              1.438              0.910
 Vibration     4          0.891              1.170              0.573

 Normal termination of Gaussian 09 at Wed Aug  3 20:41:23 2016.
