 Gaussian 09, Revision E.01,
 Gaussian 09:  EM64L-G09RevE.01 30-Nov-2015

 ------------------------------
 #p b3lyp/6-311++G(3df,2p) freq
 ------------------------------

 ---------
 b3lyp opt
 ---------
 Symbolic Z-matrix:
 Charge =  1 Multiplicity = 2

                         Standard orientation:
 ---------------------------------------------------------------------
 Center     Atomic      Atomic             Coordinates (Angstroms)
 Number     Number       Type             X           Y           Z
 ---------------------------------------------------------------------
      1         16           0       -0.000000    0.000000    0.348024
      2          6           0        0.000000    1.521404   -0.375711
      3          6           0       -0.000000   -1.521404   -0.375711
      4          1           0       -0.935673    1.796871   -0.848920
      5          1           0        0.935673   -1.796871   -0.848920
      6          1           0        0.935673    1.796871   -0.848920
      7          1           0       -0.935673   -1.796871   -0.848920
      8          1           0        1.075321    0.000000    1.167910
      9          1           0       -1.075321   -0.000000    1.167910
 ---------------------------------------------------------------------

 SCF Done:  E(UB3LYP) =  -477.601221562     A.U. after   12 cycles

 The electronic state is 2-B2.
 Alpha  occ. eigenvalues --  -89.23055 -10.41323 -10.41322  -8.30421  -6.26681
 Alpha  occ. eigenvalues --   -6.26481  -6.26346  -1.13754  -0.94598  -0.86605
 Alpha  occ. eigenvalues --   -0.78023  -0.69744  -0.68782  -0.65383  -0.63070
 Alpha  occ. eigenvalues --   -0.48923  -0.45174
 Alpha virt. eigenvalues --   -0.23492  -0.23309  -0.19577  -0.15747  -0.13546
 Alpha virt. eigenvalues --   -0.12431  -0.11523  -0.10402  -0.09314  -0.07615
 Alpha virt. eigenvalues --   -0.07425  -0.07308  -0.06594  -0.04379  -0.04228

  Beta  occ. eigenvalues --  -89.23104 -10.40522 -10.40522  -8.30463  -6.26720
  Beta  occ. eigenvalues --   -6.26571  -6.26390  -1.13287  -0.92502  -0.85149
  Beta  occ. eigenvalues --   -0.78083  -0.68744  -0.68231  -0.64843  -0.62681
  Beta  occ. eigenvalues --   -0.44772
  Beta virt. eigenvalues --   -0.34002  -0.23793  -0.22886  -0.18284  -0.14608
  Beta virt. eigenvalues --   -0.13353  -0.12408  -0.11231  -0.10318  -0.09053
  Beta virt. eigenvalues --   -0.07610  -0.07328  -0.06880  -0.05822  -0.04076

 Mulliken charges and spin densities:
               1          2
     1  S    0.105698  -0.053968
     2  C   -0.207896   0.565457
     3  C   -0.207896   0.565457
     4  H    0.213425  -0.016789
     5  H    0.213425  -0.016789
     6  H    0.213425  -0.016789
     7  H    0.213425  -0.016789
     8  H    0.228198  -0.004895
     9  H    0.228198  -0.004895
 Sum of Mulliken charges =   1.00000   1.00000

 Dipole moment (field-independent basis, Debye):
    X=             -0.0000    Y=              0.0000    Z=              0.8106  Tot=              0.8106
 Quadrupole moment (field-independent basis, Debye-Ang):
   XX=            -19.4103   YY=            -20.5068   ZZ=            -21.4542
   XY=             -0.0000   XZ=             -0.0000   YZ=              0.0000

  Exact polarizability:  36.679   0.000  91.295   0.000   0.000  38.424
 Approx polarizability:  55.568   0.000 156.559   0.000   0.000  56.098

                      1                      2                      3
                     A1                     A2                     B1
 Frequencies --    247.1268               251.1934               428.9742
 Red. masses --      3.7707                 1.0084                 1.1222
 Frc consts  --      0.1357                 0.0375                 0.1217
 IR Inten    --      5.0447                 0.0000                19.2243

                      4                      5                      6
                     B1                     B2                     A1
 Frequencies --    525.4855               597.9758               626.3988
 Red. masses --      1.1804                 5.4848                 1.5815
 Frc consts  --      0.1920                 1.1555                 0.3656
 IR Inten    --      0.2698               203.3864                24.4646

                      7                      8                      9
                     B2                     A2                     A1
 Frequencies --    645.9125               809.5647               845.9300
 Red. masses --      1.2382                 1.0605                 2.9425
 Frc consts  --      0.3044                 0.4095                 1.2406
 IR Inten    --    300.0609                 0.0000                42.6791

                     10                     11                     12
                     A1                     B1                     B2
 Frequencies --    979.8596              1011.9144              1069.8669
 Red. masses --      1.0599                 1.4020                 1.1484
 Frc consts  --      0.5996                 0.8458                 0.7744
 IR Inten    --     15.1771                 1.4584                13.6362

                     13                     14                     15
                     A2                     A1                     B2
 Frequencies --   1172.0367              1390.2642              1393.6727
 Red. masses --      1.0961                 1.0998                 1.0908
 Frc consts  --      0.8871                 1.2524                 1.2483
 IR Inten    --      0.0000                15.9049                 0.5956

                     16                     17                     18
                     A1                     B1                     B2
 Frequencies --   2570.7208              2592.7574              3115.4965
 Red. masses --      1.0322                 1.0473                 1.0477
 Frc consts  --      4.0190                 4.1480                 5.9917
 IR Inten    --     14.7268                43.8897                43.4402

                     19                     20                     21
                     A1                     A2                     B1
 Frequencies --   3115.6719              3238.8180              3239.0926
 Red. masses --      1.0470                 1.1218                 1.1225
 Frc consts  --      5.9884                 6.9330                 6.9386
 IR Inten    --     31.6428                 0.0000                47.8920

 - Thermochemistry -
 -------------------
 Temperature   298.150 Kelvin.  Pressure   1.00000 Atm.
 Atom     1 has atomic number 16 and mass  31.97207

 Molecular mass:    62.01902 amu.
 Principal axes and moments of inertia in atomic units:
                           1         2         3
     Eigenvalues --    66.98406 265.78790 290.91859
           X            0.00000   0.00000   1.00000
           Y            1.00000   0.00000  -0.00000
           Z           -0.00000   1.00000   0.00000
 This molecule is an asymmetric top.
 Rotational symmetry number  2.
 Rotational temperatures (Kelvin)      1.29305     0.32588     0.29773
 Rotational constants (GHZ):          26.94284     6.79016     6.20360
 Zero-point vibrational energy     178654.7 (Joules/Mol)
                                   42.69950 (Kcal/Mol)
 Warning -- explicit consideration of   5 degrees of freedom as
           vibrations may cause significant error
 Vibrational temperatures:    355.56   361.41   617.20   756.06   860.35
          (Kelvin)            901.25   929.32  1164.78  1217.10  1409.80
                             1455.92  1539.30  1686.30  2000.28  2005.18
                             3698.69  3730.39  4482.50  4482.75  4659.93
                             4660.33

 Zero-point correction=                           0.068046 (Hartree/Particle)
 Thermal correction to Energy=                    0.073065
 Thermal correction to Enthalpy=                  0.074009
 Thermal correction to Gibbs Free Energy=         0.041536
 Sum of electronic and zero-point Energies=           -477.533176
 Sum of electronic and thermal Energies=              -477.528157
 Sum of electronic and thermal Enthalpies=            -477.527213
 Sum of electronic and thermal Free Energies=         -477.559686

                     E (Thermal)             CV                S
                      KCal/Mol        Cal/Mol-Kelvin    Cal/Mol-Kelvin
 Total                   45.849             17.768             68.345
 Electronic               0.000              0.000              1.377
 Translational            0.889              2.981             38.294
 Rotational               0.889              2.981             21.787
 Vibrational             44.071             11.806              6.887
 Vibration     1          0.661              1.768              1.751
 Vibration     2          0.663              1.761              1.722
 Vibration     3          0.790              1.407              0.862
 Vibration     4          0.880              1.194              0.597
 Vibration     5          0.956              1.036              0.453

 Optimization completed.
    -- Stationary point found.
 Normal termination of Gaussian 09 at Wed Aug  3 22:58:24 2016.
