 Gaussian 09, Revision E.01,
 Gaussian 09:  EM64L-G09RevE.01 30-Nov-2015

 ------------------------------
 #p b3lyp/6-311++G(3df,2p) freq
 ------------------------------

 ---------
 b3lyp opt
 ---------
 Symbolic Z-matrix:
 Charge =  2 Multiplicity = 1

                         Standard orientation:
 ---------------------------------------------------------------------
 Center     Atomic      Atomic             Coordinates (Angstroms)
 Number     Number       Type             X           Y           Z
 ---------------------------------------------------------------------
      1         16           0       -0.105988    0.471465   -0.000975
      2          6           0       -1.619417   -0.742384    0.111837
      3          6           0        1.457574   -0.531652   -0.026600
      4          1           0        0.035989    1.545732   -0.853924
      5          1           0        2.248998    0.195663    0.178187
      6          1           0       -2.259895   -0.486210   -0.769841
      7          1           0        1.329717   -1.277990    0.760692
      8          1           0        1.511571   -0.955399   -1.032048
      9          1           0       -0.199510    1.078985    1.221115
 ---------------------------------------------------------------------

 SCF Done:  E(RB3LYP) =  -477.050221606     A.U. after   11 cycles

 The electronic state is 1-A.
 Alpha  occ. eigenvalues --  -89.45864 -10.78257 -10.65832  -8.53884  -6.49968
 Alpha  occ. eigenvalues --   -6.49910  -6.49818  -1.34197  -1.15990  -1.11252
 Alpha  occ. eigenvalues --   -0.98941  -0.93787  -0.88546  -0.85723  -0.84912
 Alpha  occ. eigenvalues --   -0.75310
 Alpha virt. eigenvalues --   -0.61861  -0.51579  -0.45530  -0.44333  -0.43401
 Alpha virt. eigenvalues --   -0.32575  -0.31391  -0.29852  -0.29589  -0.27662
 Alpha virt. eigenvalues --   -0.25201  -0.24799  -0.22567  -0.22072  -0.20470

 Mulliken charges:
               1
     1  S    0.409997
     2  C    0.236634
     3  C   -0.330602
     4  H    0.295221
     5  H    0.257472
     6  H    0.280680
     7  H    0.282923
     8  H    0.275933
     9  H    0.291743
 Sum of Mulliken charges =   2.00000

 Dipole moment (field-independent basis, Debye):
    X=             -0.8754    Y=              1.5074    Z=             -0.8102  Tot=              1.9222
 Quadrupole moment (field-independent basis, Debye-Ang):
   XX=             -4.0177   YY=            -14.5026   ZZ=            -17.8571
   XY=             -0.4675   XZ=              1.7365   YZ=              1.5890

  Exact polarizability:  52.341   4.475  40.272  -0.923  -1.470  31.914
 Approx polarizability:  79.705  11.818  69.036  -5.285  -3.756  50.338

                      1                      2                      3
                      A                      A                      A
 Frequencies --    149.1677               166.0607               265.9241
 Red. masses --      1.6259                 1.3896                 1.4731
 Frc consts  --      0.0213                 0.0226                 0.0614
 IR Inten    --      7.4653                 6.9809                73.1410

                      4                      5                      6
                      A                      A                      A
 Frequencies --    335.6666               456.8202               540.4788
 Red. masses --      7.2687                 4.0732                 1.2632
 Frc consts  --      0.4825                 0.5008                 0.2174
 IR Inten    --     69.8153                 8.6025                31.7844

                      7                      8                      9
                      A                      A                      A
 Frequencies --    697.6024               783.5482              1032.0591
 Red. masses --      1.0184                 1.0982                 1.2279
 Frc consts  --      0.2920                 0.3972                 0.7706
 IR Inten    --     40.8949                 2.6171                 2.3033

                     10                     11                     12
                      A                      A                      A
 Frequencies --   1056.8210              1089.6305              1144.0237
 Red. masses --      1.2197                 1.1291                 1.0409
 Frc consts  --      0.8026                 0.7898                 0.8026
 IR Inten    --     21.3368                 7.0610                 4.8828

                     13                     14                     15
                      A                      A                      A
 Frequencies --   1338.5326              1404.0085              1414.9823
 Red. masses --      1.1011                 1.0467                 1.0471
 Frc consts  --      1.1624                 1.2156                 1.2352
 IR Inten    --      2.3914                24.1070                17.3544

                     16                     17                     18
                      A                      A                      A
 Frequencies --   2408.3515              2494.2931              2907.6406
 Red. masses --      1.0378                 1.0415                 1.0862
 Frc consts  --      3.5466                 3.8177                 5.4105
 IR Inten    --    154.3669               222.2978                55.7248

                     19                     20                     21
                      A                      A                      A
 Frequencies --   2998.8472              3122.1009              3137.2259
 Red. masses --      1.0212                 1.1130                 1.1148
 Frc consts  --      5.4108                 6.3921                 6.4644
 IR Inten    --    101.8910                79.5379                65.4252

 - Thermochemistry -
 -------------------
 Temperature   298.150 Kelvin.  Pressure   1.00000 Atm.
 Atom     1 has atomic number 16 and mass  31.97207

 Molecular mass:    62.01902 amu.
 Principal axes and moments of inertia in atomic units:
                           1         2         3
     Eigenvalues --   100.43862 272.53025 339.78784
           X            0.99915  -0.03681   0.01868
           Y            0.03643   0.99913   0.02031
           Z           -0.01941  -0.01961   0.99962
 This molecule is an asymmetric top.
 Rotational symmetry number  1.
 Rotational temperatures (Kelvin)      0.86236     0.31781     0.25491
 Rotational constants (GHZ):          17.96860     6.62217     5.31138
 Zero-point vibrational energy     173122.3 (Joules/Mol)
                                   41.37722 (Kcal/Mol)
 Warning -- explicit consideration of   6 degrees of freedom as
           vibrations may cause significant error
 Vibrational temperatures:    214.62   238.92   382.61   482.95   657.26
          (Kelvin)            777.63  1003.69  1127.35  1484.90  1520.53
                             1567.73  1645.99  1925.85  2020.05  2035.84
                             3465.08  3588.73  4183.44  4314.67  4492.00
                             4513.76

 Zero-point correction=                           0.065939 (Hartree/Particle)
 Thermal correction to Energy=                    0.071658
 Thermal correction to Enthalpy=                  0.072602
 Thermal correction to Gibbs Free Energy=         0.038269
 Sum of electronic and zero-point Energies=           -476.984283
 Sum of electronic and thermal Energies=              -476.978564
 Sum of electronic and thermal Enthalpies=            -476.977620
 Sum of electronic and thermal Free Energies=         -477.011952

                     E (Thermal)             CV                S
                      KCal/Mol        Cal/Mol-Kelvin    Cal/Mol-Kelvin
 Total                   44.966             18.644             72.259
 Electronic               0.000              0.000              0.000
 Translational            0.889              2.981             38.294
 Rotational               0.889              2.981             23.746
 Vibrational             43.189             12.682             10.219
 Vibration     1          0.618              1.904              2.683
 Vibration     2          0.624              1.884              2.480
 Vibration     3          0.672              1.736              1.623
 Vibration     4          0.717              1.604              1.233
 Vibration     5          0.815              1.346              0.775
 Vibration     6          0.896              1.161              0.564

 Normal termination of Gaussian 09 at Wed Aug  3 20:46:26 2016.
