 Gaussian 09, Revision E.01,
 Gaussian 09:  EM64L-G09RevE.01 30-Nov-2015

 ------------------------------
 #p b3lyp/6-311++G(3df,2p) freq
 ------------------------------

 ---------
 b3lyp opt
 ---------
 Symbolic Z-matrix:
 Charge =  0 Multiplicity = 1

                         Standard orientation:
 ---------------------------------------------------------------------
 Center     Atomic      Atomic             Coordinates (Angstroms)
 Number     Number       Type             X           Y           Z
 ---------------------------------------------------------------------
      1         16           0        0.124505   -0.502176   -0.067919
      2          6           0        1.388627    0.545304    0.001131
      3          6           0       -1.443988    0.428886   -0.031672
      4          1           0        2.239362    0.244837   -0.586192
      5          1           0       -1.414929    1.167326    0.765914
      6          1           0        1.501222    1.250427    0.809569
      7          1           0       -0.179463   -1.118309    1.141346
      8          1           0       -1.547692    0.923012   -0.993928
      9          1           0       -2.258407   -0.277607    0.133247
 ---------------------------------------------------------------------

 SCF Done:  E(RB3LYP) =  -477.989276768     A.U. after   12 cycles

 The electronic state is 1-A.
 Alpha  occ. eigenvalues --  -88.91461 -10.20007 -10.13840  -7.99354  -5.95541
 Alpha  occ. eigenvalues --   -5.95482  -5.95074  -0.84294  -0.71040  -0.60304
 Alpha  occ. eigenvalues --   -0.47868  -0.45551  -0.43231  -0.40994  -0.39403
 Alpha  occ. eigenvalues --   -0.30598  -0.19268
 Alpha virt. eigenvalues --   -0.02039  -0.00110   0.01076   0.01790   0.03298
 Alpha virt. eigenvalues --    0.03663   0.04957   0.05252   0.06248   0.07483
 Alpha virt. eigenvalues --    0.08967   0.09739   0.10561   0.11137   0.11805

 Mulliken charges:
               1
     1  S    0.150090
     2  C   -0.577185
     3  C   -0.342827
     4  H    0.124322
     5  H    0.171877
     6  H    0.145334
     7  H    0.035201
     8  H    0.143408
     9  H    0.149780
 Sum of Mulliken charges =  -0.00000

 Dipole moment (field-independent basis, Debye):
    X=             -2.1323    Y=             -0.4512    Z=              0.7565  Tot=              2.3071
 Quadrupole moment (field-independent basis, Debye-Ang):
   XX=            -27.8459   YY=            -29.1794   ZZ=            -28.1566
   XY=             -0.8467   XZ=             -0.0432   YZ=              0.6825

  Exact polarizability:  69.942   5.959  54.190  -2.526  -6.103  46.557
 Approx polarizability:  98.608  14.330  84.030  -5.647 -10.508  69.628

                      1                      2                      3
                      A                      A                      A
 Frequencies --    189.0208               205.4028               386.0685
 Red. masses --      2.1356                 1.1191                 1.2521
 Frc consts  --      0.0450                 0.0278                 0.1100
 IR Inten    --     11.2985                 0.5470                48.3530

                      4                      5                      6
                      A                      A                      A
 Frequencies --    483.9082               641.3292               774.0042
 Red. masses --      1.1941                 3.7474                 1.1066
 Frc consts  --      0.1647                 0.9081                 0.3906
 IR Inten    --     65.8328                12.8530                 8.3960

                      7                      8                      9
                      A                      A                      A
 Frequencies --    893.4516               932.1100               969.6919
 Red. masses --      1.1346                 1.2744                 4.0499
 Frc consts  --      0.5336                 0.6524                 2.2437
 IR Inten    --     11.5273                15.1254                51.7328

                     10                     11                     12
                      A                      A                      A
 Frequencies --   1038.1618              1187.2563              1335.0896
 Red. masses --      1.4098                 1.1485                 1.1762
 Frc consts  --      0.8952                 0.9538                 1.2352
 IR Inten    --      6.2339                83.9224                 2.2284

                     13                     14                     15
                      A                      A                      A
 Frequencies --   1410.9384              1453.3810              1475.1129
 Red. masses --      1.1125                 1.0517                 1.0497
 Frc consts  --      1.3048                 1.3089                 1.3457
 IR Inten    --      1.4251                10.3140                 4.8559

                     16                     17                     18
                      A                      A                      A
 Frequencies --   2203.7098              3031.4349              3124.7869
 Red. masses --      1.0375                 1.0305                 1.1033
 Frc consts  --      2.9686                 5.5792                 6.3471
 IR Inten    --    324.8906                16.9576                 7.1323

                     19                     20                     21
                      A                      A                      A
 Frequencies --   3146.8521              3152.8297              3270.2770
 Red. masses --      1.1052                 1.0485                 1.1209
 Frc consts  --      6.4485                 6.1409                 7.0631
 IR Inten    --      3.0068                 1.5502                 0.7672

 - Thermochemistry -
 -------------------
 Temperature   298.150 Kelvin.  Pressure   1.00000 Atm.
 Atom     1 has atomic number 16 and mass  31.97207

 Molecular mass:    62.01902 amu.
 Principal axes and moments of inertia in atomic units:
                           1         2         3
     Eigenvalues --    82.23125 248.50846 301.84186
           X            0.99999   0.00231  -0.00299
           Y           -0.00239   0.99960  -0.02812
           Z            0.00293   0.02813   0.99960
 This molecule is an asymmetric top.
 Rotational symmetry number  1.
 Rotational temperatures (Kelvin)      1.05330     0.34853     0.28695
 Rotational constants (GHZ):          21.94715     7.26229     5.97910
 Zero-point vibrational energy     187244.4 (Joules/Mol)
                                   44.75248 (Kcal/Mol)
 Warning -- explicit consideration of   4 degrees of freedom as
           vibrations may cause significant error
 Vibrational temperatures:    271.96   295.53   555.47   696.24   922.73
          (Kelvin)           1113.62  1285.48  1341.10  1395.17  1493.68
                             1708.19  1920.89  2030.02  2091.09  2122.36
                             3170.64  4361.55  4495.87  4527.61  4536.21
                             4705.19

 Zero-point correction=                           0.071318 (Hartree/Particle)
 Thermal correction to Energy=                    0.076287
 Thermal correction to Enthalpy=                  0.077232
 Thermal correction to Gibbs Free Energy=         0.044521
 Sum of electronic and zero-point Energies=           -477.917959
 Sum of electronic and thermal Energies=              -477.912989
 Sum of electronic and thermal Enthalpies=            -477.912045
 Sum of electronic and thermal Free Energies=         -477.944756

                     E (Thermal)             CV                S
                      KCal/Mol        Cal/Mol-Kelvin    Cal/Mol-Kelvin
 Total                   47.871             16.413             68.846
 Electronic               0.000              0.000              0.000
 Translational            0.889              2.981             38.294
 Rotational               0.889              2.981             23.338
 Vibrational             46.094             10.451              7.214
 Vibration     1          0.633              1.855              2.237
 Vibration     2          0.640              1.832              2.084
 Vibration     3          0.755              1.500              1.015
 Vibration     4          0.840              1.286              0.700

 Normal termination of Gaussian 09 at Wed Aug  3 20:46:33 2016.
