 Gaussian 09, Revision E.01,
 Gaussian 09:  EM64L-G09RevE.01 30-Nov-2015

 ------------------------------
 #p b3lyp/6-311++G(3df,2p) freq
 ------------------------------

 ---------
 b3lyp opt
 ---------
 Symbolic Z-matrix:
 Charge =  2 Multiplicity = 3

                         Standard orientation:
 ---------------------------------------------------------------------
 Center     Atomic      Atomic             Coordinates (Angstroms)
 Number     Number       Type             X           Y           Z
 ---------------------------------------------------------------------
      1         16           0       -0.151843   -0.395979    0.017339
      2          6           0       -1.572167    0.527621   -0.110415
      3          6           0        1.505908    0.438106   -0.013001
      4          1           0       -0.208467   -1.225003    1.120421
      5          1           0        2.216531   -0.396014    0.027034
      6          1           0       -2.005398    1.386495    0.410573
      7          1           0        1.531275    0.994554   -0.953497
      8          1           0        1.525678    1.072438    0.877138
      9          1           0       -0.232571   -1.291159   -1.018594
 ---------------------------------------------------------------------

 SCF Done:  E(UB3LYP) =  -477.065352744     A.U. after   12 cycles

 The electronic state is 3-A.
 Alpha  occ. eigenvalues --  -89.48799 -10.73519 -10.66448  -8.56565  -6.52674
 Alpha  occ. eigenvalues --   -6.52624  -6.52505  -1.38458  -1.19075  -1.11952
 Alpha  occ. eigenvalues --   -1.01155  -0.95986  -0.92853  -0.86869  -0.86495
 Alpha  occ. eigenvalues --   -0.76695  -0.74071
 Alpha virt. eigenvalues --   -0.46877  -0.46319  -0.45483  -0.44709  -0.33301
 Alpha virt. eigenvalues --   -0.31576  -0.31088  -0.28684  -0.27134  -0.26317
 Alpha virt. eigenvalues --   -0.24782  -0.22994  -0.21891  -0.21283  -0.20097

  Beta  occ. eigenvalues --  -89.48843 -10.70587 -10.66287  -8.56571  -6.52684
  Beta  occ. eigenvalues --   -6.52643  -6.52557  -1.36872  -1.16669  -1.08108
  Beta  occ. eigenvalues --   -0.99981  -0.93886  -0.91408  -0.86471  -0.86289
  Beta virt. eigenvalues --   -0.59016  -0.57806  -0.45436  -0.44497  -0.43581
  Beta virt. eigenvalues --   -0.42311  -0.32437  -0.31080  -0.30088  -0.28196
  Beta virt. eigenvalues --   -0.26509  -0.25582  -0.24216  -0.22207  -0.21008

 Mulliken charges and spin densities:
               1          2
     1  S    0.415285   0.129089
     2  C    0.106704   1.699317
     3  C   -0.259288   0.073998
     4  H    0.299110   0.072633
     5  H    0.258965   0.008501
     6  H    0.322594  -0.005389
     7  H    0.272042  -0.002173
     8  H    0.275811  -0.001963
     9  H    0.308776   0.025987
 Sum of Mulliken charges =   2.00000   2.00000

 Dipole moment (field-independent basis, Debye):
    X=             -0.0461    Y=             -0.8237    Z=              0.4688  Tot=              0.9489
 Quadrupole moment (field-independent basis, Debye-Ang):
   XX=             -6.2196   YY=            -12.9423   ZZ=            -17.5526
   XY=             -1.2949   XZ=             -0.8610   YZ=              0.7590

  Exact polarizability:  48.910  -1.800  35.252   0.308  -0.313  29.815
 Approx polarizability:  70.674  -3.235  52.427   1.585  -0.994  45.261

                      1                      2                      3
                      A                      A                      A
 Frequencies --    177.5720               215.2844               244.7865
 Red. masses --      1.0829                 1.3719                 2.6230
 Frc consts  --      0.0201                 0.0375                 0.0926
 IR Inten    --      0.3433                19.0518                24.0830

                      4                      5                      6
                      A                      A                      A
 Frequencies --    449.7700               512.7194               651.8590
 Red. masses --      6.0946                 1.1558                 1.8234
 Frc consts  --      0.7264                 0.1790                 0.4565
 IR Inten    --      4.0529                13.9646                17.9948

                      7                      8                      9
                      A                      A                      A
 Frequencies --    792.4795               849.4874               926.7055
 Red. masses --      1.5803                 1.1946                 1.3382
 Frc consts  --      0.5848                 0.5079                 0.6771
 IR Inten    --     10.5651                 4.4017                 2.6443

                     10                     11                     12
                      A                      A                      A
 Frequencies --   1049.4505              1061.4729              1126.2317
 Red. masses --      1.2324                 1.1889                 1.0360
 Frc consts  --      0.7997                 0.7893                 0.7743
 IR Inten    --     10.0902                 2.8855                 4.4461

                     13                     14                     15
                      A                      A                      A
 Frequencies --   1331.9292              1392.0811              1409.2634
 Red. masses --      1.1043                 1.0476                 1.0471
 Frc consts  --      1.1542                 1.1961                 1.2252
 IR Inten    --      1.5836                24.8322                18.5680

                     16                     17                     18
                      A                      A                      A
 Frequencies --   2374.8815              2464.3422              2985.5043
 Red. masses --      1.0400                 1.0407                 1.0218
 Frc consts  --      3.4559                 3.7238                 5.3658
 IR Inten    --    165.6378               211.2669               113.5634

                     19                     20                     21
                      A                      A                      A
 Frequencies --   3106.6635              3108.3118              3130.6044
 Red. masses --      1.0948                 1.1118                 1.1150
 Frc consts  --      6.2256                 6.3291                 6.4382
 IR Inten    --    228.7745               104.6085                71.6692

 - Thermochemistry -
 -------------------
 Temperature   298.150 Kelvin.  Pressure   1.00000 Atm.
 Atom     1 has atomic number 16 and mass  31.97207

 Molecular mass:    62.01902 amu.
 Principal axes and moments of inertia in atomic units:
                           1         2         3
     Eigenvalues --    80.03882 269.99551 319.32913
           X            0.99992   0.00210  -0.01270
           Y           -0.00165   0.99936   0.03566
           Z            0.01277  -0.03564   0.99928
 This molecule is an asymmetric top.
 Rotational symmetry number  1.
 Rotational temperatures (Kelvin)      1.08215     0.32080     0.27124
 Rotational constants (GHZ):          22.54832     6.68434     5.65166
 Zero-point vibrational energy     175620.2 (Joules/Mol)
                                   41.97423 (Kcal/Mol)
 Warning -- explicit consideration of   5 degrees of freedom as
           vibrations may cause significant error
 Vibrational temperatures:    255.49   309.75   352.19   647.12   737.69
          (Kelvin)            937.88  1140.20  1222.22  1333.32  1509.92
                             1527.22  1620.39  1916.35  2002.89  2027.61
                             3416.92  3545.63  4295.47  4469.79  4472.16
                             4504.24

 Zero-point correction=                           0.066890 (Hartree/Particle)
 Thermal correction to Energy=                    0.072264
 Thermal correction to Enthalpy=                  0.073209
 Thermal correction to Gibbs Free Energy=         0.038707
 Sum of electronic and zero-point Energies=           -476.998463
 Sum of electronic and thermal Energies=              -476.993088
 Sum of electronic and thermal Enthalpies=            -476.992144
 Sum of electronic and thermal Free Energies=         -477.026645

                     E (Thermal)             CV                S
                      KCal/Mol        Cal/Mol-Kelvin    Cal/Mol-Kelvin
 Total                   45.347             17.877             72.614
 Electronic               0.000              0.000              2.183
 Translational            0.889              2.981             38.294
 Rotational               0.889              2.981             23.449
 Vibrational             43.569             11.916              8.688
 Vibration     1          0.628              1.870              2.354
 Vibration     2          0.645              1.818              1.998
 Vibration     3          0.660              1.771              1.768
 Vibration     4          0.809              1.361              0.796
 Vibration     5          0.868              1.222              0.627

 Optimization completed.
    -- Stationary point found.
 Normal termination of Gaussian 09 at Wed Aug  3 20:54:19 2016.
