 Gaussian 09, Revision E.01,
 Gaussian 09:  EM64L-G09RevE.01 30-Nov-2015

 ------------------------------
 #p b3lyp/6-311++G(3df,2p) freq
 ------------------------------

 ---------
 b3lyp opt
 ---------
 Symbolic Z-matrix:
 Charge =  0 Multiplicity = 3

                         Standard orientation:
 ---------------------------------------------------------------------
 Center     Atomic      Atomic             Coordinates (Angstroms)
 Number     Number       Type             X           Y           Z
 ---------------------------------------------------------------------
      1         16           0       -0.000000   -0.000000    0.441715
      2          6           0        0.000000    1.511556   -0.399532
      3          6           0       -0.000000   -1.511556   -0.399532
      4          1           0       -0.946698    1.888165   -0.759339
      5          1           0        0.946698   -1.888165   -0.759339
      6          1           0        0.946698    1.888165   -0.759339
      7          1           0       -0.946698   -1.888165   -0.759339
      8          1           0        1.472175   -0.000000    0.382147
      9          1           0       -1.472175    0.000000    0.382147
 ---------------------------------------------------------------------

 SCF Done:  E(UB3LYP) =  -477.842554997     A.U. after   13 cycles

 The electronic state is 3-B2.
 Alpha  occ. eigenvalues --  -88.94053 -10.20137 -10.20137  -8.01244  -5.97363
 Alpha  occ. eigenvalues --   -5.97344  -5.97266  -0.86094  -0.71485  -0.61564
 Alpha  occ. eigenvalues --   -0.53136  -0.45607  -0.45000  -0.39968  -0.39334
 Alpha  occ. eigenvalues --   -0.27339  -0.24273  -0.19785
 Alpha virt. eigenvalues --   -0.00161   0.00033   0.00869   0.01292   0.04420
 Alpha virt. eigenvalues --    0.04907   0.06081   0.06977   0.07878   0.08240
 Alpha virt. eigenvalues --    0.09803   0.09858   0.10267   0.10420   0.11027

  Beta  occ. eigenvalues --  -88.93949 -10.18981 -10.18980  -8.01100  -5.97312
  Beta  occ. eigenvalues --   -5.97312  -5.96969  -0.84670  -0.68379  -0.58972
  Beta  occ. eigenvalues --   -0.52072  -0.44666  -0.44219  -0.38438  -0.36601
  Beta  occ. eigenvalues --   -0.22916
  Beta virt. eigenvalues --   -0.10985  -0.09490   0.00137   0.00269   0.01328
  Beta virt. eigenvalues --    0.01958   0.04402   0.05159   0.06096   0.07630
  Beta virt. eigenvalues --    0.08472   0.09221   0.10232   0.10355   0.10564

 Mulliken charges and spin densities:
               1          2
     1  S    0.154213  -0.064529
     2  C   -0.270173   0.902716
     3  C   -0.270173   0.902716
     4  H    0.144061  -0.027859
     5  H    0.144061  -0.027859
     6  H    0.144061  -0.027859
     7  H    0.144061  -0.027859
     8  H   -0.095056   0.185267
     9  H   -0.095056   0.185267
 Sum of Mulliken charges =  -0.00000   2.00000

 Dipole moment (field-independent basis, Debye):
    X=             -0.0000    Y=              0.0000    Z=             -0.7590  Tot=              0.7590
 Quadrupole moment (field-independent basis, Debye-Ang):
   XX=            -29.2207   YY=            -27.8037   ZZ=            -29.9456
   XY=              0.0000   XZ=              0.0000   YZ=             -0.0000

  Exact polarizability:  68.294  -0.000  80.462  -0.000  -0.000  46.557
 Approx polarizability: 107.196   0.000 117.299  -0.000  -0.000  68.781

                      1                      2                      3
                     A1                     A2                     B1
 Frequencies --    228.9751               259.4222               400.5432
 Red. masses --      3.0630                 1.0086                 1.0650
 Frc consts  --      0.0946                 0.0400                 0.1007
 IR Inten    --      0.1536                 0.0000                 8.5933

                      4                      5                      6
                     A1                     B2                     B1
 Frequencies --    497.1781               507.3801               622.2870
 Red. masses --      1.3788                 1.3175                 1.0969
 Frc consts  --      0.2008                 0.1998                 0.2503
 IR Inten    --     45.4534                64.6349                25.3703

                      7                      8                      9
                     A1                     B2                     A2
 Frequencies --    745.2638               758.2674               867.6567
 Red. masses --      4.2178                 5.1470                 1.0747
 Frc consts  --      1.3803                 1.7436                 0.4767
 IR Inten    --      0.0754                20.4632                 0.0000

                     10                     11                     12
                     A1                     B1                     A2
 Frequencies --    944.7644              1020.6151              1198.5847
 Red. masses --      1.1195                 1.4151                 1.1182
 Frc consts  --      0.5887                 0.8685                 0.9465
 IR Inten    --     15.1234                 0.0635                 0.0000

                     13                     14                     15
                     B2                     A1                     B2
 Frequencies --   1254.4643              1371.8001              1372.1603
 Red. masses --      1.0522                 1.1309                 1.1218
 Frc consts  --      0.9755                 1.2538                 1.2445
 IR Inten    --     21.3144                 0.6819                 0.4181

                     16                     17                     18
                     B1                     A1                     A1
 Frequencies --   1532.7377              1847.2896              3125.5451
 Red. masses --      1.0676                 1.0088                 1.0456
 Frc consts  --      1.4777                 2.0282                 6.0184
 IR Inten    --   1137.0851                32.2220                 0.3050

                     19                     20                     21
                     B2                     B1                     A2
 Frequencies --   3125.5659              3265.5305              3265.6482
 Red. masses --      1.0461                 1.1223                 1.1242
 Frc consts  --      6.0209                 7.0513                 7.0635
 IR Inten    --      4.4170                 1.7013                 0.0000

 - Thermochemistry -
 -------------------
 Temperature   298.150 Kelvin.  Pressure   1.00000 Atm.
 Atom     1 has atomic number 16 and mass  31.97207

 Molecular mass:    62.01902 amu.
 Principal axes and moments of inertia in atomic units:
                           1         2         3
     Eigenvalues --    73.52231 275.64701 292.16430
           X            0.00000   0.00000   1.00000
           Y            1.00000  -0.00000  -0.00000
           Z            0.00000   1.00000  -0.00000
 This molecule is an asymmetric top.
 Rotational symmetry number  2.
 Rotational temperatures (Kelvin)      1.17806     0.31422     0.29646
 Rotational constants (GHZ):          24.54685     6.54729     6.17714
 Zero-point vibrational energy     168743.3 (Joules/Mol)
                                   40.33062 (Kcal/Mol)
 Warning -- explicit consideration of   5 degrees of freedom as
           vibrations may cause significant error
 Vibrational temperatures:    329.44   373.25   576.29   715.33   730.01
          (Kelvin)            895.33  1072.27  1090.98  1248.36  1359.30
                             1468.44  1724.49  1804.89  1973.71  1974.23
                             2205.26  2657.83  4496.96  4496.99  4698.36
                             4698.53

 Zero-point correction=                           0.064271 (Hartree/Particle)
 Thermal correction to Energy=                    0.069375
 Thermal correction to Enthalpy=                  0.070320
 Thermal correction to Gibbs Free Energy=         0.037242
 Sum of electronic and zero-point Energies=           -477.778284
 Sum of electronic and thermal Energies=              -477.773180
 Sum of electronic and thermal Enthalpies=            -477.772235
 Sum of electronic and thermal Free Energies=         -477.805313

                     E (Thermal)             CV                S
                      KCal/Mol        Cal/Mol-Kelvin    Cal/Mol-Kelvin
 Total                   43.534             17.958             69.619
 Electronic               0.000              0.000              2.183
 Translational            0.889              2.981             38.294
 Rotational               0.889              2.981             21.920
 Vibrational             41.756             11.996              7.222
 Vibration     1          0.652              1.797              1.887
 Vibration     2          0.668              1.747              1.666
 Vibration     3          0.766              1.469              0.961
 Vibration     4          0.853              1.256              0.665
 Vibration     5          0.863              1.234              0.640

 Normal termination of Gaussian 09 at Wed Aug  3 22:58:28 2016.
