 Gaussian 09, Revision E.01,
 Gaussian 09:  EM64L-G09RevE.01 30-Nov-2015

 ------------------------------
 #p b3lyp/6-311++G(3df,2p) freq
 ------------------------------

 ---------
 b3lyp opt
 ---------
 Symbolic Z-matrix:
 Charge =  0 Multiplicity = 2

                         Standard orientation:
 ---------------------------------------------------------------------
 Center     Atomic      Atomic             Coordinates (Angstroms)
 Number     Number       Type             X           Y           Z
 ---------------------------------------------------------------------
      1         16           0       -1.315590   -0.353594   -0.139982
      2         16           0        1.712801    0.266932   -0.067479
      3          6           0       -1.630870    1.207684    0.216544
      4          6           0        0.478215   -0.695969    0.224150
      5          1           0        0.560549   -1.683692    0.675211
 ---------------------------------------------------------------------

 SCF Done:  E(UB3LYP) =  -873.103646086     A.U. after   21 cycles

 The electronic state is 2-A.
 Alpha  occ. eigenvalues --  -88.91587 -88.87912 -10.29170 -10.25692  -8.00127
 Alpha  occ. eigenvalues --   -7.96553  -5.96294  -5.95968  -5.95902  -5.92817
 Alpha  occ. eigenvalues --   -5.92687  -5.91958  -0.87360  -0.80648  -0.65231
 Alpha  occ. eigenvalues --   -0.54156  -0.46956  -0.42494  -0.38199  -0.33225
 Alpha  occ. eigenvalues --   -0.31613  -0.27743  -0.23882
 Alpha virt. eigenvalues --   -0.13929  -0.09116  -0.01212  -0.00210   0.01625
 Alpha virt. eigenvalues --    0.02714   0.03046   0.04595   0.05695   0.06747
 Alpha virt. eigenvalues --    0.07256   0.07948   0.09446   0.09864   0.10405

  Beta  occ. eigenvalues --  -88.91630 -88.87914 -10.28793 -10.24453  -8.00144
  Beta  occ. eigenvalues --   -7.96555  -5.96370  -5.96034  -5.95911  -5.92858
  Beta  occ. eigenvalues --   -5.92676  -5.91935  -0.86532  -0.79819  -0.63893
  Beta  occ. eigenvalues --   -0.52541  -0.46134  -0.41372  -0.37801  -0.32893
  Beta  occ. eigenvalues --   -0.29966  -0.26691
  Beta virt. eigenvalues --   -0.13405  -0.11727  -0.08157  -0.00956   0.00827
  Beta virt. eigenvalues --    0.02039   0.02903   0.03213   0.04774   0.05899
  Beta virt. eigenvalues --    0.06762   0.07463   0.08035   0.09572   0.10202

 Mulliken charges and spin densities:
               1          2
     1  S   -0.011482   0.027015
     2  S   -0.171670   0.013912
     3  C   -0.132726   0.831603
     4  C    0.122154   0.114023
     5  H    0.193723   0.013446
 Sum of Mulliken charges =  -0.00000   1.00000

 Dipole moment (field-independent basis, Debye):
    X=              0.8881    Y=             -2.7747    Z=             -0.0513  Tot=              2.9138
 Quadrupole moment (field-independent basis, Debye-Ang):
   XX=            -41.1962   YY=            -39.3231   ZZ=            -37.1462
   XY=              3.4472   XZ=              0.5382   YZ=             -1.1970

  Exact polarizability:  93.258  -3.429  64.445  -0.726  -0.345  45.128
 Approx polarizability: 159.194   0.222 125.959  -5.202   1.285  75.878

                      1                      2                      3
                      A                      A                      A
 Frequencies --     67.0147               167.2465               343.3364
 Red. masses --      3.7193                11.6692                12.9789
 Frc consts  --      0.0098                 0.1923                 0.9014
 IR Inten    --      1.0764                 9.3823                 2.6138

                      4                      5                      6
                      A                      A                      A
 Frequencies --    477.0336               744.9371               918.5875
 Red. masses --      7.8418                 1.5620                12.4130
 Frc consts  --      1.0514                 0.5107                 6.1712
 IR Inten    --     45.4930                21.0947                66.3428

                      7                      8                      9
                      A                      A                      A
 Frequencies --   1097.1749              1218.2688              3086.0120
 Red. masses --      3.8271                 1.3002                 1.0887
 Frc consts  --      2.7144                 1.1369                 6.1090
 IR Inten    --     51.7874                52.9864                 4.3891

 - Thermochemistry -
 -------------------
 Temperature   298.150 Kelvin.  Pressure   1.00000 Atm.
 Atom     1 has atomic number 16 and mass  31.97207

 Molecular mass:    88.95197 amu.
 Principal axes and moments of inertia in atomic units:
                           1         2         3
     Eigenvalues --   124.27795 665.86492 773.37268
           X            0.99998  -0.00598   0.00229
           Y            0.00606   0.99926  -0.03794
           Z           -0.00206   0.03796   0.99928
 This molecule is an asymmetric top.
 Rotational symmetry number  1.
 Rotational temperatures (Kelvin)      0.69694     0.13008     0.11199
 Rotational constants (GHZ):          14.52181     2.71037     2.33360
 Zero-point vibrational energy      48566.1 (Joules/Mol)
                                   11.60757 (Kcal/Mol)
 Warning -- explicit consideration of   4 degrees of freedom as
           vibrations may cause significant error
 Vibrational temperatures:     96.42   240.63   493.98   686.34  1071.80
          (Kelvin)           1321.64  1578.59  1752.81  4440.08

 Zero-point correction=                           0.018498 (Hartree/Particle)
 Thermal correction to Energy=                    0.023541
 Thermal correction to Enthalpy=                  0.024486
 Thermal correction to Gibbs Free Energy=        -0.011395
 Sum of electronic and zero-point Energies=           -873.085148
 Sum of electronic and thermal Energies=              -873.080105
 Sum of electronic and thermal Enthalpies=            -873.079161
 Sum of electronic and thermal Free Energies=         -873.115041

                     E (Thermal)             CV                S
                      KCal/Mol        Cal/Mol-Kelvin    Cal/Mol-Kelvin
 Total                   14.772             14.401             75.517
 Electronic               0.000              0.000              1.377
 Translational            0.889              2.981             39.369
 Rotational               0.889              2.981             25.662
 Vibrational             12.995              8.439              9.108
 Vibration     1          0.598              1.970              4.239
 Vibration     2          0.624              1.883              2.466
 Vibration     3          0.722              1.589              1.197
 Vibration     4          0.834              1.301              0.718

 Normal termination of Gaussian 09 at Wed Aug  3 20:53:51 2016.
