 Gaussian 09, Revision E.01,
 Gaussian 09:  EM64L-G09RevE.01 30-Nov-2015

 ------------------------------
 #p b3lyp/6-311++G(3df,2p) freq
 ------------------------------

 ---------
 b3lyp opt
 ---------
 Symbolic Z-matrix:
 Charge =  0 Multiplicity = 2

                         Standard orientation:
 ---------------------------------------------------------------------
 Center     Atomic      Atomic             Coordinates (Angstroms)
 Number     Number       Type             X           Y           Z
 ---------------------------------------------------------------------
      1         16           0        1.865613   -0.058175   -0.000838
      2         16           0       -1.126453   -0.468945    0.000753
      3          6           0       -2.386526    0.577160   -0.002345
      4          6           0        0.390841    0.558708    0.001885
      5          1           0        0.147556    1.618701    0.004121
 ---------------------------------------------------------------------

 SCF Done:  E(UB3LYP) =  -873.109339256     A.U. after   19 cycles

 The electronic state is 2-A.
 Alpha  occ. eigenvalues --  -88.92118 -88.88131 -10.29469 -10.25923  -8.00640
 Alpha  occ. eigenvalues --   -7.96776  -5.96804  -5.96495  -5.96404  -5.93013
 Alpha  occ. eigenvalues --   -5.92927  -5.92193  -0.88060  -0.81045  -0.64014
 Alpha  occ. eigenvalues --   -0.57057  -0.44685  -0.43405  -0.39801  -0.32781
 Alpha  occ. eigenvalues --   -0.32359  -0.28224  -0.24285
 Alpha virt. eigenvalues --   -0.14243  -0.09032  -0.00752   0.00136   0.01267
 Alpha virt. eigenvalues --    0.02092   0.03573   0.03607   0.05731   0.06589
 Alpha virt. eigenvalues --    0.06758   0.08528   0.08815   0.09287   0.10588

  Beta  occ. eigenvalues --  -88.92161 -88.88126 -10.29115 -10.24670  -8.00658
  Beta  occ. eigenvalues --   -7.96772  -5.96875  -5.96566  -5.96414  -5.93064
  Beta  occ. eigenvalues --   -5.92891  -5.92158  -0.87239  -0.80207  -0.62651
  Beta  occ. eigenvalues --   -0.55626  -0.44199  -0.41822  -0.39576  -0.32606
  Beta  occ. eigenvalues --   -0.30520  -0.27069
  Beta virt. eigenvalues --   -0.13561  -0.12101  -0.08165  -0.00328   0.00903
  Beta virt. eigenvalues --    0.01504   0.02472   0.03596   0.03901   0.05855
  Beta virt. eigenvalues --    0.06576   0.07002   0.08567   0.08959   0.09547

 Mulliken charges and spin densities:
               1          2
     1  S   -0.283322   0.009771
     2  S   -0.010077   0.018039
     3  C   -0.133276   0.849400
     4  C    0.211216   0.108635
     5  H    0.215459   0.014155
 Sum of Mulliken charges =  -0.00000   1.00000

 Dipole moment (field-independent basis, Debye):
    X=              1.6007    Y=             -0.1992    Z=              0.0071  Tot=              1.6131
 Quadrupole moment (field-independent basis, Debye-Ang):
   XX=            -46.0824   YY=            -38.1683   ZZ=            -37.0266
   XY=              2.6861   XZ=             -0.0141   YZ=              0.0064

  Exact polarizability: 110.990  -7.389  56.076   0.006   0.003  43.607
 Approx polarizability: 206.253 -28.127  94.621  -0.001  -0.006  72.546

                      1                      2                      3
                      A                      A                      A
 Frequencies --     74.7728               208.7754               290.2863
 Red. masses --      5.0192                12.0326                18.1391
 Frc consts  --      0.0165                 0.3090                 0.9006
 IR Inten    --     12.5707                20.0303                11.3100

                      4                      5                      6
                      A                      A                      A
 Frequencies --    583.0343               783.0543               917.1981
 Red. masses --      9.2450                 1.4002                13.6543
 Frc consts  --      1.8516                 0.5058                 6.7678
 IR Inten    --     45.7435                19.1538                99.6801

                      7                      8                      9
                      A                      A                      A
 Frequencies --   1086.8296              1224.6495              3107.5363
 Red. masses --      3.5306                 1.3311                 1.0903
 Frc consts  --      2.4571                 1.1762                 6.2037
 IR Inten    --     52.2653                78.6397                 0.0663

 - Thermochemistry -
 -------------------
 Temperature   298.150 Kelvin.  Pressure   1.00000 Atm.
 Atom     1 has atomic number 16 and mass  31.97207

 Molecular mass:    88.95197 amu.
 Principal axes and moments of inertia in atomic units:
                           1         2         3
     Eigenvalues --    62.47384 792.95390 855.42658
           X            1.00000   0.00123   0.00000
           Y           -0.00123   1.00000   0.00038
           Z           -0.00000  -0.00038   1.00000
 This molecule is an asymmetric top.
 Rotational symmetry number  1.
 Rotational temperatures (Kelvin)      1.38640     0.10923     0.10125
 Rotational constants (GHZ):          28.88795     2.27597     2.10976
 Zero-point vibrational energy      49502.3 (Joules/Mol)
                                   11.83133 (Kcal/Mol)
 Warning -- explicit consideration of   4 degrees of freedom as
           vibrations may cause significant error
 Vibrational temperatures:    107.58   300.38   417.66   838.86  1126.64
          (Kelvin)           1319.64  1563.70  1762.00  4471.05

 Zero-point correction=                           0.018854 (Hartree/Particle)
 Thermal correction to Energy=                    0.023796
 Thermal correction to Enthalpy=                  0.024740
 Thermal correction to Gibbs Free Energy=        -0.010650
 Sum of electronic and zero-point Energies=           -873.090485
 Sum of electronic and thermal Energies=              -873.085544
 Sum of electronic and thermal Enthalpies=            -873.084599
 Sum of electronic and thermal Free Energies=         -873.119989

                     E (Thermal)             CV                S
                      KCal/Mol        Cal/Mol-Kelvin    Cal/Mol-Kelvin
 Total                   14.932             14.152             74.484
 Electronic               0.000              0.000              1.377
 Translational            0.889              2.981             39.369
 Rotational               0.889              2.981             25.253
 Vibrational             13.155              8.190              8.485
 Vibration     1          0.599              1.966              4.024
 Vibration     2          0.642              1.827              2.054
 Vibration     3          0.686              1.692              1.472
 Vibration     4          0.940              1.068              0.480

 Normal termination of Gaussian 09 at Wed Aug  3 20:53:26 2016.
