 Gaussian 09, Revision E.01,
 Gaussian 09:  EM64L-G09RevE.01 30-Nov-2015

 ------------------------------
 #p b3lyp/6-311++G(3df,2p) freq
 ------------------------------

 ---------
 b3lyp opt
 ---------
 Symbolic Z-matrix:
 Charge =  1 Multiplicity = 3

                         Standard orientation:
 ---------------------------------------------------------------------
 Center     Atomic      Atomic             Coordinates (Angstroms)
 Number     Number       Type             X           Y           Z
 ---------------------------------------------------------------------
      1         16           0        1.358645   -0.310298   -0.000214
      2         16           0       -1.631093    0.212131   -0.000128
      3          6           0        1.182866    1.348085    0.000377
      4          6           0       -0.365833   -0.776492    0.000354
      5          1           0       -0.543030   -1.858883    0.001089
 ---------------------------------------------------------------------

 SCF Done:  E(UB3LYP) =  -872.756574277     A.U. after   20 cycles

 The electronic state is 3-A.
 Alpha  occ. eigenvalues --  -89.17743 -89.14632 -10.53085 -10.48637  -8.25929
 Alpha  occ. eigenvalues --   -8.22975  -6.22607  -6.21770  -6.21699  -6.19374
 Alpha  occ. eigenvalues --   -6.18731  -6.18670  -1.12682  -1.04525  -0.89272
 Alpha  occ. eigenvalues --   -0.77109  -0.72190  -0.66378  -0.62866  -0.55606
 Alpha  occ. eigenvalues --   -0.54876  -0.52974  -0.46586
 Alpha virt. eigenvalues --   -0.37429  -0.29576  -0.22031  -0.17348  -0.15820
 Alpha virt. eigenvalues --   -0.14433  -0.12779  -0.10857  -0.10814  -0.07996
 Alpha virt. eigenvalues --   -0.07096  -0.06935  -0.06874  -0.05115  -0.03624

  Beta  occ. eigenvalues --  -89.17162 -89.14607 -10.52896 -10.47033  -8.25399
  Beta  occ. eigenvalues --   -8.22934  -6.21451  -6.21315  -6.20846  -6.19208
  Beta  occ. eigenvalues --   -6.18769  -6.18668  -1.11039  -1.02319  -0.86532
  Beta  occ. eigenvalues --   -0.74197  -0.70073  -0.64120  -0.62406  -0.54098
  Beta  occ. eigenvalues --   -0.50264
  Beta virt. eigenvalues --   -0.42731  -0.36444  -0.31975  -0.28360  -0.19971
  Beta virt. eigenvalues --   -0.16808  -0.14721  -0.13346  -0.12205  -0.10770
  Beta virt. eigenvalues --   -0.10486  -0.07418  -0.06892  -0.06334  -0.06123

 Mulliken charges and spin densities:
               1          2
     1  S    0.070233   0.093548
     2  S    0.310996   0.880481
     3  C    0.102361   0.968911
     4  C    0.267131   0.002086
     5  H    0.249279   0.054974
 Sum of Mulliken charges =   1.00000   2.00000

 Dipole moment (field-independent basis, Debye):
    X=             -1.8180    Y=             -2.3926    Z=              0.0000  Tot=              3.0049
 Quadrupole moment (field-independent basis, Debye-Ang):
   XX=            -22.5063   YY=            -30.6822   ZZ=            -33.7337
   XY=             -0.8729   XZ=             -0.0012   YZ=             -0.0037

  Exact polarizability:  88.065   9.543  59.629   0.000  -0.001  35.431
 Approx polarizability: 180.053  16.871 123.101   0.012   0.006  59.269

                      1                      2                      3
                      A                      A                      A
 Frequencies --    106.3516               153.8979               389.6285
 Red. masses --      3.3962                14.0960                15.0042
 Frc consts  --      0.0226                 0.1967                 1.3420
 IR Inten    --      0.3868                19.5247                31.4094

                      4                      5                      6
                      A                      A                      A
 Frequencies --    526.8971               708.4321               798.4955
 Red. masses --     10.5669                 1.4994                11.4931
 Frc consts  --      1.7284                 0.4434                 4.3175
 IR Inten    --     21.3110                17.5912                16.5826

                      7                      8                      9
                      A                      A                      A
 Frequencies --   1009.4702              1153.1069              3033.5875
 Red. masses --      1.9746                 1.9221                 1.0841
 Frc consts  --      1.1856                 1.5058                 5.8778
 IR Inten    --     26.2879                12.2228                49.0624

 - Thermochemistry -
 -------------------
 Temperature   298.150 Kelvin.  Pressure   1.00000 Atm.
 Atom     1 has atomic number 16 and mass  31.97207

 Molecular mass:    88.95197 amu.
 Principal axes and moments of inertia in atomic units:
                           1         2         3
     Eigenvalues --   132.11779 581.28408 713.40183
           X            0.99997   0.00788  -0.00000
           Y           -0.00788   0.99997  -0.00005
           Z            0.00000   0.00005   1.00000
 This molecule is an asymmetric top.
 Rotational symmetry number  1.
 Rotational temperatures (Kelvin)      0.65558     0.14900     0.12141
 Rotational constants (GHZ):          13.66009     3.10475     2.52977
 Zero-point vibrational energy      47132.1 (Joules/Mol)
                                   11.26484 (Kcal/Mol)
 Warning -- explicit consideration of   4 degrees of freedom as
           vibrations may cause significant error
 Vibrational temperatures:    153.02   221.42   560.59   758.09  1019.27
          (Kelvin)           1148.86  1452.40  1659.06  4364.65

 Zero-point correction=                           0.017952 (Hartree/Particle)
 Thermal correction to Energy=                    0.022912
 Thermal correction to Enthalpy=                  0.023856
 Thermal correction to Gibbs Free Energy=        -0.011902
 Sum of electronic and zero-point Energies=           -872.738623
 Sum of electronic and thermal Energies=              -872.733663
 Sum of electronic and thermal Enthalpies=            -872.732718
 Sum of electronic and thermal Free Energies=         -872.768476

                     E (Thermal)             CV                S
                      KCal/Mol        Cal/Mol-Kelvin    Cal/Mol-Kelvin
 Total                   14.377             14.558             75.259
 Electronic               0.000              0.000              2.183
 Translational            0.889              2.981             39.369
 Rotational               0.889              2.981             25.508
 Vibrational             12.600              8.596              8.199
 Vibration     1          0.605              1.944              3.334
 Vibration     2          0.619              1.898              2.623
 Vibration     3          0.758              1.492              1.002
 Vibration     4          0.882              1.190              0.594

 Optimization completed.
    -- Stationary point found.
 Normal termination of Gaussian 09 at Wed Aug  3 20:13:23 2016.
