 Gaussian 09, Revision E.01,
 Gaussian 09:  EM64L-G09RevE.01 30-Nov-2015

 ------------------------------
 #p b3lyp/6-311++G(3df,2p) freq
 ------------------------------

 ---------
 b3lyp opt
 ---------
 Symbolic Z-matrix:
 Charge =  0 Multiplicity = 4

                         Standard orientation:
 ---------------------------------------------------------------------
 Center     Atomic      Atomic             Coordinates (Angstroms)
 Number     Number       Type             X           Y           Z
 ---------------------------------------------------------------------
      1         16           0       -0.634612   -0.720727    0.000000
      2          6           0        1.321651    1.079761   -0.000000
      3          6           0        0.000000    0.764266   -0.000000
      4          1           0        2.223879    0.467469   -0.000000
 ---------------------------------------------------------------------

 SCF Done:  E(UB3LYP) =  -474.867485656     A.U. after   15 cycles

 The electronic state is 4-A".
 Alpha  occ. eigenvalues --  -88.89881 -10.25158 -10.24037  -7.98318  -5.94607
 Alpha  occ. eigenvalues --   -5.94425  -5.94265  -0.85487  -0.73429  -0.55530
 Alpha  occ. eigenvalues --   -0.45960  -0.39499  -0.38672  -0.28056  -0.28020
 Alpha  occ. eigenvalues --   -0.21671
 Alpha virt. eigenvalues --   -0.04341   0.00163   0.02082   0.02904   0.04861
 Alpha virt. eigenvalues --    0.04904   0.07180   0.08361   0.09123   0.11322
 Alpha virt. eigenvalues --    0.11550   0.12453   0.13016   0.14409   0.15057

  Beta  occ. eigenvalues --  -88.89184 -10.23045 -10.22837  -7.97682  -5.93752
  Beta  occ. eigenvalues --   -5.93413  -5.93207  -0.82145  -0.67875  -0.51912
  Beta  occ. eigenvalues --   -0.43009  -0.34207  -0.32173
  Beta virt. eigenvalues --   -0.16275  -0.14419  -0.07445  -0.00409   0.00718
  Beta virt. eigenvalues --    0.02590   0.03360   0.05623   0.05672   0.08016
  Beta virt. eigenvalues --    0.09221   0.09572   0.12000   0.12137   0.13515

 Mulliken charges and spin densities:
               1          2
     1  S   -0.013943   1.049566
     2  C   -0.049629   1.464490
     3  C   -0.100607   0.400462
     4  H    0.164179   0.085482
 Sum of Mulliken charges =  -0.00000   3.00000

 Dipole moment (field-independent basis, Debye):
    X=              0.9555    Y=             -0.9354    Z=             -0.0000  Tot=              1.3372
 Quadrupole moment (field-independent basis, Debye-Ang):
   XX=            -22.8456   YY=            -26.6497   ZZ=            -24.9964
   XY=              0.5848   XZ=              0.0000   YZ=              0.0000

  Exact polarizability:  56.834  16.885  56.957  -0.000   0.000  31.008
 Approx polarizability:  95.755  41.449 108.248  -0.000  -0.000  46.386

                      1                      2                      3
                     A'                     A"                     A'
 Frequencies --    348.3884               736.7361               917.0626
 Red. masses --      4.0279                 1.5000                 2.3284
 Frc consts  --      0.2880                 0.4797                 1.1537
 IR Inten    --      8.0464                 7.7357                 2.8328

                      4                      5                      6
                     A'                     A'                     A'
 Frequencies --    958.5769              1391.3600              3070.7698
 Red. masses --      2.4247                 9.6549                 1.0897
 Frc consts  --      1.3127                11.0122                 6.0540
 IR Inten    --     22.1173                32.1770                23.9134

 - Thermochemistry -
 -------------------
 Temperature   298.150 Kelvin.  Pressure   1.00000 Atm.
 Atom     1 has atomic number 16 and mass  31.97207

 Molecular mass:    56.97990 amu.
 Principal axes and moments of inertia in atomic units:
                           1         2         3
     Eigenvalues --    19.63687 253.77094 273.40782
           X            0.71201  -0.70217   0.00000
           Y            0.70217   0.71201   0.00000
           Z           -0.00000  -0.00000   1.00000
 This molecule is an asymmetric top.
 Rotational symmetry number  1.
 Rotational temperatures (Kelvin)      4.41077     0.34131     0.31679
 Rotational constants (GHZ):          91.90573     7.11169     6.60091
 Zero-point vibrational energy      44398.8 (Joules/Mol)
                                   10.61156 (Kcal/Mol)
 Warning -- explicit consideration of   1 degrees of freedom as
           vibrations may cause significant error
 Vibrational temperatures:    501.25  1060.00  1319.45  1379.18  2001.85
          (Kelvin)           4418.15

 Zero-point correction=                           0.016911 (Hartree/Particle)
 Thermal correction to Energy=                    0.020307
 Thermal correction to Enthalpy=                  0.021251
 Thermal correction to Gibbs Free Energy=        -0.009316
 Sum of electronic and zero-point Energies=           -474.850575
 Sum of electronic and thermal Energies=              -474.847179
 Sum of electronic and thermal Enthalpies=            -474.846235
 Sum of electronic and thermal Free Energies=         -474.876801

                     E (Thermal)             CV                S
                      KCal/Mol        Cal/Mol-Kelvin    Cal/Mol-Kelvin
 Total                   12.743              9.312             64.332
 Electronic               0.000              0.000              2.755
 Translational            0.889              2.981             38.041
 Rotational               0.889              2.981             21.837
 Vibrational             10.965              3.350              1.698
 Vibration     1          0.726              1.579              1.173

 Optimization completed.
    -- Stationary point found.
 Normal termination of Gaussian 09 at Wed Aug  3 23:05:03 2016.
