 Gaussian 09, Revision E.01,
 Gaussian 09:  EM64L-G09RevE.01 30-Nov-2015

 ------------------------------
 #p b3lyp/6-311++G(3df,2p) freq
 ------------------------------

 ---------
 b3lyp opt
 ---------
 Symbolic Z-matrix:
 Charge =  1 Multiplicity = 3

                         Standard orientation:
 ---------------------------------------------------------------------
 Center     Atomic      Atomic             Coordinates (Angstroms)
 Number     Number       Type             X           Y           Z
 ---------------------------------------------------------------------
      1         16           0       -0.000000    1.341566    0.049666
      2         16           0       -0.000000   -1.341566    0.049666
      3          6           0        0.000000    0.000000    1.120376
      4          6           0        0.000000   -0.000000   -1.032424
      5          1           0        0.000000   -0.000000   -2.117034
 ---------------------------------------------------------------------

 SCF Done:  E(UB3LYP) =  -872.813721828     A.U. after   15 cycles

 The electronic state is 3-B1.
 Alpha  occ. eigenvalues --  -89.15543 -89.15543 -10.53384 -10.51184  -8.23794
 Alpha  occ. eigenvalues --   -8.23792  -6.20138  -6.20138  -6.19695  -6.19694
 Alpha  occ. eigenvalues --   -6.19381  -6.19381  -1.18157  -0.99667  -0.93171
 Alpha  occ. eigenvalues --   -0.75899  -0.72288  -0.71089  -0.66751  -0.58603
 Alpha  occ. eigenvalues --   -0.54917  -0.51053  -0.49598
 Alpha virt. eigenvalues --   -0.31995  -0.29436  -0.18811  -0.18546  -0.15669
 Alpha virt. eigenvalues --   -0.13880  -0.12016  -0.10850  -0.09151  -0.08511
 Alpha virt. eigenvalues --   -0.06759  -0.06388  -0.05944  -0.04434  -0.04329

  Beta  occ. eigenvalues --  -89.15570 -89.15570 -10.50813 -10.50119  -8.23807
  Beta  occ. eigenvalues --   -8.23804  -6.20061  -6.20061  -6.19738  -6.19737
  Beta  occ. eigenvalues --   -6.19516  -6.19515  -1.16046  -0.99286  -0.88882
  Beta  occ. eigenvalues --   -0.73411  -0.70121  -0.69548  -0.63149  -0.58062
  Beta  occ. eigenvalues --   -0.51608
  Beta virt. eigenvalues --   -0.37761  -0.35922  -0.27865  -0.27294  -0.18210
  Beta virt. eigenvalues --   -0.17159  -0.15434  -0.13616  -0.11231  -0.10594
  Beta virt. eigenvalues --   -0.09070  -0.07465  -0.06393  -0.06363  -0.04931

 Mulliken charges and spin densities:
               1          2
     1  S   -0.003706  -0.016799
     2  S   -0.003706  -0.016799
     3  C    0.445390   1.397591
     4  C    0.296222   0.616128
     5  H    0.265800   0.019879
 Sum of Mulliken charges =   1.00000   2.00000

 Dipole moment (field-independent basis, Debye):
    X=             -0.0000    Y=              0.0000    Z=             -1.1658  Tot=              1.1658
 Quadrupole moment (field-independent basis, Debye-Ang):
   XX=            -34.7734   YY=            -25.3708   ZZ=            -25.9277
   XY=              0.0000   XZ=             -0.0000   YZ=             -0.0000

  Exact polarizability:  32.906  -0.000  63.738  -0.000   0.000  48.554
 Approx polarizability:  53.514   0.000 133.546  -0.000  -0.000 102.414

                      1                      2                      3
                     B1                     A1                     A1
 Frequencies --    412.0973               548.6049               633.5024
 Red. masses --     12.2574                23.9958                10.6856
 Frc consts  --      1.2264                 4.2550                 2.5267
 IR Inten    --      1.2151                 0.0233                 1.6152

                      4                      5                      6
                     B1                     B2                     B2
 Frequencies --    660.6511               747.4036               858.7694
 Red. masses --      1.1906                 5.4574                 5.5936
 Frc consts  --      0.3062                 1.7961                 2.4305
 IR Inten    --     38.1074                 6.6132                35.8308

                      7                      8                      9
                     A1                     B2                     A1
 Frequencies --    933.5748              1127.9379              3175.8813
 Red. masses --      8.7255                 1.3660                 1.0924
 Frc consts  --      4.4806                 1.0239                 6.4920
 IR Inten    --      0.1645                 0.0477                77.3876

 - Thermochemistry -
 -------------------
 Temperature   298.150 Kelvin.  Pressure   1.00000 Atm.
 Atom     1 has atomic number 16 and mass  31.97207

 Molecular mass:    88.95197 amu.
 Principal axes and moments of inertia in atomic units:
                           1         2         3
     Eigenvalues --   115.98416 410.98151 526.96567
           X            0.00000   0.00000   1.00000
           Y            1.00000   0.00000  -0.00000
           Z           -0.00000   1.00000  -0.00000
 This molecule is an asymmetric top.
 Rotational symmetry number  2.
 Rotational temperatures (Kelvin)      0.74677     0.21075     0.16436
 Rotational constants (GHZ):          15.56024     4.39130     3.42478
 Zero-point vibrational energy      54420.7 (Joules/Mol)
                                   13.00685 (Kcal/Mol)
 Warning -- explicit consideration of   2 degrees of freedom as
           vibrations may cause significant error
 Vibrational temperatures:    592.92   789.32   911.47   950.53  1075.35
          (Kelvin)           1235.58  1343.20  1622.85  4569.38

 Zero-point correction=                           0.020728 (Hartree/Particle)
 Thermal correction to Energy=                    0.024548
 Thermal correction to Enthalpy=                  0.025493
 Thermal correction to Gibbs Free Energy=        -0.006685
 Sum of electronic and zero-point Energies=           -872.792994
 Sum of electronic and thermal Energies=              -872.789173
 Sum of electronic and thermal Enthalpies=            -872.788229
 Sum of electronic and thermal Free Energies=         -872.820406

                     E (Thermal)             CV                S
                      KCal/Mol        Cal/Mol-Kelvin    Cal/Mol-Kelvin
 Total                   15.404             12.429             67.723
 Electronic               0.000              0.000              2.183
 Translational            0.889              2.981             39.369
 Rotational               0.889              2.981             23.356
 Vibrational             13.627              6.468              2.815
 Vibration     1          0.776              1.444              0.919
 Vibration     2          0.904              1.143              0.547

 Optimization completed.
    -- Stationary point found.
 Normal termination of Gaussian 09 at Wed Aug  3 23:02:52 2016.
