 Gaussian 09, Revision E.01,
 Gaussian 09:  EM64L-G09RevE.01 30-Nov-2015

 ------------------------------
 #p b3lyp/6-311++G(3df,2p) freq
 ------------------------------

 ---------
 b3lyp opt
 ---------
 Symbolic Z-matrix:
 Charge =  1 Multiplicity = 1

                         Standard orientation:
 ---------------------------------------------------------------------
 Center     Atomic      Atomic             Coordinates (Angstroms)
 Number     Number       Type             X           Y           Z
 ---------------------------------------------------------------------
      1         16           0        0.911184   -0.097641    0.000013
      2          6           0       -0.657750    0.065853   -0.000094
      3          6           0       -1.987653   -0.008824    0.000052
      4          1           0        1.293479    1.220087    0.000049
 ---------------------------------------------------------------------

 SCF Done:  E(RB3LYP) =  -474.509241482     A.U. after   14 cycles

 The electronic state is 1-A.
 Alpha  occ. eigenvalues --  -89.23977 -10.53512 -10.51800  -8.32055  -6.28165
 Alpha  occ. eigenvalues --   -6.28159  -6.27741  -1.14883  -1.01583  -0.82294
 Alpha  occ. eigenvalues --   -0.71052  -0.65450  -0.56252  -0.56017
 Alpha virt. eigenvalues --   -0.46761  -0.30148  -0.25617  -0.23284  -0.21676
 Alpha virt. eigenvalues --   -0.15743  -0.11878  -0.11242  -0.10986  -0.08717
 Alpha virt. eigenvalues --   -0.07075  -0.06341  -0.05812  -0.04594  -0.01851

 Mulliken charges:
               1
     1  S    0.171160
     2  C    0.435565
     3  C    0.151613
     4  H    0.241663
 Sum of Mulliken charges =   1.00000

 Dipole moment (field-independent basis, Debye):
    X=              2.6549    Y=              0.9629    Z=             -0.0002  Tot=              2.8241
 Quadrupole moment (field-independent basis, Debye-Ang):
   XX=            -16.4143   YY=            -20.3552   ZZ=            -20.1968
   XY=              1.6548   XZ=              0.0009   YZ=              0.0001

  Exact polarizability:  59.568   2.299  27.229   0.002  -0.000  25.631
 Approx polarizability: 132.607   3.507  41.970   0.004  -0.000  40.288

                      1                      2                      3
                      A                      A                      A
 Frequencies --    112.6812               217.6691               816.3989
 Red. masses --      7.2428                 7.0016                14.8326
 Frc consts  --      0.0542                 0.1955                 5.8247
 IR Inten    --      8.5067                 1.9870                19.0103

                      4                      5                      6
                      A                      A                      A
 Frequencies --    994.2696              1762.2252              2473.4149
 Red. masses --      1.1350                11.7579                 1.0399
 Frc consts  --      0.6611                21.5130                 3.7483
 IR Inten    --     10.5640               308.7870                50.1290

 - Thermochemistry -
 -------------------
 Temperature   298.150 Kelvin.  Pressure   1.00000 Atm.
 Atom     1 has atomic number 16 and mass  31.97207

 Molecular mass:    56.97990 amu.
 Principal axes and moments of inertia in atomic units:
                           1         2         3
     Eigenvalues --     6.42935 288.66327 295.09262
           X            0.99980   0.02014   0.00000
           Y           -0.02014   0.99980   0.00003
           Z           -0.00000  -0.00003   1.00000
 This molecule is an asymmetric top.
 Rotational symmetry number  1.
 Rotational temperatures (Kelvin)     13.47162     0.30005     0.29351
 Rotational constants (GHZ):         280.70331     6.25206     6.11585
 Zero-point vibrational energy      38140.9 (Joules/Mol)
                                    9.11589 (Kcal/Mol)
 Warning -- explicit consideration of   2 degrees of freedom as
           vibrations may cause significant error
 Vibrational temperatures:    162.12   313.18  1174.61  1430.53  2535.45
          (Kelvin)           3558.69

 Zero-point correction=                           0.014527 (Hartree/Particle)
 Thermal correction to Energy=                    0.018717
 Thermal correction to Enthalpy=                  0.019661
 Thermal correction to Gibbs Free Energy=        -0.010970
 Sum of electronic and zero-point Energies=           -474.494714
 Sum of electronic and thermal Energies=              -474.490524
 Sum of electronic and thermal Enthalpies=            -474.489580
 Sum of electronic and thermal Free Energies=         -474.520211

                     E (Thermal)             CV                S
                      KCal/Mol        Cal/Mol-Kelvin    Cal/Mol-Kelvin
 Total                   11.745             10.753             64.468
 Electronic               0.000              0.000              0.000
 Translational            0.889              2.981             38.041
 Rotational               0.889              2.981             20.932
 Vibrational              9.968              4.792              5.495
 Vibration     1          0.607              1.939              3.222
 Vibration     2          0.646              1.814              1.978

 Optimization completed.
    -- Stationary point found.
 Normal termination of Gaussian 09 at Wed Aug  3 20:19:53 2016.
