 Gaussian 09, Revision E.01,
 Gaussian 09:  EM64L-G09RevE.01 30-Nov-2015

 ------------------------------
 #p b3lyp/6-311++G(3df,2p) freq
 ------------------------------

 ---------
 b3lyp opt
 ---------
 Symbolic Z-matrix:
 Charge =  1 Multiplicity = 3

                         Standard orientation:
 ---------------------------------------------------------------------
 Center     Atomic      Atomic             Coordinates (Angstroms)
 Number     Number       Type             X           Y           Z
 ---------------------------------------------------------------------
      1         16           0       -0.000000   -0.000000    0.297316
      2          6           0        0.000000    1.506787   -0.536036
      3          6           0       -0.000000   -1.506787   -0.536036
      4          1           0       -0.000000   -0.000000    1.675386
 ---------------------------------------------------------------------

 SCF Done:  E(UB3LYP) =  -474.330810507     A.U. after   14 cycles

 The electronic state is 3-A2.
 Alpha  occ. eigenvalues --  -89.23614 -10.58002 -10.58001  -8.31958  -6.28046
 Alpha  occ. eigenvalues --   -6.27980  -6.27681  -1.16107  -0.96935  -0.87109
 Alpha  occ. eigenvalues --   -0.65970  -0.65221  -0.60960  -0.54059  -0.51701
 Alpha virt. eigenvalues --   -0.44224  -0.37591  -0.30013  -0.21283  -0.19426
 Alpha virt. eigenvalues --   -0.13956  -0.12351  -0.09611  -0.09218  -0.07816
 Alpha virt. eigenvalues --   -0.07358  -0.06423  -0.05511  -0.05369  -0.02622

  Beta  occ. eigenvalues --  -89.23777 -10.56526 -10.56525  -8.32062  -6.28134
  Beta  occ. eigenvalues --   -6.28085  -6.28051  -1.14470  -0.92083  -0.84280
  Beta  occ. eigenvalues --   -0.64353  -0.63358  -0.57742
  Beta virt. eigenvalues --   -0.42073  -0.39140  -0.38774  -0.31423  -0.28714
  Beta virt. eigenvalues --   -0.18784  -0.18600  -0.13254  -0.12280  -0.09004
  Beta virt. eigenvalues --   -0.08262  -0.07016  -0.06597  -0.06107  -0.05187

 Mulliken charges and spin densities:
               1          2
     1  S    0.230122   0.027400
     2  C    0.265566   0.931309
     3  C    0.265566   0.931309
     4  H    0.238746   0.109982
 Sum of Mulliken charges =   1.00000   2.00000

 Dipole moment (field-independent basis, Debye):
    X=             -0.0000    Y=              0.0000    Z=              2.4453  Tot=              2.4453
 Quadrupole moment (field-independent basis, Debye-Ang):
   XX=            -22.5723   YY=            -19.1950   ZZ=            -17.3588
   XY=             -0.0000   XZ=              0.0000   YZ=             -0.0000

  Exact polarizability:  25.491  -0.000  77.382   0.000   0.000  36.238
 Approx polarizability:  41.531   0.000 235.979   0.000   0.000  61.821

                      1                      2                      3
                     A1                     B1                     B2
 Frequencies --    172.7921               190.5354               256.3717
 Red. masses --     12.6660                 1.3252                 8.7648
 Frc consts  --      0.2228                 0.0283                 0.3394
 IR Inten    --     11.0772                76.0546               396.6046

                      4                      5                      6
                     B2                     A1                     A1
 Frequencies --    554.9124               716.2447              2355.5787
 Red. masses --      1.1293                12.6893                 1.0393
 Frc consts  --      0.2049                 3.8354                 3.3976
 IR Inten    --     48.2991                12.2781                84.5502

 - Thermochemistry -
 -------------------
 Temperature   298.150 Kelvin.  Pressure   1.00000 Atm.
 Atom     1 has atomic number 16 and mass  31.97207

 Molecular mass:    56.97990 amu.
 Principal axes and moments of inertia in atomic units:
                           1         2         3
     Eigenvalues --    44.64605 194.58641 239.23246
           X            0.00000   0.00000   1.00000
           Y            1.00000   0.00000   0.00000
           Z           -0.00000   1.00000   0.00000
 This molecule is an asymmetric top.
 Rotational symmetry number  2.
 Rotational temperatures (Kelvin)      1.94001     0.44512     0.36205
 Rotational constants (GHZ):          40.42331     9.27475     7.54388
 Zero-point vibrational energy      25399.3 (Joules/Mol)
                                    6.07058 (Kcal/Mol)
 Warning -- explicit consideration of   4 degrees of freedom as
           vibrations may cause significant error
 Vibrational temperatures:    248.61   274.14   368.86   798.39  1030.52
          (Kelvin)           3389.15

 Zero-point correction=                           0.009674 (Hartree/Particle)
 Thermal correction to Energy=                    0.014458
 Thermal correction to Enthalpy=                  0.015402
 Thermal correction to Gibbs Free Energy=        -0.017021
 Sum of electronic and zero-point Energies=           -474.321136
 Sum of electronic and thermal Energies=              -474.316353
 Sum of electronic and thermal Enthalpies=            -474.315409
 Sum of electronic and thermal Free Energies=         -474.347832

                     E (Thermal)             CV                S
                      KCal/Mol        Cal/Mol-Kelvin    Cal/Mol-Kelvin
 Total                    9.072             13.373             68.240
 Electronic               0.000              0.000              2.183
 Translational            0.889              2.981             38.041
 Rotational               0.889              2.981             20.880
 Vibrational              7.295              7.411              7.136
 Vibration     1          0.626              1.876              2.405
 Vibration     2          0.634              1.853              2.223
 Vibration     3          0.666              1.752              1.686
 Vibration     4          0.910              1.129              0.534

 Optimization completed.
    -- Stationary point found.
 Normal termination of Gaussian 09 at Wed Aug  3 23:04:45 2016.
