 Gaussian 09, Revision E.01,
 Gaussian 09:  EM64L-G09RevE.01 30-Nov-2015

 ------------------------------
 #p b3lyp/6-311++G(3df,2p) freq
 ------------------------------

 ---------
 b3lyp opt
 ---------
 Symbolic Z-matrix:
 Charge =  0 Multiplicity = 2

                         Standard orientation:
 ---------------------------------------------------------------------
 Center     Atomic      Atomic             Coordinates (Angstroms)
 Number     Number       Type             X           Y           Z
 ---------------------------------------------------------------------
      1         16           0       -0.030813   -0.042358    1.287408
      2         16           0       -0.030813   -0.042358   -1.287408
      3          6           0        0.135821   -1.231367    0.000000
      4          6           0       -0.030813    1.104675   -0.000000
      5          1           0        0.355982    2.115599   -0.000000
 ---------------------------------------------------------------------

 SCF Done:  E(UB3LYP) =  -873.129194588     A.U. after   16 cycles

 The electronic state is 2-A'.
 Alpha  occ. eigenvalues --  -88.90551 -88.90551 -10.26258 -10.24222  -7.98972
 Alpha  occ. eigenvalues --   -7.98970  -5.95246  -5.95245  -5.94859  -5.94857
 Alpha  occ. eigenvalues --   -5.94643  -5.94643  -0.92315  -0.74046  -0.69092
 Alpha  occ. eigenvalues --   -0.52071  -0.47957  -0.45816  -0.41984  -0.32833
 Alpha  occ. eigenvalues --   -0.27983  -0.26870  -0.24684
 Alpha virt. eigenvalues --   -0.07943  -0.06454  -0.00316  -0.00020   0.02721
 Alpha virt. eigenvalues --    0.03469   0.03706   0.03994   0.06056   0.07127
 Alpha virt. eigenvalues --    0.07135   0.08595   0.09243   0.11796   0.11805

  Beta  occ. eigenvalues --  -88.90585 -88.90585 -10.25288 -10.23518  -7.98998
  Beta  occ. eigenvalues --   -7.98997  -5.95273  -5.95273  -5.94905  -5.94903
  Beta  occ. eigenvalues --   -5.94700  -5.94700  -0.91284  -0.73989  -0.66673
  Beta  occ. eigenvalues --   -0.51018  -0.47657  -0.45187  -0.39204  -0.32588
  Beta  occ. eigenvalues --   -0.28156  -0.25556
  Beta virt. eigenvalues --   -0.13056  -0.05828  -0.04997  -0.00239   0.00162
  Beta virt. eigenvalues --    0.02800   0.03668   0.03795   0.04121   0.06139
  Beta virt. eigenvalues --    0.07104   0.07414   0.09156   0.09443   0.11794

 Mulliken charges and spin densities:
               1          2
     1  S   -0.237151  -0.018629
     2  S   -0.237151  -0.018629
     3  C    0.074507   0.460757
     4  C    0.221423   0.597628
     5  H    0.178371  -0.021126
 Sum of Mulliken charges =  -0.00000   1.00000

 Dipole moment (field-independent basis, Debye):
    X=             -0.1270    Y=              2.7529    Z=              0.0000  Tot=              2.7559
 Quadrupole moment (field-independent basis, Debye-Ang):
   XX=            -38.9222   YY=            -38.2169   ZZ=            -36.3026
   XY=              1.5861   XZ=             -0.0000   YZ=              0.0000

  Exact polarizability:  43.002  -1.238  69.700   0.000  -0.000  72.553
 Approx polarizability:  70.121  -7.760 138.950  -0.000  -0.000 140.028

                      1                      2                      3
                     A'                     A'                     A'
 Frequencies --    334.1616               431.3998               506.1686
 Red. masses --      2.1493                 3.8309                13.9681
 Frc consts  --      0.1414                 0.4201                 2.1085
 IR Inten    --     57.6112                43.2913                12.3802

                      4                      5                      6
                     A'                     A"                     A"
 Frequencies --    686.0086               692.5056               784.2448
 Red. masses --      3.7214                13.4029                 3.5383
 Frc consts  --      1.0318                 3.7870                 1.2822
 IR Inten    --     18.0620                18.0823                 7.9079

                      7                      8                      9
                     A'                     A"                     A'
 Frequencies --    862.6705              1149.9571              3169.6160
 Red. masses --      8.4336                 1.3652                 1.0907
 Frc consts  --      3.6979                 1.0637                 6.4559
 IR Inten    --      3.4694                 0.5657                 2.1084

 - Thermochemistry -
 -------------------
 Temperature   298.150 Kelvin.  Pressure   1.00000 Atm.
 Atom     1 has atomic number 16 and mass  31.97207

 Molecular mass:    88.95197 amu.
 Principal axes and moments of inertia in atomic units:
                           1         2         3
     Eigenvalues --   135.11032 379.72792 512.32178
           X            0.00000  -0.04262   0.99909
           Y            0.00000   0.99909   0.04262
           Z            1.00000  -0.00000  -0.00000
 This molecule is an asymmetric top.
 Rotational symmetry number  1.
 Rotational temperatures (Kelvin)      0.64106     0.22809     0.16906
 Rotational constants (GHZ):          13.35754     4.75272     3.52267
 Zero-point vibrational energy      51539.5 (Joules/Mol)
                                   12.31824 (Kcal/Mol)
 Warning -- explicit consideration of   3 degrees of freedom as
           vibrations may cause significant error
 Vibrational temperatures:    480.78   620.69   728.26   987.01   996.36
          (Kelvin)           1128.35  1241.19  1654.53  4560.36

 Zero-point correction=                           0.019630 (Hartree/Particle)
 Thermal correction to Energy=                    0.023741
 Thermal correction to Enthalpy=                  0.024686
 Thermal correction to Gibbs Free Energy=        -0.008257
 Sum of electronic and zero-point Energies=           -873.109564
 Sum of electronic and thermal Energies=              -873.105453
 Sum of electronic and thermal Enthalpies=            -873.104509
 Sum of electronic and thermal Free Energies=         -873.137451

                     E (Thermal)             CV                S
                      KCal/Mol        Cal/Mol-Kelvin    Cal/Mol-Kelvin
 Total                   14.898             13.377             69.333
 Electronic               0.000              0.000              1.377
 Translational            0.889              2.981             39.369
 Rotational               0.889              2.981             24.778
 Vibrational             13.121              7.415              3.808
 Vibration     1          0.716              1.607              1.240
 Vibration     2          0.792              1.402              0.854
 Vibration     3          0.861              1.236              0.643

 Optimization completed.
    -- Stationary point found.
 Normal termination of Gaussian 09 at Wed Aug  3 23:02:24 2016.
