 Gaussian 09, Revision E.01,
 Gaussian 09:  EM64L-G09RevE.01 30-Nov-2015

 ------------------------------
 #p b3lyp/6-311++G(3df,2p) freq
 ------------------------------

 ---------
 b3lyp opt
 ---------
 Symbolic Z-matrix:
 Charge =  2 Multiplicity = 4

                         Standard orientation:
 ---------------------------------------------------------------------
 Center     Atomic      Atomic             Coordinates (Angstroms)
 Number     Number       Type             X           Y           Z
 ---------------------------------------------------------------------
      1         16           0        2.326273   -0.009065   -0.000112
      2         16           0       -2.228674   -0.100729   -0.000069
      3          6           0        0.698225    0.020777    0.000391
      4          6           0       -0.540252    0.063813    0.000120
      5          1           0       -2.509422    1.249161   -0.000178
 ---------------------------------------------------------------------

 SCF Done:  E(UB3LYP) =  -872.288725815     A.U. after   18 cycles

 The electronic state is 4-A.
 Alpha  occ. eigenvalues --  -89.42468 -89.40985 -10.71658 -10.70520  -8.50214
 Alpha  occ. eigenvalues --   -8.48609  -6.46887  -6.46281  -6.45819  -6.45204
 Alpha  occ. eigenvalues --   -6.44899  -6.44429  -1.32635  -1.28944  -1.19827
 Alpha  occ. eigenvalues --   -0.98598  -0.92317  -0.88629  -0.86435  -0.82714
 Alpha  occ. eigenvalues --   -0.80988  -0.73104  -0.71380
 Alpha virt. eigenvalues --   -0.47317  -0.44826  -0.43063  -0.40140  -0.36816
 Alpha virt. eigenvalues --   -0.31723  -0.27736  -0.25376  -0.24785  -0.24163
 Alpha virt. eigenvalues --   -0.22664  -0.21777  -0.21567  -0.20709  -0.20297

  Beta  occ. eigenvalues --  -89.41896 -89.39955 -10.70656 -10.70474  -8.49681
  Beta  occ. eigenvalues --   -8.47672  -6.45992  -6.45482  -6.45081  -6.43883
  Beta  occ. eigenvalues --   -6.43147  -6.43137  -1.29334  -1.25126  -1.15775
  Beta  occ. eigenvalues --   -0.96600  -0.89407  -0.86121  -0.80294  -0.78792
  Beta virt. eigenvalues --   -0.68070  -0.61681  -0.58764  -0.45235  -0.40509
  Beta virt. eigenvalues --   -0.40442  -0.38312  -0.34389  -0.30923  -0.26455
  Beta virt. eigenvalues --   -0.24493  -0.23967  -0.22718  -0.22000  -0.20238

 Mulliken charges and spin densities:
               1          2
     1  S    0.387321   1.569389
     2  S    0.172601   0.935635
     3  C    0.767879  -0.017391
     4  C    0.376787   0.494426
     5  H    0.295411   0.017940
 Sum of Mulliken charges =   2.00000   3.00000

 Dipole moment (field-independent basis, Debye):
    X=             -1.6150    Y=              1.1023    Z=             -0.0004  Tot=              1.9553
 Quadrupole moment (field-independent basis, Debye-Ang):
   XX=             20.1998   YY=            -27.9649   ZZ=            -29.8177
   XY=             -3.3688   XZ=              0.0004   YZ=             -0.0003

  Exact polarizability: 117.262  -2.503  32.552   0.002  -0.000  29.403
 Approx polarizability: 241.768  -3.934  51.360   0.007  -0.000  45.251

                      1                      2                      3
                      A                      A                      A
 Frequencies --    153.9419               160.5529               354.8995
 Red. masses --      8.5262                 6.5990                11.1181
 Frc consts  --      0.1190                 0.1002                 0.8251
 IR Inten    --      4.6651                 8.9104                 0.5158

                      4                      5                      6
                      A                      A                      A
 Frequencies --    369.1481               476.6959               785.8424
 Red. masses --      9.4712                16.1734                14.5190
 Frc consts  --      0.7604                 2.1654                 5.2827
 IR Inten    --      0.8214                 5.1526               367.2737

                      7                      8                      9
                      A                      A                      A
 Frequencies --    924.0075              1954.2630              2436.2632
 Red. masses --      1.1411                11.9008                 1.0399
 Frc consts  --      0.5740                26.7789                 3.6367
 IR Inten    --     20.9295                10.6670               236.8611

 - Thermochemistry -
 -------------------
 Temperature   298.150 Kelvin.  Pressure   1.00000 Atm.
 Atom     1 has atomic number 16 and mass  31.97207

 Molecular mass:    88.95197 amu.
 Principal axes and moments of inertia in atomic units:
                           1         2         3
     Eigenvalues --     6.813541240.878381247.69191
           X            0.99996  -0.00908   0.00000
           Y            0.00908   0.99996  -0.00012
           Z           -0.00000   0.00012   1.00000
 This molecule is an asymmetric top.
 Rotational symmetry number  1.
 Rotational temperatures (Kelvin)     12.71201     0.06980     0.06942
 Rotational constants (GHZ):         264.87553     1.45441     1.44646
 Zero-point vibrational energy      45551.5 (Joules/Mol)
                                   10.88707 (Kcal/Mol)
 Warning -- explicit consideration of   5 degrees of freedom as
           vibrations may cause significant error
 Vibrational temperatures:    221.49   231.00   510.62   531.12   685.86
          (Kelvin)           1130.65  1329.44  2811.75  3505.24

 Zero-point correction=                           0.017350 (Hartree/Particle)
 Thermal correction to Energy=                    0.022515
 Thermal correction to Enthalpy=                  0.023459
 Thermal correction to Gibbs Free Energy=        -0.011917
 Sum of electronic and zero-point Energies=           -872.271376
 Sum of electronic and thermal Energies=              -872.266211
 Sum of electronic and thermal Enthalpies=            -872.265267
 Sum of electronic and thermal Free Energies=         -872.300643

                     E (Thermal)             CV                S
                      KCal/Mol        Cal/Mol-Kelvin    Cal/Mol-Kelvin
 Total                   14.128             15.312             74.456
 Electronic               0.000              0.000              2.755
 Translational            0.889              2.981             39.369
 Rotational               0.889              2.981             23.871
 Vibrational             12.351              9.350              8.461
 Vibration     1          0.619              1.898              2.623
 Vibration     2          0.622              1.891              2.543
 Vibration     3          0.731              1.565              1.144
 Vibration     4          0.741              1.536              1.083
 Vibration     5          0.833              1.302              0.719

 Optimization completed.
    -- Stationary point found.
 Normal termination of Gaussian 09 at Wed Aug  3 20:18:06 2016.
