 Gaussian 09, Revision E.01,
 Gaussian 09:  EM64L-G09RevE.01 30-Nov-2015

 ------------------------------
 #p b3lyp/6-311++G(3df,2p) freq
 ------------------------------

 ---------
 b3lyp opt
 ---------
 Symbolic Z-matrix:
 Charge =  1 Multiplicity = 1

                         Standard orientation:
 ---------------------------------------------------------------------
 Center     Atomic      Atomic             Coordinates (Angstroms)
 Number     Number       Type             X           Y           Z
 ---------------------------------------------------------------------
      1         16           0       -0.000000    0.716975    0.000000
      2          6           0        0.579975   -0.804181   -0.000000
      3          6           0       -0.834903   -0.886078   -0.000000
      4          1           0        1.529568   -1.330043   -0.000000
 ---------------------------------------------------------------------

 SCF Done:  E(RB3LYP) =  -474.570612951     A.U. after   11 cycles

 The electronic state is 1-A'.
 Alpha  occ. eigenvalues --  -89.23266 -10.55493 -10.53569  -8.31366  -6.27714
 Alpha  occ. eigenvalues --   -6.27298  -6.26955  -1.22624  -0.91698  -0.86499
 Alpha  occ. eigenvalues --   -0.72189  -0.68410  -0.62821  -0.54307
 Alpha virt. eigenvalues --   -0.43085  -0.31615  -0.28076  -0.20711  -0.16416
 Alpha virt. eigenvalues --   -0.15382  -0.12280  -0.11299  -0.08104  -0.07758
 Alpha virt. eigenvalues --   -0.06692  -0.05977  -0.04842  -0.04599  -0.03016

 Mulliken charges:
               1
     1  S    0.510259
     2  C    0.281225
     3  C   -0.101678
     4  H    0.310194
 Sum of Mulliken charges =   1.00000

 Dipole moment (field-independent basis, Debye):
    X=              2.4915    Y=              0.1331    Z=              0.0000  Tot=              2.4950
 Quadrupole moment (field-independent basis, Debye-Ang):
   XX=            -19.8676   YY=            -16.1515   ZZ=            -19.9802
   XY=             -3.8666   XZ=             -0.0000   YZ=             -0.0000

  Exact polarizability:  30.439   1.451  39.468  -0.001  -0.000  22.268
 Approx polarizability:  50.757   4.834  91.163   0.000   0.000  37.783

                      1                      2                      3
                     A'                     A"                     A'
 Frequencies --    644.4823               866.1744               904.5166
 Red. masses --     13.0687                 1.3023                 1.9001
 Frc consts  --      3.1982                 0.5757                 0.9159
 IR Inten    --     18.3844                13.7202                 7.0439

                      4                      5                      6
                     A'                     A'                     A'
 Frequencies --   1030.2342              1265.7583              3195.4417
 Red. masses --      2.2631                 6.8189                 1.1067
 Frc consts  --      1.4152                 6.4368                 6.6580
 IR Inten    --     27.0452                49.5637               100.3099

 - Thermochemistry -
 -------------------
 Temperature   298.150 Kelvin.  Pressure   1.00000 Atm.
 Atom     1 has atomic number 16 and mass  31.97207

 Molecular mass:    56.97990 amu.
 Principal axes and moments of inertia in atomic units:
                           1         2         3
     Eigenvalues --    52.28565 126.58656 178.87221
           X            0.06091   0.99814   0.00000
           Y            0.99814  -0.06091   0.00000
           Z           -0.00000  -0.00000   1.00000
 This molecule is an asymmetric top.
 Rotational symmetry number  1.
 Rotational temperatures (Kelvin)      1.65655     0.68423     0.48422
 Rotational constants (GHZ):          34.51695    14.25697    10.08956
 Zero-point vibrational energy      47292.0 (Joules/Mol)
                                   11.30306 (Kcal/Mol)
 Vibrational temperatures:    927.27  1246.23  1301.40  1482.28  1821.14
          (Kelvin)           4597.52

 Zero-point correction=                           0.018013 (Hartree/Particle)
 Thermal correction to Energy=                    0.021142
 Thermal correction to Enthalpy=                  0.022086
 Thermal correction to Gibbs Free Energy=        -0.006673
 Sum of electronic and zero-point Energies=           -474.552600
 Sum of electronic and thermal Energies=              -474.549471
 Sum of electronic and thermal Enthalpies=            -474.548527
 Sum of electronic and thermal Free Energies=         -474.577286

                     E (Thermal)             CV                S
                      KCal/Mol        Cal/Mol-Kelvin    Cal/Mol-Kelvin
 Total                   13.267              8.454             60.530
 Electronic               0.000              0.000              0.000
 Translational            0.889              2.981             38.041
 Rotational               0.889              2.981             21.698
 Vibrational             11.490              2.492              0.790

 Normal termination of Gaussian 09 at Wed Aug  3 23:04:41 2016.
