 Gaussian 09, Revision E.01,
 Gaussian 09:  EM64L-G09RevE.01 30-Nov-2015

 ------------------------------
 #p b3lyp/6-311++G(3df,2p) freq
 ------------------------------

 ---------
 b3lyp opt
 ---------
 Symbolic Z-matrix:
 Charge =  2 Multiplicity = 4

                         Standard orientation:
 ---------------------------------------------------------------------
 Center     Atomic      Atomic             Coordinates (Angstroms)
 Number     Number       Type             X           Y           Z
 ---------------------------------------------------------------------
      1         16           0        1.360110   -0.337603   -0.001739
      2         16           0       -1.709780    0.252437   -0.000918
      3          6           0        1.479625    1.261876    0.002847
      4          6           0       -0.447963   -0.730629    0.002916
      5          1           0       -0.595250   -1.824836    0.007924
 ---------------------------------------------------------------------

 SCF Done:  E(UB3LYP) =  -872.172794128     A.U. after   20 cycles

 The electronic state is 4-A.
 Alpha  occ. eigenvalues --  -89.43096 -89.41008 -10.80607 -10.74741  -8.50891
 Alpha  occ. eigenvalues --   -8.48885  -6.47249  -6.46927  -6.46510  -6.45664
 Alpha  occ. eigenvalues --   -6.44689  -6.44676  -1.36187  -1.29936  -1.13007
 Alpha  occ. eigenvalues --   -1.00990  -0.94116  -0.90164  -0.85107  -0.84884
 Alpha  occ. eigenvalues --   -0.79340  -0.78156  -0.73730
 Alpha virt. eigenvalues --   -0.61190  -0.53576  -0.44953  -0.38710  -0.36003
 Alpha virt. eigenvalues --   -0.31735  -0.30645  -0.27089  -0.26742  -0.25846
 Alpha virt. eigenvalues --   -0.25305  -0.22432  -0.22387  -0.21388  -0.20031

  Beta  occ. eigenvalues --  -89.42976 -89.40372 -10.77128 -10.74549  -8.50763
  Beta  occ. eigenvalues --   -8.48303  -6.46949  -6.46684  -6.46505  -6.44317
  Beta  occ. eigenvalues --   -6.44309  -6.43702  -1.33645  -1.26700  -1.09093
  Beta  occ. eigenvalues --   -0.96613  -0.91010  -0.86056  -0.84573  -0.77949
  Beta virt. eigenvalues --   -0.66133  -0.63717  -0.58258  -0.57275  -0.51552
  Beta virt. eigenvalues --   -0.41699  -0.36095  -0.34684  -0.30459  -0.29591
  Beta virt. eigenvalues --   -0.26404  -0.25824  -0.25405  -0.23513  -0.22069

 Mulliken charges and spin densities:
               1          2
     1  S    0.327619   0.199921
     2  S    0.526662   0.961587
     3  C    0.536265   1.773897
     4  C    0.321788   0.016637
     5  H    0.287665   0.047958
 Sum of Mulliken charges =   2.00000   3.00000

 Dipole moment (field-independent basis, Debye):
    X=              0.2555    Y=              0.1088    Z=              0.0066  Tot=              0.2777
 Quadrupole moment (field-independent basis, Debye-Ang):
   XX=             -6.3275   YY=            -19.4436   ZZ=            -30.6365
   XY=              2.5558   XZ=              0.0025   YZ=             -0.0090

  Exact polarizability:  65.840   0.833  47.689   0.021  -0.000  30.521
 Approx polarizability: 118.999  -4.487 105.943   0.071   0.030  49.114

                      1                      2                      3
                      A                      A                      A
 Frequencies --     62.5867               187.0773               402.3453
 Red. masses --      3.7729                14.5049                17.1510
 Frc consts  --      0.0087                 0.2991                 1.6358
 IR Inten    --      6.6099                 2.4847                 0.8843

                      4                      5                      6
                      A                      A                      A
 Frequencies --    498.1938               731.3313               973.2854
 Red. masses --      8.9302                 1.4429                14.0358
 Frc consts  --      1.3059                 0.4547                 7.8337
 IR Inten    --      4.9653                26.8158                20.5570

                      7                      8                      9
                      A                      A                      A
 Frequencies --   1024.4996              1213.6927              2967.8261
 Red. masses --      2.0843                 1.7908                 1.0861
 Frc consts  --      1.2889                 1.5542                 5.6364
 IR Inten    --      1.6498                 1.9344               153.7065

 - Thermochemistry -
 -------------------
 Temperature   298.150 Kelvin.  Pressure   1.00000 Atm.
 Atom     1 has atomic number 16 and mass  31.97207

 Molecular mass:    88.95197 amu.
 Principal axes and moments of inertia in atomic units:
                           1         2         3
     Eigenvalues --   123.22693 648.68845 771.91267
           X            0.99997   0.00724  -0.00003
           Y           -0.00724   0.99997  -0.00042
           Z            0.00003   0.00042   1.00000
 This molecule is an asymmetric top.
 Rotational symmetry number  1.
 Rotational temperatures (Kelvin)      0.70288     0.13352     0.11221
 Rotational constants (GHZ):          14.64567     2.78214     2.33801
 Zero-point vibrational energy      48214.5 (Joules/Mol)
                                   11.52355 (Kcal/Mol)
 Warning -- explicit consideration of   4 degrees of freedom as
           vibrations may cause significant error
 Vibrational temperatures:     90.05   269.16   578.88   716.79  1052.22
          (Kelvin)           1400.34  1474.02  1746.23  4270.03

 Zero-point correction=                           0.018364 (Hartree/Particle)
 Thermal correction to Energy=                    0.023310
 Thermal correction to Enthalpy=                  0.024254
 Thermal correction to Gibbs Free Energy=        -0.012092
 Sum of electronic and zero-point Energies=           -872.154430
 Sum of electronic and thermal Energies=              -872.149484
 Sum of electronic and thermal Enthalpies=            -872.148540
 Sum of electronic and thermal Free Energies=         -872.184886

                     E (Thermal)             CV                S
                      KCal/Mol        Cal/Mol-Kelvin    Cal/Mol-Kelvin
 Total                   14.627             14.236             76.496
 Electronic               0.000              0.000              2.755
 Translational            0.889              2.981             39.369
 Rotational               0.889              2.981             25.626
 Vibrational             12.850              8.274              8.746
 Vibration     1          0.597              1.972              4.374
 Vibration     2          0.632              1.858              2.257
 Vibration     3          0.768              1.465              0.954
 Vibration     4          0.854              1.254              0.663

 Normal termination of Gaussian 09 at Wed Aug  3 20:18:04 2016.
