 Gaussian 09, Revision E.01,
 Gaussian 09:  EM64L-G09RevE.01 30-Nov-2015

 ------------------------------
 #p b3lyp/6-311++G(3df,2p) freq
 ------------------------------

 ---------
 b3lyp opt
 ---------
 Symbolic Z-matrix:
 Charge =  1 Multiplicity = 1

                         Standard orientation:
 ---------------------------------------------------------------------
 Center     Atomic      Atomic             Coordinates (Angstroms)
 Number     Number       Type             X           Y           Z
 ---------------------------------------------------------------------
      1         16           0       -1.900530    0.134565    0.000108
      2         16           0        1.223742   -0.533002    0.000076
      3          6           0       -0.438296   -0.167473   -0.000489
      4          6           0        1.765549    1.069584   -0.000085
      5          1           0        2.865096    0.962336    0.000493
 ---------------------------------------------------------------------

 SCF Done:  E(RB3LYP) =  -872.824308090     A.U. after   15 cycles

 The electronic state is 1-A.
 Alpha  occ. eigenvalues --  -89.16623 -89.15571 -10.54451 -10.45240  -8.25084
 Alpha  occ. eigenvalues --   -8.23765  -6.21062  -6.21048  -6.20953  -6.20114
 Alpha  occ. eigenvalues --   -6.19554  -6.19500  -1.12216  -1.06129  -0.87869
 Alpha  occ. eigenvalues --   -0.74703  -0.67427  -0.65698  -0.63791  -0.58908
 Alpha  occ. eigenvalues --   -0.54908  -0.46114
 Alpha virt. eigenvalues --   -0.35205  -0.34664  -0.28814  -0.21860  -0.16315
 Alpha virt. eigenvalues --   -0.15423  -0.11977  -0.11727  -0.10075  -0.09516
 Alpha virt. eigenvalues --   -0.07957  -0.07498  -0.06132  -0.05324  -0.04768

 Mulliken charges:
               1
     1  S    0.225868
     2  S    0.099056
     3  C    0.622937
     4  C   -0.175033
     5  H    0.227172
 Sum of Mulliken charges =   1.00000

 Dipole moment (field-independent basis, Debye):
    X=             -0.8658    Y=             -0.9330    Z=              0.0010  Tot=              1.2729
 Quadrupole moment (field-independent basis, Debye-Ang):
   XX=            -11.7711   YY=            -34.6009   ZZ=            -33.3242
   XY=             -0.7548   XZ=              0.0007   YZ=              0.0017

  Exact polarizability:  90.738   4.479  48.493   0.008   0.000  34.850
 Approx polarizability: 184.532   5.236  92.441  -0.010   0.002  57.916

                      1                      2                      3
                      A                      A                      A
 Frequencies --    117.6487               300.9902               425.7664
 Red. masses --      6.1072                 5.3269                16.1041
 Frc consts  --      0.0498                 0.2843                 1.7200
 IR Inten    --      6.7993                14.9869                19.7949

                      4                      5                      6
                      A                      A                      A
 Frequencies --    468.0047               727.8663               737.5560
 Red. masses --      8.5444                15.2559                 1.2583
 Frc consts  --      1.1026                 4.7620                 0.4033
 IR Inten    --      1.5933                57.9589                17.7454

                      7                      8                      9
                      A                      A                      A
 Frequencies --   1024.7599              1538.4397              3001.1925
 Red. masses --      1.1844                13.6985                 1.0834
 Frc consts  --      0.7328                19.1023                 5.7496
 IR Inten    --     55.5415               193.4408                11.8829

 - Thermochemistry -
 -------------------
 Temperature   298.150 Kelvin.  Pressure   1.00000 Atm.
 Atom     1 has atomic number 16 and mass  31.97207

 Molecular mass:    88.95197 amu.
 Principal axes and moments of inertia in atomic units:
                           1         2         3
     Eigenvalues --    87.88292 754.55902 842.44191
           X            0.99989   0.01468   0.00001
           Y           -0.01468   0.99989   0.00002
           Z           -0.00001  -0.00002   1.00000
 This molecule is an asymmetric top.
 Rotational symmetry number  1.
 Rotational temperatures (Kelvin)      0.98556     0.11479     0.10281
 Rotational constants (GHZ):          20.53575     2.39178     2.14227
 Zero-point vibrational energy      49897.6 (Joules/Mol)
                                   11.92581 (Kcal/Mol)
 Warning -- explicit consideration of   4 degrees of freedom as
           vibrations may cause significant error
 Vibrational temperatures:    169.27   433.06   612.58   673.35  1047.24
          (Kelvin)           1061.18  1474.40  2213.47  4318.04

 Zero-point correction=                           0.019005 (Hartree/Particle)
 Thermal correction to Energy=                    0.023730
 Thermal correction to Enthalpy=                  0.024674
 Thermal correction to Gibbs Free Energy=        -0.009391
 Sum of electronic and zero-point Energies=           -872.805303
 Sum of electronic and thermal Energies=              -872.800578
 Sum of electronic and thermal Enthalpies=            -872.799634
 Sum of electronic and thermal Free Energies=         -872.833699

                     E (Thermal)             CV                S
                      KCal/Mol        Cal/Mol-Kelvin    Cal/Mol-Kelvin
 Total                   14.891             14.256             71.696
 Electronic               0.000              0.000              0.000
 Translational            0.889              2.981             39.369
 Rotational               0.889              2.981             25.527
 Vibrational             13.113              8.294              6.800
 Vibration     1          0.608              1.935              3.139
 Vibration     2          0.693              1.672              1.411
 Vibration     3          0.788              1.414              0.873
 Vibration     4          0.825              1.321              0.743

 Optimization completed.
    -- Stationary point found.
 Normal termination of Gaussian 09 at Wed Aug  3 20:58:09 2016.
