 Gaussian 09, Revision E.01,
 Gaussian 09:  EM64L-G09RevE.01 30-Nov-2015

 ------------------------------
 #p b3lyp/6-311++G(3df,2p) freq
 ------------------------------

 ---------
 b3lyp opt
 ---------
 Symbolic Z-matrix:
 Charge =  0 Multiplicity = 4

                         Standard orientation:
 ---------------------------------------------------------------------
 Center     Atomic      Atomic             Coordinates (Angstroms)
 Number     Number       Type             X           Y           Z
 ---------------------------------------------------------------------
      1         16           0       -0.902242    0.006185   -0.000152
      2          6           0        1.812551    0.313699   -0.000279
      3          6           0        0.710526   -0.556007    0.000438
      4          1           0       -0.702590    1.354894    0.001477
 ---------------------------------------------------------------------

 SCF Done:  E(UB3LYP) =  -474.769687466     A.U. after   17 cycles

 The electronic state is 4-A.
 Alpha  occ. eigenvalues --  -88.92444 -10.27404 -10.24448  -8.00981  -5.97190
 Alpha  occ. eigenvalues --   -5.96947  -5.96813  -0.86585  -0.73678  -0.55546
 Alpha  occ. eigenvalues --   -0.43354  -0.39038  -0.36943  -0.33239  -0.28101
 Alpha  occ. eigenvalues --   -0.19329
 Alpha virt. eigenvalues --   -0.05356  -0.02707  -0.00406   0.02216   0.03598
 Alpha virt. eigenvalues --    0.04311   0.06572   0.07447   0.08776   0.09159
 Alpha virt. eigenvalues --    0.10394   0.10655   0.12096   0.12822   0.15697

  Beta  occ. eigenvalues --  -88.92109 -10.26018 -10.21955  -8.00649  -5.96977
  Beta  occ. eigenvalues --   -5.96443  -5.96172  -0.83415  -0.67955  -0.52222
  Beta  occ. eigenvalues --   -0.40480  -0.34694  -0.29604
  Beta virt. eigenvalues --   -0.18347  -0.17140  -0.05686  -0.01151  -0.00037
  Beta virt. eigenvalues --    0.00950   0.02641   0.04123   0.04842   0.07230
  Beta virt. eigenvalues --    0.07977   0.09463   0.09612   0.11682   0.11763

 Mulliken charges and spin densities:
               1          2
     1  S    0.041007   0.376321
     2  C   -0.225431   1.621493
     3  C    0.051960   0.893596
     4  H    0.132464   0.108591
 Sum of Mulliken charges =  -0.00000   3.00000

 Dipole moment (field-independent basis, Debye):
    X=             -2.3346    Y=              0.3403    Z=              0.0004  Tot=              2.3593
 Quadrupole moment (field-independent basis, Debye-Ang):
   XX=            -28.1513   YY=            -25.5943   ZZ=            -25.6187
   XY=             -2.2454   XZ=             -0.0005   YZ=              0.0040

  Exact polarizability:  80.559   7.253  52.535  -0.004  -0.005  33.355
 Approx polarizability: 145.548  12.527  84.661  -0.003  -0.008  49.393

                      1                      2                      3
                      A                      A                      A
 Frequencies --    342.5940               423.9956               623.1929
 Red. masses --      4.7867                 1.4223                 4.2409
 Frc consts  --      0.3310                 0.1507                 0.9704
 IR Inten    --     14.3261                 2.1008                16.5669

                      4                      5                      6
                      A                      A                      A
 Frequencies --    727.4792              1190.6214              2472.9381
 Red. masses --      1.6283                 8.0482                 1.0382
 Frc consts  --      0.5077                 6.7219                 3.7408
 IR Inten    --    187.7814                24.4561                 2.5717

 - Thermochemistry -
 -------------------
 Temperature   298.150 Kelvin.  Pressure   1.00000 Atm.
 Atom     1 has atomic number 16 and mass  31.97207

 Molecular mass:    56.97990 amu.
 Principal axes and moments of inertia in atomic units:
                           1         2         3
     Eigenvalues --    23.91207 257.15705 281.06908
           X            0.99989  -0.01473  -0.00002
           Y            0.01473   0.99989   0.00030
           Z            0.00001  -0.00030   1.00000
 This molecule is an asymmetric top.
 Rotational symmetry number  1.
 Rotational temperatures (Kelvin)      3.62218     0.33681     0.30816
 Rotational constants (GHZ):          75.47408     7.01805     6.42099
 Zero-point vibrational energy      34577.0 (Joules/Mol)
                                    8.26410 (Kcal/Mol)
 Warning -- explicit consideration of   2 degrees of freedom as
           vibrations may cause significant error
 Vibrational temperatures:    492.92   610.03   896.63  1046.68  1713.04
          (Kelvin)           3558.00

 Zero-point correction=                           0.013170 (Hartree/Particle)
 Thermal correction to Energy=                    0.016926
 Thermal correction to Enthalpy=                  0.017870
 Thermal correction to Gibbs Free Energy=        -0.013336
 Sum of electronic and zero-point Energies=           -474.756518
 Sum of electronic and thermal Energies=              -474.752762
 Sum of electronic and thermal Enthalpies=            -474.751818
 Sum of electronic and thermal Free Energies=         -474.783023

                     E (Thermal)             CV                S
                      KCal/Mol        Cal/Mol-Kelvin    Cal/Mol-Kelvin
 Total                   10.621             10.943             65.678
 Electronic               0.000              0.000              2.755
 Translational            0.889              2.981             38.041
 Rotational               0.889              2.981             22.074
 Vibrational              8.844              4.982              2.808
 Vibration     1          0.722              1.590              1.200
 Vibration     2          0.786              1.418              0.879

 Optimization completed.
    -- Stationary point found.
 Normal termination of Gaussian 09 at Wed Aug  3 20:20:26 2016.
