 Gaussian 09, Revision E.01,
 Gaussian 09:  EM64L-G09RevE.01 30-Nov-2015

 ------------------------------
 #p b3lyp/6-311++G(3df,2p) freq
 ------------------------------

 ---------
 b3lyp opt
 ---------
 Symbolic Z-matrix:
 Charge =  0 Multiplicity = 2

                         Standard orientation:
 ---------------------------------------------------------------------
 Center     Atomic      Atomic             Coordinates (Angstroms)
 Number     Number       Type             X           Y           Z
 ---------------------------------------------------------------------
      1         16           0       -0.000000    0.223218   -0.000000
      2          6           0        1.561313   -0.381200    0.000000
      3          6           0       -1.555911   -0.479987   -0.000000
      4          1           0       -0.032410    1.595636   -0.000000
 ---------------------------------------------------------------------

 SCF Done:  E(UB3LYP) =  -474.656645668     A.U. after   21 cycles

 The electronic state is 2-A".
 Alpha  occ. eigenvalues --  -88.97643 -10.29005 -10.28500  -8.05610  -6.01742
 Alpha  occ. eigenvalues --   -6.01560  -6.01519  -0.89703  -0.70543  -0.58618
 Alpha  occ. eigenvalues --   -0.41121  -0.40244  -0.34241  -0.26180  -0.24969
 Alpha virt. eigenvalues --   -0.18547  -0.11141  -0.04973  -0.01459   0.03082
 Alpha virt. eigenvalues --    0.03716   0.05182   0.07069   0.07932   0.08072
 Alpha virt. eigenvalues --    0.09079   0.09884   0.09891   0.10024   0.12304

  Beta  occ. eigenvalues --  -88.97753 -10.28148 -10.27759  -8.05697  -6.01813
  Beta  occ. eigenvalues --   -6.01791  -6.01625  -0.89130  -0.68065  -0.57916
  Beta  occ. eigenvalues --   -0.39591  -0.38711  -0.32930  -0.24213
  Beta virt. eigenvalues --   -0.17640  -0.14897  -0.06114  -0.04996  -0.01366
  Beta virt. eigenvalues --    0.03301   0.03874   0.05320   0.07085   0.07912
  Beta virt. eigenvalues --    0.08122   0.09772   0.10004   0.10335   0.10702

 Mulliken charges and spin densities:
               1          2
     1  S    0.097015  -0.053279
     2  C   -0.099050   0.492009
     3  C   -0.071803   0.569167
     4  H    0.073838  -0.007897
 Sum of Mulliken charges =  -0.00000   1.00000

 Dipole moment (field-independent basis, Debye):
    X=             -0.1902    Y=              3.1471    Z=             -0.0000  Tot=              3.1528
 Quadrupole moment (field-independent basis, Debye-Ang):
   XX=            -31.6603   YY=            -26.1434   ZZ=            -25.5174
   XY=             -0.1531   XZ=             -0.0000   YZ=              0.0000

  Exact polarizability:  86.677   1.661  47.928   0.000   0.000  31.092
 Approx polarizability: 405.257  11.854  75.178   0.000  -0.000  51.581

                      1                      2                      3
                     A'                     A"                     A'
 Frequencies --    222.8741               388.4820               438.8223
 Red. masses --     12.3713                 1.4632                 8.4201
 Frc consts  --      0.3621                 0.1301                 0.9553
 IR Inten    --     13.6133                48.5162               195.8502

                      4                      5                      6
                     A'                     A'                     A'
 Frequencies --    773.2655               847.2485              2311.0654
 Red. masses --      6.9756                 1.2258                 1.0381
 Frc consts  --      2.4575                 0.5184                 3.2666
 IR Inten    --     18.2222                26.4767               247.3651

 - Thermochemistry -
 -------------------
 Temperature   298.150 Kelvin.  Pressure   1.00000 Atm.
 Atom     1 has atomic number 16 and mass  31.97207

 Molecular mass:    56.97990 amu.
 Principal axes and moments of inertia in atomic units:
                           1         2         3
     Eigenvalues --    30.56912 208.43086 238.99998
           X            0.99937  -0.03553  -0.00000
           Y            0.03553   0.99937   0.00000
           Z            0.00000  -0.00000   1.00000
 This molecule is an asymmetric top.
 Rotational symmetry number  1.
 Rotational temperatures (Kelvin)      2.83338     0.41555     0.36240
 Rotational constants (GHZ):          59.03805     8.65870     7.55122
 Zero-point vibrational energy      29797.5 (Joules/Mol)
                                    7.12178 (Kcal/Mol)
 Warning -- explicit consideration of   3 degrees of freedom as
           vibrations may cause significant error
 Vibrational temperatures:    320.67   558.94   631.37  1112.56  1219.00
          (Kelvin)           3325.10

 Zero-point correction=                           0.011349 (Hartree/Particle)
 Thermal correction to Energy=                    0.015454
 Thermal correction to Enthalpy=                  0.016398
 Thermal correction to Gibbs Free Energy=        -0.014742
 Sum of electronic and zero-point Energies=           -474.645296
 Sum of electronic and thermal Energies=              -474.641191
 Sum of electronic and thermal Enthalpies=            -474.640247
 Sum of electronic and thermal Free Energies=         -474.671388

                     E (Thermal)             CV                S
                      KCal/Mol        Cal/Mol-Kelvin    Cal/Mol-Kelvin
 Total                    9.698             11.924             65.541
 Electronic               0.000              0.000              1.377
 Translational            0.889              2.981             38.041
 Rotational               0.889              2.981             21.948
 Vibrational              7.920              5.962              4.175
 Vibration     1          0.649              1.806              1.936
 Vibration     2          0.757              1.495              1.006
 Vibration     3          0.799              1.386              0.830

 Normal termination of Gaussian 09 at Wed Aug  3 23:01:48 2016.
