 Gaussian 09, Revision E.01,
 Gaussian 09:  EM64L-G09RevE.01 30-Nov-2015

 ------------------------------
 #p b3lyp/6-311++G(3df,2p) freq
 ------------------------------

 ---------
 b3lyp opt
 ---------
 Symbolic Z-matrix:
 Charge =  0 Multiplicity = 4

                         Standard orientation:
 ---------------------------------------------------------------------
 Center     Atomic      Atomic             Coordinates (Angstroms)
 Number     Number       Type             X           Y           Z
 ---------------------------------------------------------------------
      1         16           0       -0.000000   -0.000000    0.162821
      2          6           0        0.000000    1.620103   -0.344582
      3          6           0       -0.000000   -1.620103   -0.344582
      4          1           0       -0.000000   -0.000000    1.529861
 ---------------------------------------------------------------------

 SCF Done:  E(UB3LYP) =  -474.691117150     A.U. after   13 cycles

 The electronic state is 4-B1.
 Alpha  occ. eigenvalues --  -88.97448 -10.27176 -10.27176  -8.05666  -6.01804
 Alpha  occ. eigenvalues --   -6.01611  -6.01457  -0.90524  -0.72349  -0.59357
 Alpha  occ. eigenvalues --   -0.42145  -0.41066  -0.34834  -0.28191  -0.27402
 Alpha  occ. eigenvalues --   -0.26055
 Alpha virt. eigenvalues --   -0.10649  -0.05324  -0.02838   0.03303   0.03882
 Alpha virt. eigenvalues --    0.03882   0.06312   0.07075   0.07969   0.08663
 Alpha virt. eigenvalues --    0.09104   0.10279   0.10741   0.12156   0.15024

  Beta  occ. eigenvalues --  -88.97623 -10.25146 -10.25146  -8.05772  -6.01927
  Beta  occ. eigenvalues --   -6.01786  -6.01702  -0.88253  -0.65863  -0.55694
  Beta  occ. eigenvalues --   -0.39429  -0.37051  -0.30457
  Beta virt. eigenvalues --   -0.14515  -0.13724  -0.12611  -0.04633  -0.03701
  Beta virt. eigenvalues --   -0.01361   0.04178   0.04182   0.04788   0.07089
  Beta virt. eigenvalues --    0.08521   0.08631   0.09845   0.10211   0.11277

 Mulliken charges and spin densities:
               1          2
     1  S    0.090948   0.112439
     2  C   -0.120930   1.374576
     3  C   -0.120930   1.374576
     4  H    0.150912   0.138408
 Sum of Mulliken charges =  -0.00000   3.00000

 Dipole moment (field-independent basis, Debye):
    X=              0.0000    Y=             -0.0000    Z=              2.1784  Tot=              2.1784
 Quadrupole moment (field-independent basis, Debye-Ang):
   XX=            -25.4843   YY=            -34.9576   ZZ=            -23.7408
   XY=             -0.0000   XZ=              0.0000   YZ=             -0.0000

  Exact polarizability:  34.075   0.000  83.033  -0.000   0.000  41.349
 Approx polarizability:  51.784   0.000 189.002   0.000   0.000  62.218

                      1                      2                      3
                     B1                     A1                     A1
 Frequencies --    246.6972               277.2859               700.4860
 Red. masses --      1.6827                13.1064                12.4631
 Frc consts  --      0.0603                 0.5937                 3.6031
 IR Inten    --      6.5416                27.1291                 0.1026

                      4                      5                      6
                     B2                     B2                     A1
 Frequencies --    701.3171               823.5645              2398.0972
 Red. masses --     12.6312                 1.0797                 1.0379
 Frc consts  --      3.6604                 0.4315                 3.5169
 IR Inten    --      2.6710                 0.9437                 2.6771

 - Thermochemistry -
 -------------------
 Temperature   298.150 Kelvin.  Pressure   1.00000 Atm.
 Atom     1 has atomic number 16 and mass  31.97207

 Molecular mass:    56.97990 amu.
 Principal axes and moments of inertia in atomic units:
                           1         2         3
     Eigenvalues --    21.48136 224.95437 246.43573
           X            0.00000   0.00000   1.00000
           Y            1.00000   0.00000  -0.00000
           Z           -0.00000   1.00000  -0.00000
 This molecule is an asymmetric top.
 Rotational symmetry number  2.
 Rotational temperatures (Kelvin)      4.03204     0.38503     0.35147
 Rotational constants (GHZ):          84.01428     8.02270     7.32337
 Zero-point vibrational energy      30788.6 (Joules/Mol)
                                    7.35865 (Kcal/Mol)
 Warning -- explicit consideration of   2 degrees of freedom as
           vibrations may cause significant error
 Vibrational temperatures:    354.94   398.95  1007.84  1009.04  1184.92
          (Kelvin)           3450.32

 Zero-point correction=                           0.011727 (Hartree/Particle)
 Thermal correction to Energy=                    0.015796
 Thermal correction to Enthalpy=                  0.016741
 Thermal correction to Gibbs Free Energy=        -0.014251
 Sum of electronic and zero-point Energies=           -474.679390
 Sum of electronic and thermal Energies=              -474.675321
 Sum of electronic and thermal Enthalpies=            -474.674377
 Sum of electronic and thermal Free Energies=         -474.705368

                     E (Thermal)             CV                S
                      KCal/Mol        Cal/Mol-Kelvin    Cal/Mol-Kelvin
 Total                    9.912             11.716             65.226
 Electronic               0.000              0.000              2.755
 Translational            0.889              2.981             38.041
 Rotational               0.889              2.981             20.326
 Vibrational              8.135              5.754              4.104
 Vibration     1          0.661              1.768              1.754
 Vibration     2          0.678              1.715              1.550

 Optimization completed.
    -- Stationary point found.
 Normal termination of Gaussian 09 at Wed Aug  3 23:01:17 2016.
