 Gaussian 09, Revision E.01,
 Gaussian 09:  EM64L-G09RevE.01 30-Nov-2015

 ------------------------------
 #p b3lyp/6-311++G(3df,2p) freq
 ------------------------------

 ---------
 b3lyp opt
 ---------
 Symbolic Z-matrix:
 Charge =  1 Multiplicity = 1

                         Standard orientation:
 ---------------------------------------------------------------------
 Center     Atomic      Atomic             Coordinates (Angstroms)
 Number     Number       Type             X           Y           Z
 ---------------------------------------------------------------------
      1         16           0        0.100510   -0.076962    1.376022
      2         16           0        0.100510   -0.076962   -1.376022
      3          6           0       -0.547634   -0.855494    0.000000
      4          6           0        0.100510    0.958609    0.000000
      5          1           0       -0.533555    1.844084    0.000000
 ---------------------------------------------------------------------

 SCF Done:  E(RB3LYP) =  -872.827628289     A.U. after   12 cycles

 The electronic state is 1-A'.
 Alpha  occ. eigenvalues --  -89.16645 -89.16645 -10.53070 -10.52377  -8.24870
 Alpha  occ. eigenvalues --   -8.24869  -6.21144  -6.21144  -6.20895  -6.20895
 Alpha  occ. eigenvalues --   -6.20427  -6.20427  -1.19865  -1.01437  -0.89631
 Alpha  occ. eigenvalues --   -0.77522  -0.71833  -0.69533  -0.62932  -0.62364
 Alpha  occ. eigenvalues --   -0.51621  -0.51152
 Alpha virt. eigenvalues --   -0.34552  -0.33348  -0.27690  -0.21168  -0.17523
 Alpha virt. eigenvalues --   -0.15526  -0.15291  -0.12394  -0.09414  -0.08862
 Alpha virt. eigenvalues --   -0.07671  -0.07330  -0.06487  -0.06242  -0.04958

 Mulliken charges:
               1
     1  S    0.201195
     2  S    0.201195
     3  C    0.243754
     4  C    0.139620
     5  H    0.214237
 Sum of Mulliken charges =   1.00000

 Dipole moment (field-independent basis, Debye):
    X=              0.4406    Y=              1.3750    Z=             -0.0000  Tot=              1.4438
 Quadrupole moment (field-independent basis, Debye-Ang):
   XX=            -34.2387   YY=            -28.8222   ZZ=            -23.8128
   XY=             -1.1569   XZ=             -0.0000   YZ=             -0.0000

  Exact polarizability:  36.356   4.179  47.845  -0.000   0.000  66.304
 Approx polarizability:  69.754  24.482 117.685  -0.000  -0.000 149.451

                      1                      2                      3
                     A'                     A'                     A'
 Frequencies --    417.5660               434.3749               547.1767
 Red. masses --      9.2098                 6.6218                 9.5519
 Frc consts  --      0.9461                 0.7361                 1.6850
 IR Inten    --     20.6208                 3.2124                 6.0680

                      4                      5                      6
                     A"                     A'                     A"
 Frequencies --    770.8252               842.1433               919.8964
 Red. masses --     10.7915                 5.2885                 5.6110
 Frc consts  --      3.7778                 2.2098                 2.7975
 IR Inten    --      8.3876                 6.4070                39.7925

                      7                      8                      9
                     A'                     A"                     A'
 Frequencies --    959.0571              1177.6319              3120.9176
 Red. masses --      1.6027                 1.2071                 1.0896
 Frc consts  --      0.8685                 0.9863                 6.2532
 IR Inten    --     36.0724                 0.2765                31.1260

 - Thermochemistry -
 -------------------
 Temperature   298.150 Kelvin.  Pressure   1.00000 Atm.
 Atom     1 has atomic number 16 and mass  31.97207

 Molecular mass:    88.95197 amu.
 Principal axes and moments of inertia in atomic units:
                           1         2         3
     Eigenvalues --   100.80408 444.02516 521.50597
           X           -0.00000   0.25259   0.96757
           Y            0.00000   0.96757  -0.25259
           Z            1.00000  -0.00000   0.00000
 This molecule is an asymmetric top.
 Rotational symmetry number  1.
 Rotational temperatures (Kelvin)      0.85923     0.19507     0.16608
 Rotational constants (GHZ):          17.90345     4.06450     3.46063
 Zero-point vibrational energy      54965.9 (Joules/Mol)
                                   13.13718 (Kcal/Mol)
 Warning -- explicit consideration of   3 degrees of freedom as
           vibrations may cause significant error
 Vibrational temperatures:    600.78   624.97   787.26  1109.04  1211.65
          (Kelvin)           1323.52  1379.87  1694.35  4490.30

 Zero-point correction=                           0.020935 (Hartree/Particle)
 Thermal correction to Energy=                    0.024795
 Thermal correction to Enthalpy=                  0.025740
 Thermal correction to Gibbs Free Energy=        -0.006102
 Sum of electronic and zero-point Energies=           -872.806693
 Sum of electronic and thermal Energies=              -872.802833
 Sum of electronic and thermal Enthalpies=            -872.801889
 Sum of electronic and thermal Free Energies=         -872.833731

                     E (Thermal)             CV                S
                      KCal/Mol        Cal/Mol-Kelvin    Cal/Mol-Kelvin
 Total                   15.559             12.336             67.017
 Electronic               0.000              0.000              0.000
 Translational            0.889              2.981             39.369
 Rotational               0.889              2.981             24.660
 Vibrational             13.782              6.375              2.987
 Vibration     1          0.781              1.432              0.900
 Vibration     2          0.795              1.395              0.844
 Vibration     3          0.902              1.146              0.550

 Optimization completed.
    -- Stationary point found.
 Normal termination of Gaussian 09 at Wed Aug  3 23:01:21 2016.
