 Gaussian 09, Revision E.01,
 Gaussian 09:  EM64L-G09RevE.01 30-Nov-2015

 ------------------------------
 #p b3lyp/6-311++G(3df,2p) freq
 ------------------------------

 ---------
 b3lyp opt
 ---------
 Symbolic Z-matrix:
 Charge =  1 Multiplicity = 1

                         Standard orientation:
 ---------------------------------------------------------------------
 Center     Atomic      Atomic             Coordinates (Angstroms)
 Number     Number       Type             X           Y           Z
 ---------------------------------------------------------------------
      1         16           0       -1.278356   -0.856463   -0.000000
      2         16           0        1.646220    0.331254    0.000000
      3          6           0       -1.260162    0.904504   -0.000000
      4          6           0       -0.000000    0.214898    0.000000
      5          1           0        1.675138    1.686941    0.000000
 ---------------------------------------------------------------------

 SCF Done:  E(RB3LYP) =  -872.838475934     A.U. after   12 cycles

 The electronic state is 1-A'.
 Alpha  occ. eigenvalues --  -89.17693 -89.14702 -10.52832 -10.49498  -8.25907
 Alpha  occ. eigenvalues --   -8.23116  -6.21975  -6.21943  -6.21653  -6.19401
 Alpha  occ. eigenvalues --   -6.18950  -6.18825  -1.18769  -1.05169  -0.86133
 Alpha  occ. eigenvalues --   -0.79304  -0.67970  -0.66031  -0.65510  -0.57928
 Alpha  occ. eigenvalues --   -0.53748  -0.50354
 Alpha virt. eigenvalues --   -0.37761  -0.27754  -0.25796  -0.22516  -0.18081
 Alpha virt. eigenvalues --   -0.16606  -0.13934  -0.10448  -0.10364  -0.09086
 Alpha virt. eigenvalues --   -0.08300  -0.07316  -0.06477  -0.05980  -0.05407

 Mulliken charges:
               1
     1  S    0.323478
     2  S    0.080666
     3  C   -0.076935
     4  C    0.461408
     5  H    0.211384
 Sum of Mulliken charges =   1.00000

 Dipole moment (field-independent basis, Debye):
    X=              1.3599    Y=             -0.5663    Z=              0.0000  Tot=              1.4731
 Quadrupole moment (field-independent basis, Debye-Ang):
   XX=            -22.6034   YY=            -29.1375   ZZ=            -33.2633
   XY=              8.6435   XZ=             -0.0000   YZ=              0.0000

  Exact polarizability:  76.032  12.092  54.276  -0.000  -0.000  34.508
 Approx polarizability: 153.324  39.147 119.562   0.000   0.000  58.494

                      1                      2                      3
                     A'                     A"                     A"
 Frequencies --    268.3398               399.6256               494.2349
 Red. masses --      9.6235                11.6214                 1.1032
 Frc consts  --      0.4083                 1.0935                 0.1588
 IR Inten    --      4.7417                 0.0168                28.5563

                      4                      5                      6
                     A'                     A'                     A'
 Frequencies --    550.5442               718.5937               887.5475
 Red. masses --     11.9613                12.4908                 2.7048
 Frc consts  --      2.1361                 3.8002                 1.2554
 IR Inten    --      1.6466                13.9262                62.1824

                      7                      8                      9
                     A'                     A'                     A'
 Frequencies --   1051.3232              1361.0616              2593.8384
 Red. masses --      1.7245                11.8715                 1.0391
 Frc consts  --      1.1230                12.9572                 4.1191
 IR Inten    --     43.0917                83.6160                43.7057

 - Thermochemistry -
 -------------------
 Temperature   298.150 Kelvin.  Pressure   1.00000 Atm.
 Atom     1 has atomic number 16 and mass  31.97207

 Molecular mass:    88.95197 amu.
 Principal axes and moments of inertia in atomic units:
                           1         2         3
     Eigenvalues --    97.21172 620.27366 717.48538
           X            0.95478  -0.29731  -0.00000
           Y            0.29731   0.95478  -0.00000
           Z            0.00000  -0.00000   1.00000
 This molecule is an asymmetric top.
 Rotational symmetry number  1.
 Rotational temperatures (Kelvin)      0.89098     0.13964     0.12072
 Rotational constants (GHZ):          18.56506     2.90959     2.51537
 Zero-point vibrational energy      49795.2 (Joules/Mol)
                                   11.90134 (Kcal/Mol)
 Warning -- explicit consideration of   4 degrees of freedom as
           vibrations may cause significant error
 Vibrational temperatures:    386.08   574.97   711.09   792.11  1033.89
          (Kelvin)           1276.98  1512.62  1958.26  3731.95

 Zero-point correction=                           0.018966 (Hartree/Particle)
 Thermal correction to Energy=                    0.023188
 Thermal correction to Enthalpy=                  0.024132
 Thermal correction to Gibbs Free Energy=        -0.008632
 Sum of electronic and zero-point Energies=           -872.819510
 Sum of electronic and thermal Energies=              -872.815288
 Sum of electronic and thermal Enthalpies=            -872.814344
 Sum of electronic and thermal Free Energies=         -872.847108

                     E (Thermal)             CV                S
                      KCal/Mol        Cal/Mol-Kelvin    Cal/Mol-Kelvin
 Total                   14.551             13.323             68.958
 Electronic               0.000              0.000              0.000
 Translational            0.889              2.981             39.369
 Rotational               0.889              2.981             25.273
 Vibrational             12.773              7.361              4.315
 Vibration     1          0.673              1.731              1.607
 Vibration     2          0.766              1.471              0.964
 Vibration     3          0.850              1.263              0.673
 Vibration     4          0.906              1.138              0.543

 Optimization completed.
    -- Stationary point found.
 Normal termination of Gaussian 09 at Wed Aug  3 23:01:40 2016.
