 Gaussian 09, Revision E.01,
 Gaussian 09:  EM64L-G09RevE.01 30-Nov-2015

 ------------------------------
 #p b3lyp/6-311++G(3df,2p) freq
 ------------------------------

 ---------
 b3lyp opt
 ---------
 Symbolic Z-matrix:
 Charge =  0 Multiplicity = 2

                         Standard orientation:
 ---------------------------------------------------------------------
 Center     Atomic      Atomic             Coordinates (Angstroms)
 Number     Number       Type             X           Y           Z
 ---------------------------------------------------------------------
      1         16           0       -1.441707   -0.617044   -0.000000
      2         16           0        1.700400    0.112274    0.000000
      3          6           0       -0.973414    1.238777   -0.000000
      4          6           0        0.000000    0.312515    0.000000
      5          1           0        1.701389   -1.231432    0.000000
 ---------------------------------------------------------------------

 SCF Done:  E(UB3LYP) =  -873.142119595     A.U. after   15 cycles

 The electronic state is 2-A".
 Alpha  occ. eigenvalues --  -88.91202 -88.90584 -10.26876 -10.22969  -7.99750
 Alpha  occ. eigenvalues --   -7.98892  -5.96091  -5.95707  -5.95297  -5.95112
 Alpha  occ. eigenvalues --   -5.95061  -5.94616  -0.92088  -0.80822  -0.65432
 Alpha  occ. eigenvalues --   -0.54081  -0.47029  -0.42464  -0.39501  -0.34920
 Alpha  occ. eigenvalues --   -0.31745  -0.27536  -0.23205
 Alpha virt. eigenvalues --   -0.05368  -0.03867  -0.03079  -0.01146   0.01422
 Alpha virt. eigenvalues --    0.03648   0.04003   0.04011   0.05916   0.06493
 Alpha virt. eigenvalues --    0.07318   0.07887   0.08392   0.09737   0.09751

  Beta  occ. eigenvalues --  -88.91168 -88.90230 -10.26598 -10.22564  -7.99719
  Beta  occ. eigenvalues --   -7.98572  -5.96080  -5.95695  -5.95177  -5.94878
  Beta  occ. eigenvalues --   -5.94405  -5.94015  -0.91044  -0.80470  -0.63222
  Beta  occ. eigenvalues --   -0.53652  -0.46415  -0.39722  -0.39039  -0.34292
  Beta  occ. eigenvalues --   -0.29595  -0.26795
  Beta virt. eigenvalues --   -0.14069  -0.05079  -0.02850  -0.01773  -0.00844
  Beta virt. eigenvalues --    0.01565   0.03748   0.04185   0.04193   0.06035
  Beta virt. eigenvalues --    0.06642   0.07495   0.07962   0.08516   0.09903

 Mulliken charges and spin densities:
               1          2
     1  S   -0.040801   0.584533
     2  S   -0.236645   0.058762
     3  C   -0.418415   0.230234
     4  C    0.546552   0.127773
     5  H    0.149308  -0.001302
 Sum of Mulliken charges =  -0.00000   1.00000

 Dipole moment (field-independent basis, Debye):
    X=              2.1167    Y=             -2.6991    Z=              0.0000  Tot=              3.4301
 Quadrupole moment (field-independent basis, Debye-Ang):
   XX=            -36.5179   YY=            -39.6097   ZZ=            -38.8293
   XY=              1.6826   XZ=             -0.0000   YZ=              0.0000

  Exact polarizability:  88.071   4.093  64.518  -0.000  -0.000  44.346
 Approx polarizability: 150.788  17.300 128.718   0.000   0.000  69.780

                      1                      2                      3
                     A"                     A'                     A"
 Frequencies --    223.2813               258.7379               375.7642
 Red. masses --      1.2488                 8.1755                 5.4298
 Frc consts  --      0.0367                 0.3225                 0.4517
 IR Inten    --      9.8035                 0.4163                 0.0513

                      4                      5                      6
                     A'                     A'                     A'
 Frequencies --    445.4416               576.1878               874.9106
 Red. masses --     14.5337                17.3128                 2.5557
 Frc consts  --      1.6991                 3.3865                 1.1526
 IR Inten    --      1.0366                 4.8862                22.1604

                      7                      8                      9
                     A'                     A'                     A'
 Frequencies --   1007.7608              1533.9797              2673.4041
 Red. masses --      1.7447                10.5934                 1.0386
 Frc consts  --      1.0439                14.6867                 4.3736
 IR Inten    --     23.2005                71.2857                 1.8748

 - Thermochemistry -
 -------------------
 Temperature   298.150 Kelvin.  Pressure   1.00000 Atm.
 Atom     1 has atomic number 16 and mass  31.97207

 Molecular mass:    88.95197 amu.
 Principal axes and moments of inertia in atomic units:
                           1         2         3
     Eigenvalues --   112.10149 626.49085 738.59233
           X            0.99205  -0.12588  -0.00000
           Y            0.12588   0.99205  -0.00000
           Z            0.00000  -0.00000   1.00000
 This molecule is an asymmetric top.
 Rotational symmetry number  1.
 Rotational temperatures (Kelvin)      0.77264     0.13825     0.11727
 Rotational constants (GHZ):          16.09917     2.88071     2.44349
 Zero-point vibrational energy      47668.0 (Joules/Mol)
                                   11.39293 (Kcal/Mol)
 Warning -- explicit consideration of   5 degrees of freedom as
           vibrations may cause significant error
 Vibrational temperatures:    321.25   372.27   540.64   640.89   829.00
          (Kelvin)           1258.80  1449.94  2207.05  3846.43

 Zero-point correction=                           0.018156 (Hartree/Particle)
 Thermal correction to Energy=                    0.022862
 Thermal correction to Enthalpy=                  0.023806
 Thermal correction to Gibbs Free Energy=        -0.010601
 Sum of electronic and zero-point Energies=           -873.123964
 Sum of electronic and thermal Energies=              -873.119257
 Sum of electronic and thermal Enthalpies=            -873.118313
 Sum of electronic and thermal Free Energies=         -873.152721

                     E (Thermal)             CV                S
                      KCal/Mol        Cal/Mol-Kelvin    Cal/Mol-Kelvin
 Total                   14.346             14.462             72.416
 Electronic               0.000              0.000              1.377
 Translational            0.889              2.981             39.369
 Rotational               0.889              2.981             25.454
 Vibrational             12.569              8.500              6.216
 Vibration     1          0.649              1.806              1.932
 Vibration     2          0.668              1.748              1.670
 Vibration     3          0.747              1.522              1.056
 Vibration     4          0.805              1.371              0.810
 Vibration     5          0.933              1.083              0.492

 Optimization completed.
    -- Stationary point found.
 Normal termination of Gaussian 09 at Wed Aug  3 23:02:30 2016.
