 Gaussian 09, Revision E.01,
 Gaussian 09:  EM64L-G09RevE.01 30-Nov-2015

 ------------------------------
 #p b3lyp/6-311++G(3df,2p) freq
 ------------------------------

 ---------
 b3lyp opt
 ---------
 Symbolic Z-matrix:
 Charge =  1 Multiplicity = 1

                         Standard orientation:
 ---------------------------------------------------------------------
 Center     Atomic      Atomic             Coordinates (Angstroms)
 Number     Number       Type             X           Y           Z
 ---------------------------------------------------------------------
      1         16           0       -1.277394   -0.869102   -0.000000
      2         16           0        1.621890    0.505423    0.000000
      3          6           0       -1.260381    0.894669   -0.000000
      4          6           0       -0.000000    0.204921    0.000000
      5          1           0        2.050354   -0.778662    0.000000
 ---------------------------------------------------------------------

 SCF Done:  E(RB3LYP) =  -872.837456922     A.U. after   12 cycles

 The electronic state is 1-A'.
 Alpha  occ. eigenvalues --  -89.17666 -89.14899 -10.52816 -10.49397  -8.25879
 Alpha  occ. eigenvalues --   -8.23299  -6.21942  -6.21925  -6.21619  -6.19580
 Alpha  occ. eigenvalues --   -6.19144  -6.19002  -1.18658  -1.05231  -0.86636
 Alpha  occ. eigenvalues --   -0.77953  -0.71251  -0.65979  -0.62210  -0.59129
 Alpha  occ. eigenvalues --   -0.53824  -0.50137
 Alpha virt. eigenvalues --   -0.37746  -0.27693  -0.26744  -0.21506  -0.17813
 Alpha virt. eigenvalues --   -0.16498  -0.14792  -0.10803  -0.10621  -0.09251
 Alpha virt. eigenvalues --   -0.08193  -0.07408  -0.06635  -0.05855  -0.05039

 Mulliken charges:
               1
     1  S    0.320482
     2  S    0.076409
     3  C   -0.088071
     4  C    0.491759
     5  H    0.199423
 Sum of Mulliken charges =   1.00000

 Dipole moment (field-independent basis, Debye):
    X=              1.7055    Y=             -2.3796    Z=             -0.0000  Tot=              2.9277
 Quadrupole moment (field-independent basis, Debye-Ang):
   XX=            -21.2515   YY=            -31.0639   ZZ=            -33.2646
   XY=              4.3953   XZ=              0.0000   YZ=             -0.0000

  Exact polarizability:  77.005   9.442  53.066   0.000  -0.000  34.321
 Approx polarizability: 155.737  37.610 119.850   0.000   0.000  58.283

                      1                      2                      3
                     A'                     A"                     A"
 Frequencies --    279.5887               397.8103               490.9277
 Red. masses --      7.4155                11.4524                 1.1291
 Frc consts  --      0.3415                 1.0678                 0.1603
 IR Inten    --      0.2890                 0.5459                 7.9990

                      4                      5                      6
                     A'                     A'                     A'
 Frequencies --    542.1577               702.1873               901.8968
 Red. masses --     19.8531                11.4431                 2.3169
 Frc consts  --      3.4382                 3.3243                 1.1104
 IR Inten    --      0.8433                14.0051                26.6593

                      7                      8                      9
                     A'                     A'                     A'
 Frequencies --   1054.6433              1361.3814              2609.8189
 Red. masses --      1.9905                10.0550                 1.0391
 Frc consts  --      1.3045                10.9798                 4.1699
 IR Inten    --     76.9869                90.4342                31.7258

 - Thermochemistry -
 -------------------
 Temperature   298.150 Kelvin.  Pressure   1.00000 Atm.
 Atom     1 has atomic number 16 and mass  31.97207

 Molecular mass:    88.95197 amu.
 Principal axes and moments of inertia in atomic units:
                           1         2         3
     Eigenvalues --    95.33033 628.01135 723.34169
           X            0.94366  -0.33092  -0.00000
           Y            0.33092   0.94366  -0.00000
           Z            0.00000   0.00000   1.00000
 This molecule is an asymmetric top.
 Rotational symmetry number  1.
 Rotational temperatures (Kelvin)      0.90857     0.13792     0.11974
 Rotational constants (GHZ):          18.93145     2.87374     2.49501
 Zero-point vibrational energy      49886.7 (Joules/Mol)
                                   11.92322 (Kcal/Mol)
 Warning -- explicit consideration of   4 degrees of freedom as
           vibrations may cause significant error
 Vibrational temperatures:    402.27   572.36   706.33   780.04  1010.29
          (Kelvin)           1297.63  1517.39  1958.72  3754.94

 Zero-point correction=                           0.019001 (Hartree/Particle)
 Thermal correction to Energy=                    0.023221
 Thermal correction to Enthalpy=                  0.024165
 Thermal correction to Gibbs Free Energy=        -0.008586
 Sum of electronic and zero-point Energies=           -872.818456
 Sum of electronic and thermal Energies=              -872.814236
 Sum of electronic and thermal Enthalpies=            -872.813292
 Sum of electronic and thermal Free Energies=         -872.846043

                     E (Thermal)             CV                S
                      KCal/Mol        Cal/Mol-Kelvin    Cal/Mol-Kelvin
 Total                   14.571             13.340             68.930
 Electronic               0.000              0.000              0.000
 Translational            0.889              2.981             39.369
 Rotational               0.889              2.981             25.274
 Vibrational             12.794              7.378              4.287
 Vibration     1          0.680              1.711              1.536
 Vibration     2          0.764              1.475              0.971
 Vibration     3          0.847              1.270              0.681
 Vibration     4          0.897              1.157              0.561

 Optimization completed.
    -- Stationary point found.
 Normal termination of Gaussian 09 at Wed Aug  3 23:01:41 2016.
