 Gaussian 09, Revision E.01,
 Gaussian 09:  EM64L-G09RevE.01 30-Nov-2015

 ------------------------------
 #p b3lyp/6-311++G(3df,2p) freq
 ------------------------------

 ---------
 b3lyp opt
 ---------
 Symbolic Z-matrix:
 Charge =  0 Multiplicity = 2

                         Standard orientation:
 ---------------------------------------------------------------------
 Center     Atomic      Atomic             Coordinates (Angstroms)
 Number     Number       Type             X           Y           Z
 ---------------------------------------------------------------------
      1         16           0       -0.031428   -0.928563    0.000000
      2          6           0       -0.000000    0.702655   -0.000000
      3          6           0       -0.132527    1.973126   -0.000000
      4          1           0        1.298011   -1.197683    0.000000
 ---------------------------------------------------------------------

 SCF Done:  E(UB3LYP) =  -474.885534378     A.U. after   17 cycles

 The electronic state is 2-A".
 Alpha  occ. eigenvalues --  -88.94741 -10.22492 -10.21332  -8.03112  -5.99337
 Alpha  occ. eigenvalues --   -5.99059  -5.98950  -0.87063  -0.75261  -0.55754
 Alpha  occ. eigenvalues --   -0.45128  -0.40326  -0.30186  -0.29736  -0.28507
 Alpha virt. eigenvalues --   -0.05272  -0.02200  -0.00840   0.00157   0.03292
 Alpha virt. eigenvalues --    0.04034   0.04251   0.05496   0.08334   0.08642
 Alpha virt. eigenvalues --    0.08960   0.09218   0.12887   0.13788   0.14802

  Beta  occ. eigenvalues --  -88.94540 -10.22069 -10.20708  -8.02930  -5.99227
  Beta  occ. eigenvalues --   -5.98851  -5.98428  -0.86010  -0.72516  -0.55141
  Beta  occ. eigenvalues --   -0.44515  -0.36712  -0.29468  -0.28528
  Beta virt. eigenvalues --   -0.18269  -0.05014  -0.01903   0.00411   0.01882
  Beta virt. eigenvalues --    0.03390   0.04257   0.05419   0.06000   0.08469
  Beta virt. eigenvalues --    0.08718   0.09302   0.09659   0.13041   0.14398

 Mulliken charges and spin densities:
               1          2
     1  S   -0.212771   0.334171
     2  C    0.361651   0.293659
     3  C   -0.313346   0.379452
     4  H    0.164467  -0.007283
 Sum of Mulliken charges =  -0.00000   1.00000

 Dipole moment (field-independent basis, Debye):
    X=              1.0757    Y=             -4.4894    Z=              0.0000  Tot=              4.6165
 Quadrupole moment (field-independent basis, Debye-Ang):
   XX=            -23.7006   YY=            -31.8666   ZZ=            -25.0174
   XY=             -0.9290   XZ=              0.0000   YZ=              0.0000

  Exact polarizability:  34.621  -4.568  72.367   0.000  -0.001  34.870
 Approx polarizability:  53.290  -9.420 126.759  -0.000  -0.000  47.802

                      1                      2                      3
                     A"                     A'                     A'
 Frequencies --    181.6283               229.2674               760.8872
 Red. masses --      8.6630                 7.2034                16.0986
 Frc consts  --      0.1684                 0.2231                 5.4913
 IR Inten    --     14.6016                 0.2907                 1.7869

                      4                      5                      6
                     A'                     A'                     A'
 Frequencies --    988.9378              1893.7518              2557.2106
 Red. masses --      1.1225                11.6030                 1.0404
 Frc consts  --      0.6468                24.5169                 4.0083
 IR Inten    --     12.2660               107.7133                 1.2210

 - Thermochemistry -
 -------------------
 Temperature   298.150 Kelvin.  Pressure   1.00000 Atm.
 Atom     1 has atomic number 16 and mass  31.97207

 Molecular mass:    56.97990 amu.
 Principal axes and moments of inertia in atomic units:
                           1         2         3
     Eigenvalues --     6.19872 292.13413 298.33285
           X           -0.04681   0.99890   0.00000
           Y            0.99890   0.04681   0.00000
           Z           -0.00000  -0.00000   1.00000
 This molecule is an asymmetric top.
 Rotational symmetry number  1.
 Rotational temperatures (Kelvin)     13.97286     0.29649     0.29033
 Rotational constants (GHZ):         291.14751     6.17778     6.04942
 Zero-point vibrational energy      39546.6 (Joules/Mol)
                                    9.45188 (Kcal/Mol)
 Warning -- explicit consideration of   2 degrees of freedom as
           vibrations may cause significant error
 Vibrational temperatures:    261.32   329.86  1094.75  1422.86  2724.68
          (Kelvin)           3679.25

 Zero-point correction=                           0.015063 (Hartree/Particle)
 Thermal correction to Energy=                    0.019131
 Thermal correction to Enthalpy=                  0.020076
 Thermal correction to Gibbs Free Energy=        -0.010749
 Sum of electronic and zero-point Energies=           -474.870472
 Sum of electronic and thermal Energies=              -474.866403
 Sum of electronic and thermal Enthalpies=            -474.865459
 Sum of electronic and thermal Free Energies=         -474.896283

                     E (Thermal)             CV                S
                      KCal/Mol        Cal/Mol-Kelvin    Cal/Mol-Kelvin
 Total                   12.005             10.749             64.875
 Electronic               0.000              0.000              1.377
 Translational            0.889              2.981             38.041
 Rotational               0.889              2.981             20.918
 Vibrational             10.228              4.787              4.538
 Vibration     1          0.630              1.865              2.312
 Vibration     2          0.652              1.796              1.885

 Optimization completed.
    -- Stationary point found.
 Normal termination of Gaussian 09 at Wed Aug  3 23:01:45 2016.
