 Gaussian 09, Revision E.01,
 Gaussian 09:  EM64L-G09RevE.01 30-Nov-2015

 ------------------------------
 #p b3lyp/6-311++G(3df,2p) freq
 ------------------------------

 ---------
 b3lyp opt
 ---------
 Symbolic Z-matrix:
 Charge =  0 Multiplicity = 2

                         Standard orientation:
 ---------------------------------------------------------------------
 Center     Atomic      Atomic             Coordinates (Angstroms)
 Number     Number       Type             X           Y           Z
 ---------------------------------------------------------------------
      1         16           0       -1.210152   -0.518647   -0.000099
      2         16           0        1.901609    0.152705   -0.000097
      3          6           0        0.413940   -0.273435    0.000500
      4          6           0       -2.030482    0.946542    0.000005
      5          1           0       -1.364056    1.816435    0.000111
 ---------------------------------------------------------------------

 SCF Done:  E(UB3LYP) =  -873.111319264     A.U. after   20 cycles

 The electronic state is 2-A.
 Alpha  occ. eigenvalues --  -88.93212 -88.90778 -10.29100 -10.21099  -8.01325
 Alpha  occ. eigenvalues --   -7.99345  -5.97675  -5.97089  -5.97068  -5.95438
 Alpha  occ. eigenvalues --   -5.95301  -5.95198  -0.88857  -0.82119  -0.66603
 Alpha  occ. eigenvalues --   -0.53781  -0.47384  -0.41863  -0.40765  -0.34852
 Alpha  occ. eigenvalues --   -0.33355  -0.25872  -0.20875
 Alpha virt. eigenvalues --   -0.13153  -0.08525  -0.01490   0.00873   0.01461
 Alpha virt. eigenvalues --    0.02760   0.03797   0.04993   0.05954   0.06192
 Alpha virt. eigenvalues --    0.06472   0.07552   0.09764   0.10312   0.11180

  Beta  occ. eigenvalues --  -88.93312 -88.90665 -10.28619 -10.20199  -8.01405
  Beta  occ. eigenvalues --   -7.99242  -5.97743  -5.97330  -5.97141  -5.95391
  Beta  occ. eigenvalues --   -5.95277  -5.94787  -0.88117  -0.81611  -0.64556
  Beta  occ. eigenvalues --   -0.52980  -0.46731  -0.40472  -0.39900  -0.34734
  Beta  occ. eigenvalues --   -0.31561  -0.24411
  Beta virt. eigenvalues --   -0.12621  -0.11661  -0.04845  -0.01327   0.01110
  Beta virt. eigenvalues --    0.01572   0.02848   0.03893   0.04974   0.05969
  Beta virt. eigenvalues --    0.06263   0.06554   0.07714   0.10507   0.10700

 Mulliken charges and spin densities:
               1          2
     1  S   -0.080321  -0.091428
     2  S   -0.123385   0.214370
     3  C    0.422889   0.255739
     4  C   -0.375158   0.636259
     5  H    0.155975  -0.014940
 Sum of Mulliken charges =  -0.00000   1.00000

 Dipole moment (field-independent basis, Debye):
    X=              2.5453    Y=             -0.5296    Z=             -0.0004  Tot=              2.5998
 Quadrupole moment (field-independent basis, Debye-Ang):
   XX=            -43.0979   YY=            -36.2704   ZZ=            -38.5272
   XY=              2.8369   XZ=             -0.0010   YZ=              0.0012

  Exact polarizability: 136.375 -11.661  56.793   0.002  -0.004  45.200
 Approx polarizability: 360.557 -49.986 111.544   0.014  -0.014  70.205

                      1                      2                      3
                      A                      A                      A
 Frequencies --    147.6484               189.0469               406.2300
 Red. masses --      6.5391                 9.5971                 8.5177
 Frc consts  --      0.0840                 0.2021                 0.8282
 IR Inten    --      8.9633                 0.2272                30.4927

                      4                      5                      6
                      A                      A                      A
 Frequencies --    530.4203               551.7003               700.7172
 Red. masses --      1.2293                18.1982                10.0888
 Frc consts  --      0.2038                 3.2635                 2.9186
 IR Inten    --     66.9332                20.3798                10.5627

                      7                      8                      9
                      A                      A                      A
 Frequencies --    964.8726              1412.8728              3052.6125
 Red. masses --      1.1844                13.4593                 1.0857
 Frc consts  --      0.6497                15.8299                 5.9608
 IR Inten    --     59.4324               281.3440                 9.3719

 - Thermochemistry -
 -------------------
 Temperature   298.150 Kelvin.  Pressure   1.00000 Atm.
 Atom     1 has atomic number 16 and mass  31.97207

 Molecular mass:    88.95197 amu.
 Principal axes and moments of inertia in atomic units:
                           1         2         3
     Eigenvalues --    86.60529 770.82869 857.43396
           X            0.99992  -0.01284  -0.00000
           Y            0.01284   0.99992   0.00001
           Z            0.00000  -0.00001   1.00000
 This molecule is an asymmetric top.
 Rotational symmetry number  1.
 Rotational temperatures (Kelvin)      1.00010     0.11236     0.10102
 Rotational constants (GHZ):          20.83869     2.34130     2.10482
 Zero-point vibrational energy      47588.2 (Joules/Mol)
                                   11.37385 (Kcal/Mol)
 Warning -- explicit consideration of   5 degrees of freedom as
           vibrations may cause significant error
 Vibrational temperatures:    212.43   272.00   584.47   763.16   793.77
          (Kelvin)           1008.17  1388.23  2032.81  4392.02

 Zero-point correction=                           0.018125 (Hartree/Particle)
 Thermal correction to Energy=                    0.023040
 Thermal correction to Enthalpy=                  0.023984
 Thermal correction to Gibbs Free Energy=        -0.011050
 Sum of electronic and zero-point Energies=           -873.093194
 Sum of electronic and thermal Energies=              -873.088280
 Sum of electronic and thermal Enthalpies=            -873.087336
 Sum of electronic and thermal Free Energies=         -873.122369

                     E (Thermal)             CV                S
                      KCal/Mol        Cal/Mol-Kelvin    Cal/Mol-Kelvin
 Total                   14.458             14.844             73.734
 Electronic               0.000              0.000              1.377
 Translational            0.889              2.981             39.369
 Rotational               0.889              2.981             25.551
 Vibrational             12.680              8.882              7.436
 Vibration     1          0.617              1.905              2.702
 Vibration     2          0.633              1.855              2.237
 Vibration     3          0.771              1.457              0.940
 Vibration     4          0.885              1.183              0.586
 Vibration     5          0.907              1.136              0.541

 Optimization completed.
    -- Stationary point found.
 Normal termination of Gaussian 09 at Wed Aug  3 20:59:56 2016.
