 Gaussian 09, Revision E.01,
 Gaussian 09:  EM64L-G09RevE.01 30-Nov-2015

 ------------------------------
 #p b3lyp/6-311++G(3df,2p) freq
 ------------------------------

 ---------
 b3lyp opt
 ---------
 Symbolic Z-matrix:
 Charge =  1 Multiplicity = 3

                         Standard orientation:
 ---------------------------------------------------------------------
 Center     Atomic      Atomic             Coordinates (Angstroms)
 Number     Number       Type             X           Y           Z
 ---------------------------------------------------------------------
      1         16           0        0.000000    0.000000   -1.040224
      2          6           0       -0.000000   -0.000000    1.776206
      3          6           0       -0.000000   -0.000000    0.522610
      4          1           0       -0.000000   -0.000000    2.850676
 ---------------------------------------------------------------------

 SCF Done:  E(UB3LYP) =  -474.628874163     A.U. after   14 cycles

 The electronic state is 3-SG.
 Alpha  occ. eigenvalues --  -89.19641 -10.52222 -10.50708  -8.27729  -6.24040
 Alpha  occ. eigenvalues --   -6.24040  -6.23584  -1.12350  -1.03444  -0.82098
 Alpha  occ. eigenvalues --   -0.73523  -0.65670  -0.65670  -0.54625  -0.54625
 Alpha virt. eigenvalues --   -0.26211  -0.26211  -0.18606  -0.16712  -0.13789
 Alpha virt. eigenvalues --   -0.10083  -0.10083  -0.10066  -0.06667  -0.06667
 Alpha virt. eigenvalues --   -0.06217  -0.04812  -0.04811  -0.01149  -0.00470

  Beta  occ. eigenvalues --  -89.18832 -10.51056 -10.50551  -8.26997  -6.23147
  Beta  occ. eigenvalues --   -6.22552  -6.22552  -1.10052  -0.98698  -0.80266
  Beta  occ. eigenvalues --   -0.71223  -0.61732  -0.61732
  Beta virt. eigenvalues --   -0.42630  -0.42630  -0.22823  -0.22823  -0.16921
  Beta virt. eigenvalues --   -0.16461  -0.13161  -0.09491  -0.09491  -0.09354
  Beta virt. eigenvalues --   -0.06092  -0.06092  -0.05789  -0.01996  -0.01996

 Mulliken charges and spin densities:
               1          2
     1  S    0.218491   1.243170
     2  C    0.441660   0.938621
     3  C   -0.074332  -0.154419
     4  H    0.414181  -0.027373
 Sum of Mulliken charges =   1.00000   2.00000

 Dipole moment (field-independent basis, Debye):
    X=             -0.0000    Y=             -0.0000    Z=              2.1600  Tot=              2.1600
 Quadrupole moment (field-independent basis, Debye-Ang):
   XX=            -21.2965   YY=            -21.2965   ZZ=             -3.6562
   XY=              0.0000   XZ=              0.0000   YZ=              0.0000

  Exact polarizability:  22.527   0.000  22.520  -0.002  -0.001  62.108
 Approx polarizability:  32.981   0.000  32.981  -0.000  -0.000 132.138

                      1                      2                      3
                     PI                     PI                     PI
 Frequencies --    330.3911               330.3915               615.4274
 Red. masses --      4.8343                 4.8342                 1.3204
 Frc consts  --      0.3109                 0.3109                 0.2946
 IR Inten    --     10.7892                10.7911                22.9332

                      4                      5                      6
                     PI                     SG                     SG
 Frequencies --    615.4447               882.5584              1759.7582
 Red. masses --      1.3204                10.5067                 7.2601
 Frc consts  --      0.2947                 4.8218                13.2464
 IR Inten    --     22.9097                 0.0501               118.1740

                      7
                     SG
 Frequencies --   3329.2137
 Red. masses --      1.1273
 Frc consts  --      7.3617
 IR Inten    --    201.2706

 - Thermochemistry -
 -------------------
 Temperature   298.150 Kelvin.  Pressure   1.00000 Atm.
 Atom     1 has atomic number 16 and mass  31.97207

 Molecular mass:    56.97990 amu.
 Principal axes and moments of inertia in atomic units:
                           1         2         3
     Eigenvalues --     0.00000 299.20040 299.20040
           X           -0.00000   0.14149   0.98994
           Y           -0.00000   0.98994  -0.14149
           Z            1.00000   0.00000   0.00000
 This molecule is a prolate symmetric top.
 Rotational symmetry number  1.
 Rotational temperature (Kelvin)      0.28948
 Rotational constant (GHZ):           6.031881
 Zero-point vibrational energy      47032.3 (Joules/Mol)
                                   11.24099 (Kcal/Mol)
 Warning -- explicit consideration of   4 degrees of freedom as
           vibrations may cause significant error
 Vibrational temperatures:    475.36   475.36   885.46   885.49  1269.80
          (Kelvin)           2531.90  4789.99

 Zero-point correction=                           0.017914 (Hartree/Particle)
 Thermal correction to Energy=                    0.021404
 Thermal correction to Enthalpy=                  0.022348
 Thermal correction to Gibbs Free Energy=        -0.005930
 Sum of electronic and zero-point Energies=           -474.610961
 Sum of electronic and thermal Energies=              -474.607470
 Sum of electronic and thermal Enthalpies=            -474.606526
 Sum of electronic and thermal Free Energies=         -474.634804

                     E (Thermal)             CV                S
                      KCal/Mol        Cal/Mol-Kelvin    Cal/Mol-Kelvin
 Total                   13.431             10.750             59.515
 Electronic               0.000              0.000              2.183
 Translational            0.889              2.981             38.041
 Rotational               0.592              1.987             15.773
 Vibrational             11.950              5.782              3.518
 Vibration     1          0.713              1.615              1.258
 Vibration     2          0.713              1.615              1.258
 Vibration     3          0.975              0.999              0.424
 Vibration     4          0.975              0.999              0.424

 Optimization completed.
    -- Stationary point found.
 Normal termination of Gaussian 09 at Wed Aug  3 20:21:54 2016.
