 Gaussian 09, Revision E.01,
 Gaussian 09:  EM64L-G09RevE.01 30-Nov-2015

 ------------------------------
 #p b3lyp/6-311++G(3df,2p) freq
 ------------------------------

 ---------
 b3lyp opt
 ---------
 Symbolic Z-matrix:
 Charge =  2 Multiplicity = 2

                         Standard orientation:
 ---------------------------------------------------------------------
 Center     Atomic      Atomic             Coordinates (Angstroms)
 Number     Number       Type             X           Y           Z
 ---------------------------------------------------------------------
      1         16           0       -1.200186   -0.508808   -0.103332
      2         16           0        1.925954    0.165619    0.005527
      3          6           0        0.473990   -0.132447    0.020863
      4          6           0       -2.178574    1.216360    0.046239
      5          1           0       -1.384797   -1.012451    1.162270
 ---------------------------------------------------------------------

 SCF Done:  E(UB3LYP) =  -872.192179216     A.U. after   20 cycles

 The electronic state is 2-A.
 Alpha  occ. eigenvalues --  -89.42080 -89.39020 -10.79438 -10.75397  -8.50103
 Alpha  occ. eigenvalues --   -8.47104  -6.46410  -6.46038  -6.45773  -6.43144
 Alpha  occ. eigenvalues --   -6.43028  -6.43013  -1.33947  -1.27896  -1.08403
 Alpha  occ. eigenvalues --   -1.00719  -0.92036  -0.87855  -0.83926  -0.80546
 Alpha  occ. eigenvalues --   -0.76823  -0.71803
 Alpha virt. eigenvalues --   -0.59239  -0.56472  -0.54926  -0.45721  -0.44786
 Alpha virt. eigenvalues --   -0.41417  -0.32375  -0.28663  -0.26507  -0.25998
 Alpha virt. eigenvalues --   -0.25099  -0.24370  -0.23720  -0.21620  -0.21065

  Beta  occ. eigenvalues --  -89.42103 -89.39019 -10.77879 -10.75318  -8.50118
  Beta  occ. eigenvalues --   -8.47103  -6.46426  -6.46065  -6.45809  -6.43142
  Beta  occ. eigenvalues --   -6.43037  -6.43003  -1.33768  -1.27656  -1.05502
  Beta  occ. eigenvalues --   -0.99373  -0.91863  -0.87432  -0.83167  -0.80319
  Beta  occ. eigenvalues --   -0.75872
  Beta virt. eigenvalues --   -0.57751  -0.56808  -0.54762  -0.53954  -0.44823
  Beta virt. eigenvalues --   -0.43125  -0.41175  -0.32330  -0.28542  -0.26223
  Beta virt. eigenvalues --   -0.25862  -0.25036  -0.24015  -0.23422  -0.21522

 Mulliken charges and spin densities:
               1          2
     1  S    0.220174   0.028972
     2  S    0.468673  -0.000828
     3  C    0.602379   0.005906
     4  C    0.419807   0.955719
     5  H    0.288968   0.010232
 Sum of Mulliken charges =   2.00000   1.00000

 Dipole moment (field-independent basis, Debye):
    X=             -1.5497    Y=              0.0744    Z=              1.1195  Tot=              1.9132
 Quadrupole moment (field-independent basis, Debye-Ang):
   XX=              1.9826   YY=            -25.6779   ZZ=            -27.8852
   XY=              0.1848   XZ=             -1.5643   YZ=             -1.5295

  Exact polarizability:  85.381  -6.303  44.777  -1.365  -1.108  33.158
 Approx polarizability: 176.814 -11.808  84.413  -2.090  -0.492  55.999

                      1                      2                      3
                      A                      A                      A
 Frequencies --    124.6168               294.4654               326.6975
 Red. masses --     14.4523                 4.5444                13.6497
 Frc consts  --      0.1322                 0.2322                 0.8583
 IR Inten    --      0.0769                19.2783               140.2234

                      4                      5                      6
                      A                      A                      A
 Frequencies --    368.3831               473.5479               538.9766
 Red. masses --     12.7886                 1.6639                 3.4827
 Frc consts  --      1.0225                 0.2198                 0.5961
 IR Inten    --     23.0840                11.1644                13.4229

                      7                      8                      9
                      A                      A                      A
 Frequencies --    925.3066              1568.8980              2446.4955
 Red. masses --      1.1492                13.3634                 1.0392
 Frc consts  --      0.5797                19.3802                 3.6647
 IR Inten    --     10.2989                57.5132               215.6337

 - Thermochemistry -
 -------------------
 Temperature   298.150 Kelvin.  Pressure   1.00000 Atm.
 Atom     1 has atomic number 16 and mass  31.97207

 Molecular mass:    88.95197 amu.
 Principal axes and moments of inertia in atomic units:
                           1         2         3
     Eigenvalues --   106.55519 813.79893 908.53522
           X            0.99995   0.00686  -0.00745
           Y           -0.00719   0.99897  -0.04488
           Z            0.00714   0.04493   0.99896
 This molecule is an asymmetric top.
 Rotational symmetry number  1.
 Rotational temperatures (Kelvin)      0.81285     0.10643     0.09533
 Rotational constants (GHZ):          16.93715     2.21767     1.98643
 Zero-point vibrational energy      42272.4 (Joules/Mol)
                                   10.10334 (Kcal/Mol)
 Warning -- explicit consideration of   6 degrees of freedom as
           vibrations may cause significant error
 Vibrational temperatures:    179.30   423.67   470.04   530.02   681.33
          (Kelvin)            775.47  1331.31  2257.29  3519.96

 Zero-point correction=                           0.016101 (Hartree/Particle)
 Thermal correction to Energy=                    0.021272
 Thermal correction to Enthalpy=                  0.022216
 Thermal correction to Gibbs Free Energy=        -0.013363
 Sum of electronic and zero-point Energies=           -872.176079
 Sum of electronic and thermal Energies=              -872.170907
 Sum of electronic and thermal Enthalpies=            -872.169963
 Sum of electronic and thermal Free Energies=         -872.205543

                     E (Thermal)             CV                S
                      KCal/Mol        Cal/Mol-Kelvin    Cal/Mol-Kelvin
 Total                   13.349             15.733             74.884
 Electronic               0.000              0.000              1.377
 Translational            0.889              2.981             39.369
 Rotational               0.889              2.981             25.869
 Vibrational             11.571              9.772              8.269
 Vibration     1          0.610              1.928              3.027
 Vibration     2          0.689              1.684              1.448
 Vibration     3          0.710              1.622              1.276
 Vibration     4          0.741              1.537              1.087
 Vibration     5          0.830              1.309              0.728
 Vibration     6          0.894              1.164              0.567

 Normal termination of Gaussian 09 at Wed Aug  3 20:13:13 2016.
