 Gaussian 09, Revision E.01,
 Gaussian 09:  EM64L-G09RevE.01 30-Nov-2015

 ------------------------------
 #p b3lyp/6-311++G(3df,2p) freq
 ------------------------------

 ---------
 b3lyp opt
 ---------
 Symbolic Z-matrix:
 Charge =  0 Multiplicity = 2

                         Standard orientation:
 ---------------------------------------------------------------------
 Center     Atomic      Atomic             Coordinates (Angstroms)
 Number     Number       Type             X           Y           Z
 ---------------------------------------------------------------------
      1         16           0        0.000000    0.775273    0.000000
      2          6           0        0.536628   -0.857489   -0.000000
      3          6           0       -0.786296   -0.986383   -0.000000
      4          1           0        1.498005   -1.341133   -0.000000
 ---------------------------------------------------------------------

 SCF Done:  E(UB3LYP) =  -474.911580699     A.U. after   14 cycles

 The electronic state is 2-A".
 Alpha  occ. eigenvalues --  -88.91155 -10.24441 -10.23406  -7.99441  -5.95865
 Alpha  occ. eigenvalues --   -5.95566  -5.95070  -0.91118  -0.66291  -0.58917
 Alpha  occ. eigenvalues --   -0.43219  -0.40899  -0.34962  -0.27868  -0.25193
 Alpha virt. eigenvalues --   -0.04167  -0.03462  -0.00584   0.00667   0.04282
 Alpha virt. eigenvalues --    0.04570   0.05367   0.07123   0.08412   0.08770
 Alpha virt. eigenvalues --    0.09246   0.11493   0.11511   0.14197   0.15025

  Beta  occ. eigenvalues --  -88.90723 -10.24117 -10.23151  -7.99050  -5.95339
  Beta  occ. eigenvalues --   -5.94809  -5.94526  -0.89936  -0.63738  -0.58389
  Beta  occ. eigenvalues --   -0.42256  -0.36979  -0.34330  -0.27228
  Beta virt. eigenvalues --   -0.14785  -0.03111  -0.02400  -0.00252   0.00884
  Beta virt. eigenvalues --    0.04470   0.04897   0.05502   0.07146   0.08562
  Beta virt. eigenvalues --    0.09198   0.09430   0.11650   0.11959   0.14281

 Mulliken charges and spin densities:
               1          2
     1  S    0.050667   0.685950
     2  C    0.193618   0.172955
     3  C   -0.469198   0.154822
     4  H    0.224913  -0.013727
 Sum of Mulliken charges =  -0.00000   1.00000

 Dipole moment (field-independent basis, Debye):
    X=              2.5735    Y=              0.4665    Z=              0.0000  Tot=              2.6154
 Quadrupole moment (field-independent basis, Debye-Ang):
   XX=            -25.7328   YY=            -24.2921   ZZ=            -24.9152
   XY=             -4.0382   XZ=             -0.0000   YZ=              0.0000

  Exact polarizability:  39.170   3.025  53.250   0.000  -0.001  30.021
 Approx polarizability:  64.996   7.969 104.385   0.000   0.000  45.924

                      1                      2                      3
                     A'                     A"                     A'
 Frequencies --    467.1961               710.8444               794.4306
 Red. masses --     12.3389                 1.3182                 6.7450
 Frc consts  --      1.5868                 0.3924                 2.5081
 IR Inten    --      1.9985                28.1677                 3.5315

                      4                      5                      6
                     A'                     A'                     A'
 Frequencies --    988.7143              1511.0771              3258.2571
 Red. masses --      1.1927                 7.5425                 1.1070
 Frc consts  --      0.6869                10.1471                 6.9239
 IR Inten    --     13.2563                21.1566                13.1530

 - Thermochemistry -
 -------------------
 Temperature   298.150 Kelvin.  Pressure   1.00000 Atm.
 Atom     1 has atomic number 16 and mass  31.97207

 Molecular mass:    56.97990 amu.
 Principal axes and moments of inertia in atomic units:
                           1         2         3
     Eigenvalues --    46.36896 148.59628 194.96525
           X            0.06282   0.99803   0.00000
           Y            0.99803  -0.06282  -0.00000
           Z            0.00000  -0.00000   1.00000
 This molecule is an asymmetric top.
 Rotational symmetry number  1.
 Rotational temperatures (Kelvin)      1.86793     0.58288     0.44425
 Rotational constants (GHZ):          38.92132    12.14526     9.25673
 Zero-point vibrational energy      46238.8 (Joules/Mol)
                                   11.05133 (Kcal/Mol)
 Warning -- explicit consideration of   1 degrees of freedom as
           vibrations may cause significant error
 Vibrational temperatures:    672.19  1022.75  1143.01  1422.54  2174.10
          (Kelvin)           4687.90

 Zero-point correction=                           0.017611 (Hartree/Particle)
 Thermal correction to Energy=                    0.020925
 Thermal correction to Enthalpy=                  0.021869
 Thermal correction to Gibbs Free Energy=        -0.007875
 Sum of electronic and zero-point Energies=           -474.893969
 Sum of electronic and thermal Energies=              -474.890656
 Sum of electronic and thermal Enthalpies=            -474.889711
 Sum of electronic and thermal Free Energies=         -474.919456

                     E (Thermal)             CV                S
                      KCal/Mol        Cal/Mol-Kelvin    Cal/Mol-Kelvin
 Total                   13.131              9.215             62.602
 Electronic               0.000              0.000              1.377
 Translational            0.889              2.981             38.041
 Rotational               0.889              2.981             21.823
 Vibrational             11.353              3.253              1.360
 Vibration     1          0.824              1.323              0.745

 Optimization completed.
    -- Stationary point found.
 Normal termination of Gaussian 09 at Wed Aug  3 23:01:45 2016.
