 Gaussian 09, Revision E.01,
 Gaussian 09:  EM64L-G09RevE.01 30-Nov-2015

 ------------------------------
 #p b3lyp/6-311++G(3df,2p) freq
 ------------------------------

 ---------
 b3lyp opt
 ---------
 Symbolic Z-matrix:
 Charge =  0 Multiplicity = 4

                         Standard orientation:
 ---------------------------------------------------------------------
 Center     Atomic      Atomic             Coordinates (Angstroms)
 Number     Number       Type             X           Y           Z
 ---------------------------------------------------------------------
      1         16           0       -1.868204   -0.069931   -0.000302
      2         16           0        1.073800   -0.429579    0.000250
      3          6           0        2.464169    0.454797   -0.000785
      4          6           0       -0.315851    0.598099    0.000892
      5          1           0       -0.179444    1.674783    0.000190
 ---------------------------------------------------------------------

 SCF Done:  E(UB3LYP) =  -873.050967711     A.U. after   19 cycles

 The electronic state is 4-A.
 Alpha  occ. eigenvalues --  -88.92555 -88.92133 -10.26296 -10.23913  -8.00847
 Alpha  occ. eigenvalues --   -8.00490  -5.97712  -5.96775  -5.96770  -5.96444
 Alpha  occ. eigenvalues --   -5.96289  -5.96228  -0.88752  -0.81125  -0.66367
 Alpha  occ. eigenvalues --   -0.57529  -0.45700  -0.43119  -0.40890  -0.34368
 Alpha  occ. eigenvalues --   -0.33497  -0.31218  -0.24023  -0.21948
 Alpha virt. eigenvalues --   -0.09188  -0.00975  -0.00283   0.01232   0.02089
 Alpha virt. eigenvalues --    0.03652   0.04101   0.05515   0.06726   0.06800
 Alpha virt. eigenvalues --    0.07577   0.08538   0.08926   0.10127   0.11011

  Beta  occ. eigenvalues --  -88.92203 -88.91843 -10.25166 -10.22079  -8.00522
  Beta  occ. eigenvalues --   -8.00196  -5.96735  -5.96525  -5.96386  -5.96256
  Beta  occ. eigenvalues --   -5.95886  -5.95631  -0.86357  -0.77855  -0.61577
  Beta  occ. eigenvalues --   -0.54831  -0.43221  -0.40356  -0.38020  -0.30686
  Beta  occ. eigenvalues --   -0.28272
  Beta virt. eigenvalues --   -0.20923  -0.11574  -0.10060  -0.05268  -0.00440
  Beta virt. eigenvalues --    0.00808   0.01643   0.03151   0.03766   0.04763
  Beta virt. eigenvalues --    0.06156   0.06812   0.07708   0.08233   0.09506

 Mulliken charges and spin densities:
               1          2
     1  S   -0.189196   1.194668
     2  S   -0.053212   0.048801
     3  C   -0.188975   1.224932
     4  C    0.217931   0.515893
     5  H    0.213452   0.015706
 Sum of Mulliken charges =  -0.00000   3.00000

 Dipole moment (field-independent basis, Debye):
    X=             -3.2322    Y=             -0.0003    Z=              0.0005  Tot=              3.2322
 Quadrupole moment (field-independent basis, Debye-Ang):
   XX=            -46.0927   YY=            -36.0552   ZZ=            -39.0530
   XY=             -2.8759   XZ=              0.0053   YZ=              0.0009

  Exact polarizability: 142.285  10.750  54.204  -0.012  -0.001  45.410
 Approx polarizability: 308.895  31.847  89.761  -0.049  -0.003  71.415

                      1                      2                      3
                      A                      A                      A
 Frequencies --    118.0658               157.0582               290.8944
 Red. masses --      7.3318                13.7341                14.0093
 Frc consts  --      0.0602                 0.1996                 0.6985
 IR Inten    --      4.8191                13.5602                15.7635

                      4                      5                      6
                      A                      A                      A
 Frequencies --    514.2889               688.1249               849.1938
 Red. masses --      1.3386                 9.5283                 9.2385
 Frc consts  --      0.2086                 2.6583                 3.9252
 IR Inten    --     35.8726                46.6096                 4.4986

                      7                      8                      9
                      A                      A                      A
 Frequencies --    912.1091              1121.8840              3133.2217
 Red. masses --      4.5265                 1.3002                 1.0843
 Frc consts  --      2.2188                 0.9642                 6.2717
 IR Inten    --      2.5118                 8.0143                 4.2956

 - Thermochemistry -
 -------------------
 Temperature   298.150 Kelvin.  Pressure   1.00000 Atm.
 Atom     1 has atomic number 16 and mass  31.97207

 Molecular mass:    88.95197 amu.
 Principal axes and moments of inertia in atomic units:
                           1         2         3
     Eigenvalues --    55.80518 794.73654 850.54157
           X            1.00000  -0.00150  -0.00000
           Y            0.00150   1.00000   0.00002
           Z            0.00000  -0.00002   1.00000
 This molecule is an asymmetric top.
 Rotational symmetry number  1.
 Rotational temperatures (Kelvin)      1.55207     0.10898     0.10183
 Rotational constants (GHZ):          32.34003     2.27087     2.12187
 Zero-point vibrational energy      46563.7 (Joules/Mol)
                                   11.12899 (Kcal/Mol)
 Warning -- explicit consideration of   4 degrees of freedom as
           vibrations may cause significant error
 Vibrational temperatures:    169.87   225.97   418.53   739.95   990.06
          (Kelvin)           1221.80  1312.32  1614.14  4508.00

 Zero-point correction=                           0.017735 (Hartree/Particle)
 Thermal correction to Energy=                    0.022802
 Thermal correction to Enthalpy=                  0.023746
 Thermal correction to Gibbs Free Energy=        -0.012245
 Sum of electronic and zero-point Energies=           -873.033233
 Sum of electronic and thermal Energies=              -873.028165
 Sum of electronic and thermal Enthalpies=            -873.027221
 Sum of electronic and thermal Free Energies=         -873.063213

                     E (Thermal)             CV                S
                      KCal/Mol        Cal/Mol-Kelvin    Cal/Mol-Kelvin
 Total                   14.309             14.871             75.751
 Electronic               0.000              0.000              2.755
 Translational            0.889              2.981             39.369
 Rotational               0.889              2.981             25.137
 Vibrational             12.531              8.909              8.490
 Vibration     1          0.608              1.934              3.132
 Vibration     2          0.621              1.895              2.585
 Vibration     3          0.687              1.691              1.469
 Vibration     4          0.869              1.218              0.623

 Optimization completed.
    -- Stationary point found.
 Normal termination of Gaussian 09 at Wed Aug  3 20:59:47 2016.
