 Gaussian 09, Revision E.01,
 Gaussian 09:  EM64L-G09RevE.01 30-Nov-2015

 ------------------------------
 #p b3lyp/6-311++G(3df,2p) freq
 ------------------------------

 ---------
 b3lyp opt
 ---------
 Symbolic Z-matrix:
 Charge =  1 Multiplicity = 3

                         Standard orientation:
 ---------------------------------------------------------------------
 Center     Atomic      Atomic             Coordinates (Angstroms)
 Number     Number       Type             X           Y           Z
 ---------------------------------------------------------------------
      1         16           0       -1.834468   -0.036858   -0.000909
      2         16           0        1.092063   -0.507915    0.000696
      3          6           0        2.326655    0.648334   -0.002428
      4          6           0       -0.324749    0.535330    0.002233
      5          1           0       -0.132950    1.614392    0.004578
 ---------------------------------------------------------------------

 SCF Done:  E(UB3LYP) =  -872.756705921     A.U. after   22 cycles

 The electronic state is 3-A.
 Alpha  occ. eigenvalues --  -89.18067 -89.14546 -10.53115 -10.48637  -8.26267
 Alpha  occ. eigenvalues --   -8.22887  -6.22996  -6.22115  -6.21995  -6.19264
 Alpha  occ. eigenvalues --   -6.18664  -6.18584  -1.12716  -1.04671  -0.87518
 Alpha  occ. eigenvalues --   -0.80443  -0.69681  -0.66458  -0.62997  -0.56447
 Alpha  occ. eigenvalues --   -0.54814  -0.52834  -0.46052
 Alpha virt. eigenvalues --   -0.36911  -0.29995  -0.21270  -0.17752  -0.16286
 Alpha virt. eigenvalues --   -0.14806  -0.13416  -0.10643  -0.10100  -0.08573
 Alpha virt. eigenvalues --   -0.07922  -0.06668  -0.05985  -0.05221  -0.04072

  Beta  occ. eigenvalues --  -89.17461 -89.14525 -10.52948 -10.47105  -8.25714
  Beta  occ. eigenvalues --   -8.22850  -6.21752  -6.21597  -6.21182  -6.19122
  Beta  occ. eigenvalues --   -6.18698  -6.18574  -1.11131  -1.02368  -0.84619
  Beta  occ. eigenvalues --   -0.78105  -0.67842  -0.63954  -0.62531  -0.54024
  Beta  occ. eigenvalues --   -0.50068
  Beta virt. eigenvalues --   -0.43438  -0.36020  -0.31298  -0.28846  -0.19472
  Beta virt. eigenvalues --   -0.16744  -0.15147  -0.14079  -0.12913  -0.10624
  Beta virt. eigenvalues --   -0.09606  -0.08073  -0.07447  -0.06080  -0.05653

 Mulliken charges and spin densities:
               1          2
     1  S    0.178472   0.933173
     2  S    0.117371   0.093424
     3  C    0.118421   0.964308
     4  C    0.322619  -0.033338
     5  H    0.263118   0.042433
 Sum of Mulliken charges =   1.00000   2.00000

 Dipole moment (field-independent basis, Debye):
    X=             -2.7783    Y=              0.4474    Z=              0.0052  Tot=              2.8141
 Quadrupole moment (field-independent basis, Debye-Ang):
   XX=            -23.4746   YY=            -30.9577   ZZ=            -33.8174
   XY=             -2.0207   XZ=              0.0120   YZ=              0.0093

  Exact polarizability: 123.089  11.766  47.013  -0.028  -0.004  36.194
 Approx polarizability: 291.164  40.817  84.820  -0.073  -0.025  59.827

                      1                      2                      3
                      A                      A                      A
 Frequencies --     55.9714               140.3915               284.9032
 Red. masses --      4.9218                12.5604                14.2892
 Frc consts  --      0.0091                 0.1459                 0.6834
 IR Inten    --      7.0387                14.0042                21.8867

                      4                      5                      6
                      A                      A                      A
 Frequencies --    605.8493               784.0798               794.4097
 Red. masses --     12.1951                11.6605                 1.3777
 Frc consts  --      2.6373                 4.2236                 0.5122
 IR Inten    --      3.7392                37.7123                26.1054

                      7                      8                      9
                      A                      A                      A
 Frequencies --    999.4064              1154.1223              3038.7585
 Red. masses --      2.8959                 1.4556                 1.0853
 Frc consts  --      1.7042                 1.1423                 5.9045
 IR Inten    --     23.3811                 7.8807                31.2983

 - Thermochemistry -
 -------------------
 Temperature   298.150 Kelvin.  Pressure   1.00000 Atm.
 Atom     1 has atomic number 16 and mass  31.97207

 Molecular mass:    88.95197 amu.
 Principal axes and moments of inertia in atomic units:
                           1         2         3
     Eigenvalues --    69.18147 756.95209 826.13220
           X            1.00000  -0.00119  -0.00000
           Y            0.00119   1.00000   0.00038
           Z            0.00000  -0.00038   1.00000
 This molecule is an asymmetric top.
 Rotational symmetry number  1.
 Rotational temperatures (Kelvin)      1.25198     0.11442     0.10484
 Rotational constants (GHZ):          26.08706     2.38422     2.18457
 Zero-point vibrational energy      47000.6 (Joules/Mol)
                                   11.23342 (Kcal/Mol)
 Warning -- explicit consideration of   4 degrees of freedom as
           vibrations may cause significant error
 Vibrational temperatures:     80.53   201.99   409.91   871.68  1128.11
          (Kelvin)           1142.98  1437.92  1660.52  4372.09

 Zero-point correction=                           0.017902 (Hartree/Particle)
 Thermal correction to Energy=                    0.023033
 Thermal correction to Enthalpy=                  0.023977
 Thermal correction to Gibbs Free Energy=        -0.012484
 Sum of electronic and zero-point Energies=           -872.738804
 Sum of electronic and thermal Energies=              -872.733673
 Sum of electronic and thermal Enthalpies=            -872.732729
 Sum of electronic and thermal Free Energies=         -872.769190

                     E (Thermal)             CV                S
                      KCal/Mol        Cal/Mol-Kelvin    Cal/Mol-Kelvin
 Total                   14.453             14.523             76.738
 Electronic               0.000              0.000              2.183
 Translational            0.889              2.981             39.369
 Rotational               0.889              2.981             25.273
 Vibrational             12.676              8.561              9.913
 Vibration     1          0.596              1.975              4.594
 Vibration     2          0.615              1.913              2.799
 Vibration     3          0.683              1.702              1.504
 Vibration     4          0.964              1.019              0.440

 Normal termination of Gaussian 09 at Wed Aug  3 20:13:23 2016.
