 Gaussian 09, Revision E.01,
 Gaussian 09:  EM64L-G09RevE.01 30-Nov-2015

 ------------------------------
 #p b3lyp/6-311++G(3df,2p) freq
 ------------------------------

 ---------
 b3lyp opt
 ---------
 Symbolic Z-matrix:
 Charge =  2 Multiplicity = 2

                         Standard orientation:
 ---------------------------------------------------------------------
 Center     Atomic      Atomic             Coordinates (Angstroms)
 Number     Number       Type             X           Y           Z
 ---------------------------------------------------------------------
      1         16           0       -1.093631   -1.223364    0.000000
      2         16           0        1.470216    0.980112   -0.000000
      3          6           0       -1.372248    0.382407    0.000000
      4          6           0       -0.000000    0.295511   -0.000000
      5          1           0        2.208117   -0.175473   -0.000000
 ---------------------------------------------------------------------

 SCF Done:  E(UB3LYP) =  -872.266965908     A.U. after   18 cycles

 The electronic state is 2-A'.
 Alpha  occ. eigenvalues --  -89.44945 -89.39772 -10.79364 -10.79090  -8.52680
 Alpha  occ. eigenvalues --   -8.47865  -6.48927  -6.48582  -6.48562  -6.44099
 Alpha  occ. eigenvalues --   -6.43741  -6.43641  -1.44108  -1.29837  -1.13113
 Alpha  occ. eigenvalues --   -1.01369  -0.95894  -0.90289  -0.89253  -0.85335
 Alpha  occ. eigenvalues --   -0.77740  -0.77058
 Alpha virt. eigenvalues --   -0.62666  -0.54503  -0.51574  -0.41844  -0.39667
 Alpha virt. eigenvalues --   -0.37614  -0.32884  -0.27105  -0.26757  -0.26634
 Alpha virt. eigenvalues --   -0.25895  -0.25233  -0.23812  -0.22396  -0.21892

  Beta  occ. eigenvalues --  -89.44800 -89.39759 -10.78995 -10.77726  -8.52546
  Beta  occ. eigenvalues --   -8.47853  -6.48606  -6.48592  -6.48260  -6.44100
  Beta  occ. eigenvalues --   -6.43701  -6.43626  -1.43180  -1.29649  -1.11852
  Beta  occ. eigenvalues --   -0.99992  -0.93457  -0.89761  -0.88412  -0.82990
  Beta  occ. eigenvalues --   -0.77589
  Beta virt. eigenvalues --   -0.63203  -0.62003  -0.53083  -0.49898  -0.41431
  Beta virt. eigenvalues --   -0.39442  -0.36678  -0.32440  -0.26614  -0.26586
  Beta virt. eigenvalues --   -0.26469  -0.25821  -0.24601  -0.23213  -0.22269

 Mulliken charges and spin densities:
               1          2
     1  S    0.613359   0.192225
     2  S    0.345157   0.049140
     3  C    0.413855   0.754247
     4  C    0.359727  -0.000960
     5  H    0.267901   0.005347
 Sum of Mulliken charges =   2.00000   1.00000

 Dipole moment (field-independent basis, Debye):
    X=              0.6141    Y=             -1.1698    Z=              0.0000  Tot=              1.3212
 Quadrupole moment (field-independent basis, Debye-Ang):
   XX=             -7.4916   YY=            -18.6508   ZZ=            -30.1491
   XY=              9.2061   XZ=             -0.0000   YZ=             -0.0000

  Exact polarizability:  68.933  18.009  52.795   0.000   0.000  28.582
 Approx polarizability: 150.048  56.057 135.412  -0.000  -0.000  47.400

                      1                      2                      3
                     A'                     A"                     A'
 Frequencies --    267.6581               383.0140               408.8742
 Red. masses --      8.8109                 6.7431                10.5130
 Frc consts  --      0.3719                 0.5828                 1.0355
 IR Inten    --      8.1010                 0.1454                24.3688

                      4                      5                      6
                     A"                     A'                     A'
 Frequencies --    490.1688               788.5252               964.9838
 Red. masses --      1.2397                 7.6036                 1.2670
 Frc consts  --      0.1755                 2.7855                 0.6951
 IR Inten    --     23.0196                41.0342                86.9117

                      7                      8                      9
                     A'                     A'                     A'
 Frequencies --   1028.7300              1491.5003              2491.2074
 Red. masses --     10.8204                11.4780                 1.0396
 Frc consts  --      6.7468                15.0440                 3.8015
 IR Inten    --      7.8369                28.7555               167.8300

 - Thermochemistry -
 -------------------
 Temperature   298.150 Kelvin.  Pressure   1.00000 Atm.
 Atom     1 has atomic number 16 and mass  31.97207

 Molecular mass:    88.95197 amu.
 Principal axes and moments of inertia in atomic units:
                           1         2         3
     Eigenvalues --    77.51443 694.55316 772.06759
           X            0.80904  -0.58775   0.00000
           Y            0.58775   0.80904   0.00000
           Z           -0.00000  -0.00000   1.00000
 This molecule is an asymmetric top.
 Rotational symmetry number  1.
 Rotational temperatures (Kelvin)      1.11739     0.12470     0.11218
 Rotational constants (GHZ):          23.28265     2.59842     2.33754
 Zero-point vibrational energy      49732.7 (Joules/Mol)
                                   11.88641 (Kcal/Mol)
 Warning -- explicit consideration of   4 degrees of freedom as
           vibrations may cause significant error
 Vibrational temperatures:    385.10   551.07   588.28   705.24  1134.51
          (Kelvin)           1388.39  1480.11  2145.93  3584.29

 Zero-point correction=                           0.018942 (Hartree/Particle)
 Thermal correction to Energy=                    0.023258
 Thermal correction to Enthalpy=                  0.024202
 Thermal correction to Gibbs Free Energy=        -0.009368
 Sum of electronic and zero-point Energies=           -872.248024
 Sum of electronic and thermal Energies=              -872.243708
 Sum of electronic and thermal Enthalpies=            -872.242764
 Sum of electronic and thermal Free Energies=         -872.276333

                     E (Thermal)             CV                S
                      KCal/Mol        Cal/Mol-Kelvin    Cal/Mol-Kelvin
 Total                   14.594             13.436             70.652
 Electronic               0.000              0.000              1.377
 Translational            0.889              2.981             39.369
 Rotational               0.889              2.981             25.233
 Vibrational             12.817              7.474              4.672
 Vibration     1          0.673              1.733              1.611
 Vibration     2          0.752              1.506              1.027
 Vibration     3          0.773              1.451              0.931
 Vibration     4          0.846              1.272              0.683

 Optimization completed.
    -- Stationary point found.
 Normal termination of Gaussian 09 at Wed Aug  3 23:03:25 2016.
