 Gaussian 09, Revision E.01,
 Gaussian 09:  EM64L-G09RevE.01 30-Nov-2015

 ------------------------------
 #p b3lyp/6-311++G(3df,2p) freq
 ------------------------------

 ---------
 b3lyp opt
 ---------
 Symbolic Z-matrix:
 Charge =  0 Multiplicity = 4

                         Standard orientation:
 ---------------------------------------------------------------------
 Center     Atomic      Atomic             Coordinates (Angstroms)
 Number     Number       Type             X           Y           Z
 ---------------------------------------------------------------------
      1         16           0        1.305166   -0.328561   -0.000144
      2         16           0       -1.651964    0.256113   -0.000070
      3          6           0        1.373020    1.318391    0.000243
      4          6           0       -0.356756   -0.811855    0.000200
      5          1           0       -0.548814   -1.880052    0.000755
 ---------------------------------------------------------------------

 SCF Done:  E(UB3LYP) =  -873.054401124     A.U. after   18 cycles

 The electronic state is 4-A.
 Alpha  occ. eigenvalues --  -88.92464 -88.91769 -10.26398 -10.23236  -8.00747
 Alpha  occ. eigenvalues --   -8.00152  -5.97623  -5.96659  -5.96437  -5.96342
 Alpha  occ. eigenvalues --   -5.95938  -5.95897  -0.88804  -0.80600  -0.67579
 Alpha  occ. eigenvalues --   -0.54646  -0.48708  -0.42390  -0.40855  -0.33339
 Alpha  occ. eigenvalues --   -0.32983  -0.30679  -0.23819  -0.22152
 Alpha virt. eigenvalues --   -0.08447  -0.01440  -0.00917   0.02189   0.02842
 Alpha virt. eigenvalues --    0.03774   0.04116   0.05388   0.06587   0.07048
 Alpha virt. eigenvalues --    0.08216   0.08757   0.09857   0.10501   0.11112

  Beta  occ. eigenvalues --  -88.91834 -88.91759 -10.25303 -10.21415  -8.00180
  Beta  occ. eigenvalues --   -8.00101  -5.96391  -5.96288  -5.96167  -5.95921
  Beta  occ. eigenvalues --   -5.95761  -5.95575  -0.86352  -0.77463  -0.63156
  Beta  occ. eigenvalues --   -0.51265  -0.46165  -0.39729  -0.37915  -0.30462
  Beta  occ. eigenvalues --   -0.27842
  Beta virt. eigenvalues --   -0.20080  -0.11919  -0.09799  -0.04229  -0.00915
  Beta virt. eigenvalues --    0.00210   0.02878   0.03170   0.03886   0.04819
  Beta virt. eigenvalues --    0.05940   0.06626   0.07766   0.09202   0.09570

 Mulliken charges and spin densities:
               1          2
     1  S   -0.083577   0.064563
     2  S   -0.069748   1.170409
     3  C   -0.205780   1.216778
     4  C    0.177059   0.524830
     5  H    0.182046   0.023419
 Sum of Mulliken charges =  -0.00000   3.00000

 Dipole moment (field-independent basis, Debye):
    X=             -1.8926    Y=             -3.1374    Z=             -0.0000  Tot=              3.6640
 Quadrupole moment (field-independent basis, Debye-Ang):
   XX=            -38.0665   YY=            -39.5250   ZZ=            -39.0969
   XY=             -2.8098   XZ=             -0.0013   YZ=             -0.0030

  Exact polarizability:  97.775   8.654  69.341   0.002   0.002  45.355
 Approx polarizability: 172.793  24.221 137.076   0.007   0.007  71.628

                      1                      2                      3
                      A                      A                      A
 Frequencies --    152.8648               203.1865               363.5987
 Red. masses --     14.6065                 5.1380                15.1530
 Frc consts  --      0.2011                 0.1250                 1.1803
 IR Inten    --     13.8219                 0.5885                35.0087

                      4                      5                      6
                      A                      A                      A
 Frequencies --    478.3925               624.4285               860.4837
 Red. masses --      1.3051                 9.7885                13.2493
 Frc consts  --      0.1760                 2.2487                 5.7800
 IR Inten    --     35.4398                 6.2723                10.3980

                      7                      8                      9
                      A                      A                      A
 Frequencies --    920.2480              1127.1689              3135.5570
 Red. masses --      2.9486                 1.4431                 1.0834
 Frc consts  --      1.4712                 1.0802                 6.2760
 IR Inten    --      6.0271                 2.7682                 5.2470

 - Thermochemistry -
 -------------------
 Temperature   298.150 Kelvin.  Pressure   1.00000 Atm.
 Atom     1 has atomic number 16 and mass  31.97207

 Molecular mass:    88.95197 amu.
 Principal axes and moments of inertia in atomic units:
                           1         2         3
     Eigenvalues --   135.09661 593.41082 728.50741
           X            0.99997   0.00788  -0.00000
           Y           -0.00788   0.99997  -0.00004
           Z            0.00000   0.00004   1.00000
 This molecule is an asymmetric top.
 Rotational symmetry number  1.
 Rotational temperatures (Kelvin)      0.64112     0.14596     0.11889
 Rotational constants (GHZ):          13.35889     3.04130     2.47731
 Zero-point vibrational energy      47048.7 (Joules/Mol)
                                   11.24491 (Kcal/Mol)
 Warning -- explicit consideration of   4 degrees of freedom as
           vibrations may cause significant error
 Vibrational temperatures:    219.94   292.34   523.14   688.30   898.41
          (Kelvin)           1238.04  1324.03  1621.74  4511.36

 Zero-point correction=                           0.017920 (Hartree/Particle)
 Thermal correction to Energy=                    0.022816
 Thermal correction to Enthalpy=                  0.023760
 Thermal correction to Gibbs Free Energy=        -0.011882
 Sum of electronic and zero-point Energies=           -873.036481
 Sum of electronic and thermal Energies=              -873.031585
 Sum of electronic and thermal Enthalpies=            -873.030641
 Sum of electronic and thermal Free Energies=         -873.066283

                     E (Thermal)             CV                S
                      KCal/Mol        Cal/Mol-Kelvin    Cal/Mol-Kelvin
 Total                   14.317             14.809             75.014
 Electronic               0.000              0.000              2.755
 Translational            0.889              2.981             39.369
 Rotational               0.889              2.981             25.571
 Vibrational             12.540              8.847              7.319
 Vibration     1          0.619              1.899              2.636
 Vibration     2          0.639              1.835              2.104
 Vibration     3          0.737              1.547              1.107
 Vibration     4          0.835              1.298              0.714

 Optimization completed.
    -- Stationary point found.
 Normal termination of Gaussian 09 at Wed Aug  3 20:59:49 2016.
