 Gaussian 09, Revision E.01,
 Gaussian 09:  EM64L-G09RevE.01 30-Nov-2015

 ------------------------------
 #p b3lyp/6-311++G(3df,2p) freq
 ------------------------------

 ---------
 b3lyp opt
 ---------
 Symbolic Z-matrix:
 Charge =  0 Multiplicity = 4

                         Standard orientation:
 ---------------------------------------------------------------------
 Center     Atomic      Atomic             Coordinates (Angstroms)
 Number     Number       Type             X           Y           Z
 ---------------------------------------------------------------------
      1         16           0        0.734740   -0.094951    0.004860
      2          6           0       -1.056352   -0.450393   -0.147050
      3          6           0       -0.650499    0.897931    0.044261
      4          1           0       -1.514730   -1.166020    0.538975
 ---------------------------------------------------------------------

 SCF Done:  E(UB3LYP) =  -474.807623746     A.U. after   15 cycles

 The electronic state is 4-A.
 Alpha  occ. eigenvalues --  -88.91714 -10.25481 -10.24445  -7.99940  -5.96194
 Alpha  occ. eigenvalues --   -5.95975  -5.95871  -0.91613  -0.65506  -0.57878
 Alpha  occ. eigenvalues --   -0.45626  -0.41137  -0.37802  -0.31036  -0.25995
 Alpha  occ. eigenvalues --   -0.18213
 Alpha virt. eigenvalues --   -0.03635   0.00111   0.00851   0.03601   0.04403
 Alpha virt. eigenvalues --    0.06744   0.07589   0.07971   0.08448   0.09748
 Alpha virt. eigenvalues --    0.10337   0.12580   0.13580   0.15255   0.16418

  Beta  occ. eigenvalues --  -88.91252 -10.24105 -10.21846  -7.99516  -5.95764
  Beta  occ. eigenvalues --   -5.95399  -5.94919  -0.88723  -0.61731  -0.53481
  Beta  occ. eigenvalues --   -0.39932  -0.36429  -0.33344
  Beta virt. eigenvalues --   -0.16170  -0.12942  -0.03170  -0.01367   0.00524
  Beta virt. eigenvalues --    0.01752   0.04413   0.05013   0.07092   0.07911
  Beta virt. eigenvalues --    0.08672   0.09178   0.11065   0.11486   0.13343

 Mulliken charges and spin densities:
               1          2
     1  S    0.018860   0.734830
     2  C   -0.127344   0.694823
     3  C   -0.032052   1.508856
     4  H    0.140537   0.061491
 Sum of Mulliken charges =  -0.00000   3.00000

 Dipole moment (field-independent basis, Debye):
    X=              0.2838    Y=             -0.8035    Z=              0.5722  Tot=              1.0264
 Quadrupole moment (field-independent basis, Debye-Ang):
   XX=            -23.4501   YY=            -24.7210   ZZ=            -26.2337
   XY=              1.1063   XZ=             -0.9796   YZ=             -0.6642

  Exact polarizability:  51.127  -0.305  41.569   0.964  -0.123  33.498
 Approx polarizability:  94.785  -5.605  68.616   3.325   0.724  46.830

                      1                      2                      3
                      A                      A                      A
 Frequencies --    560.7341               844.1839               855.4345
 Red. masses --      8.6430                 9.9683                 1.1483
 Frc consts  --      1.6011                 4.1855                 0.4951
 IR Inten    --      4.1614                 2.3831                19.9002

                      4                      5                      6
                      A                      A                      A
 Frequencies --    964.8493              1249.0894              3028.0553
 Red. masses --      1.2702                 9.8909                 1.0870
 Frc consts  --      0.6967                 9.0923                 5.8720
 IR Inten    --     29.2320                10.3578                26.5822

 - Thermochemistry -
 -------------------
 Temperature   298.150 Kelvin.  Pressure   1.00000 Atm.
 Atom     1 has atomic number 16 and mass  31.97207

 Molecular mass:    56.97990 amu.
 Principal axes and moments of inertia in atomic units:
                           1         2         3
     Eigenvalues --    50.60186 138.08194 184.97803
           X            0.99717   0.07105  -0.02437
           Y           -0.07222   0.99607  -0.05117
           Z            0.02064   0.05279   0.99839
 This molecule is an asymmetric top.
 Rotational symmetry number  1.
 Rotational temperatures (Kelvin)      1.71167     0.62726     0.46824
 Rotational constants (GHZ):          35.66551    13.07007     9.75652
 Zero-point vibrational energy      44874.0 (Joules/Mol)
                                   10.72514 (Kcal/Mol)
 Warning -- explicit consideration of   1 degrees of freedom as
           vibrations may cause significant error
 Vibrational temperatures:    806.77  1214.59  1230.78  1388.20  1797.16
          (Kelvin)           4356.69

 Zero-point correction=                           0.017092 (Hartree/Particle)
 Thermal correction to Energy=                    0.020293
 Thermal correction to Enthalpy=                  0.021238
 Thermal correction to Gibbs Free Energy=        -0.008974
 Sum of electronic and zero-point Energies=           -474.790532
 Sum of electronic and thermal Energies=              -474.787330
 Sum of electronic and thermal Enthalpies=            -474.786386
 Sum of electronic and thermal Free Energies=         -474.816598

                     E (Thermal)             CV                S
                      KCal/Mol        Cal/Mol-Kelvin    Cal/Mol-Kelvin
 Total                   12.734              8.815             63.586
 Electronic               0.000              0.000              2.755
 Translational            0.889              2.981             38.041
 Rotational               0.889              2.981             21.785
 Vibrational             10.957              2.853              1.005
 Vibration     1          0.916              1.116              0.522

 Optimization completed.
    -- Stationary point found.
 Normal termination of Gaussian 09 at Wed Aug  3 20:20:23 2016.
