 Gaussian 09, Revision E.01,
 Gaussian 09:  EM64L-G09RevE.01 30-Nov-2015

 ------------------------------
 #p b3lyp/6-311++G(3df,2p) freq
 ------------------------------

 ---------
 b3lyp opt
 ---------
 Symbolic Z-matrix:
 Charge =  2 Multiplicity = 2

                         Standard orientation:
 ---------------------------------------------------------------------
 Center     Atomic      Atomic             Coordinates (Angstroms)
 Number     Number       Type             X           Y           Z
 ---------------------------------------------------------------------
      1         16           0       -2.250102   -0.012172   -0.000106
      2         16           0        2.150640   -0.108139   -0.000082
      3          6           0       -0.731001    0.025287    0.000279
      4          6           0        0.579733    0.090101    0.000268
      5          1           0        2.499002    1.232639   -0.000283
 ---------------------------------------------------------------------

 SCF Done:  E(UB3LYP) =  -872.347973241     A.U. after   20 cycles

 The electronic state is 2-A.
 Alpha  occ. eigenvalues --  -89.40617 -89.40320 -10.75699 -10.73101  -8.48611
 Alpha  occ. eigenvalues --   -8.48182  -6.44769  -6.44515  -6.44488  -6.44394
 Alpha  occ. eigenvalues --   -6.44287  -6.44021  -1.34288  -1.30150  -1.19329
 Alpha  occ. eigenvalues --   -0.99203  -0.92615  -0.89385  -0.85929  -0.83323
 Alpha  occ. eigenvalues --   -0.78216  -0.72875
 Alpha virt. eigenvalues --   -0.62392  -0.49115  -0.45033  -0.40663  -0.38799
 Alpha virt. eigenvalues --   -0.33161  -0.31904  -0.27618  -0.25142  -0.24887
 Alpha virt. eigenvalues --   -0.24126  -0.22489  -0.21442  -0.20961  -0.20327

  Beta  occ. eigenvalues --  -89.40693 -89.39867 -10.74680 -10.73476  -8.48672
  Beta  occ. eigenvalues --   -8.47771  -6.44843  -6.44760  -6.44389  -6.43836
  Beta  occ. eigenvalues --   -6.43774  -6.43272  -1.33168  -1.29365  -1.17795
  Beta  occ. eigenvalues --   -0.98126  -0.91250  -0.87264  -0.85550  -0.80984
  Beta  occ. eigenvalues --   -0.77993
  Beta virt. eigenvalues --   -0.62467  -0.61682  -0.46759  -0.44637  -0.39781
  Beta virt. eigenvalues --   -0.37861  -0.32465  -0.31623  -0.27586  -0.24920
  Beta virt. eigenvalues --   -0.24871  -0.24100  -0.22029  -0.20288  -0.19852

 Mulliken charges and spin densities:
               1          2
     1  S    0.446343   0.671506
     2  S    0.245824  -0.103391
     3  C    0.590457  -0.144338
     4  C    0.423499   0.503211
     5  H    0.293876   0.073012
 Sum of Mulliken charges =   2.00000   1.00000

 Dipole moment (field-independent basis, Debye):
    X=              1.2793    Y=              1.1141    Z=             -0.0004  Tot=              1.6964
 Quadrupole moment (field-independent basis, Debye-Ang):
   XX=             17.5120   YY=            -27.8458   ZZ=            -29.8453
   XY=              3.3396   XZ=             -0.0006   YZ=             -0.0004

  Exact polarizability: 113.971   2.705  32.087  -0.001  -0.000  29.224
 Approx polarizability: 288.742   2.631  51.444   0.004   0.000  46.641

                      1                      2                      3
                      A                      A                      A
 Frequencies --    157.2694               177.3262               368.9156
 Red. masses --      7.9106                 5.6419                10.0474
 Frc consts  --      0.1153                 0.1045                 0.8057
 IR Inten    --      3.9550                 8.1516                 0.7708

                      4                      5                      6
                      A                      A                      A
 Frequencies --    517.2762               545.0081               907.8525
 Red. masses --      9.3325                16.2867                 1.1572
 Frc consts  --      1.4713                 2.8503                 0.5619
 IR Inten    --      0.3771                 0.0706                21.8740

                      7                      8                      9
                      A                      A                      A
 Frequencies --   1234.5897              1679.1883              2372.5721
 Red. masses --     13.0826                11.6704                 1.0411
 Frc consts  --     11.7487                19.3881                 3.4529
 IR Inten    --      1.7635                26.2880               254.1223

 - Thermochemistry -
 -------------------
 Temperature   298.150 Kelvin.  Pressure   1.00000 Atm.
 Atom     1 has atomic number 16 and mass  31.97207

 Molecular mass:    88.95197 amu.
 Principal axes and moments of inertia in atomic units:
                           1         2         3
     Eigenvalues --     7.031261165.780751172.81199
           X            0.99995   0.00951  -0.00000
           Y           -0.00951   0.99995  -0.00018
           Z            0.00000   0.00018   1.00000
 This molecule is an asymmetric top.
 Rotational symmetry number  1.
 Rotational temperatures (Kelvin)     12.31840     0.07430     0.07385
 Rotational constants (GHZ):         256.67403     1.54810     1.53882
 Zero-point vibrational energy      47611.4 (Joules/Mol)
                                   11.37939 (Kcal/Mol)
 Warning -- explicit consideration of   5 degrees of freedom as
           vibrations may cause significant error
 Vibrational temperatures:    226.28   255.13   530.79   744.24   784.14
          (Kelvin)           1306.20  1776.30  2415.97  3413.60

 Zero-point correction=                           0.018134 (Hartree/Particle)
 Thermal correction to Energy=                    0.023009
 Thermal correction to Enthalpy=                  0.023954
 Thermal correction to Gibbs Free Energy=        -0.010206
 Sum of electronic and zero-point Energies=           -872.329839
 Sum of electronic and thermal Energies=              -872.324964
 Sum of electronic and thermal Enthalpies=            -872.324020
 Sum of electronic and thermal Free Energies=         -872.358180

                     E (Thermal)             CV                S
                      KCal/Mol        Cal/Mol-Kelvin    Cal/Mol-Kelvin
 Total                   14.439             14.340             71.896
 Electronic               0.000              0.000              1.377
 Translational            0.889              2.981             39.369
 Rotational               0.889              2.981             23.779
 Vibrational             12.661              8.378              7.371
 Vibration     1          0.621              1.895              2.582
 Vibration     2          0.628              1.870              2.356
 Vibration     3          0.741              1.536              1.084
 Vibration     4          0.872              1.212              0.616
 Vibration     5          0.900              1.151              0.555

 Optimization completed.
    -- Stationary point found.
 Normal termination of Gaussian 09 at Wed Aug  3 20:13:14 2016.
