 Gaussian 09, Revision E.01,
 Gaussian 09:  EM64L-G09RevE.01 30-Nov-2015

 ------------------------------
 #p b3lyp/6-311++G(3df,2p) freq
 ------------------------------

 ---------
 b3lyp opt
 ---------
 Symbolic Z-matrix:
 Charge =  2 Multiplicity = 4

                         Standard orientation:
 ---------------------------------------------------------------------
 Center     Atomic      Atomic             Coordinates (Angstroms)
 Number     Number       Type             X           Y           Z
 ---------------------------------------------------------------------
      1         16           0        0.000000    0.352816   -0.000000
      2          6           0       -1.185717   -0.770632   -0.000000
      3          6           0        1.567150   -0.018102    0.000000
      4          1           0       -2.288597   -0.912657   -0.000000
 ---------------------------------------------------------------------

 SCF Done:  E(UB3LYP) =  -473.770068621     A.U. after   16 cycles

 The electronic state is 4-A".
 Alpha  occ. eigenvalues --  -89.53451 -10.90696 -10.87509  -8.61254  -6.57544
 Alpha  occ. eigenvalues --   -6.57213  -6.56897  -1.45611  -1.29227  -1.09713
 Alpha  occ. eigenvalues --   -1.00120  -0.95055  -0.94424  -0.83637  -0.82468
 Alpha virt. eigenvalues --   -0.72611  -0.62933  -0.50130  -0.40182  -0.35571
 Alpha virt. eigenvalues --   -0.33489  -0.29669  -0.28091  -0.27118  -0.26980
 Alpha virt. eigenvalues --   -0.25332  -0.22342  -0.22105  -0.21841  -0.21159

  Beta  occ. eigenvalues --  -89.53656 -10.86532 -10.85477  -8.61412  -6.57567
  Beta  occ. eigenvalues --   -6.57457  -6.57380  -1.42975  -1.22754  -1.06030
  Beta  occ. eigenvalues --   -0.97071  -0.91589
  Beta virt. eigenvalues --   -0.74287  -0.66807  -0.66408  -0.64808  -0.55336
  Beta virt. eigenvalues --   -0.45637  -0.37332  -0.35049  -0.32728  -0.29534
  Beta virt. eigenvalues --   -0.27637  -0.25879  -0.25336  -0.23550  -0.21196

 Mulliken charges and spin densities:
               1          2
     1  S    0.571748  -0.089329
     2  C    0.387656   1.085588
     3  C    0.687519   1.994966
     4  H    0.353078   0.008775
 Sum of Mulliken charges =   2.00000   3.00000

 Dipole moment (field-independent basis, Debye):
    X=             -0.9763    Y=             -1.5046    Z=             -0.0000  Tot=              1.7936
 Quadrupole moment (field-independent basis, Debye-Ang):
   XX=              1.8188   YY=            -14.3748   ZZ=            -19.2649
   XY=              5.0125   XZ=              0.0000   YZ=              0.0000

  Exact polarizability:  51.594   8.915  25.998  -0.000  -0.000  19.152
 Approx polarizability: 133.555  28.024  53.271   0.000   0.000  28.197

                      1                      2                      3
                     A'                     A"                     A'
 Frequencies --    310.2967               498.2512               595.0804
 Red. masses --      4.6163                 1.1539                 1.6118
 Frc consts  --      0.2619                 0.1688                 0.3363
 IR Inten    --     22.0708                56.4764                63.2823

                      4                      5                      6
                     A'                     A'                     A'
 Frequencies --    806.8457               916.8278              2945.9446
 Red. masses --      4.1732                12.0826                 1.0995
 Frc consts  --      1.6007                 5.9839                 5.6219
 IR Inten    --    108.6720                19.0147               554.0132

 - Thermochemistry -
 -------------------
 Temperature   298.150 Kelvin.  Pressure   1.00000 Atm.
 Atom     1 has atomic number 16 and mass  31.97207

 Molecular mass:    56.97990 amu.
 Principal axes and moments of inertia in atomic units:
                           1         2         3
     Eigenvalues --    29.33834 197.30435 226.64269
           X            0.95964  -0.28123  -0.00000
           Y            0.28123   0.95964   0.00000
           Z            0.00000  -0.00000   1.00000
 This molecule is an asymmetric top.
 Rotational symmetry number  1.
 Rotational temperatures (Kelvin)      2.95224     0.43899     0.38216
 Rotational constants (GHZ):          61.51478     9.14699     7.96294
 Zero-point vibrational energy      36326.1 (Joules/Mol)
                                    8.68214 (Kcal/Mol)
 Warning -- explicit consideration of   3 degrees of freedom as
           vibrations may cause significant error
 Vibrational temperatures:    446.45   716.87   856.19  1160.87  1319.11
          (Kelvin)           4238.55

 Zero-point correction=                           0.013836 (Hartree/Particle)
 Thermal correction to Energy=                    0.017591
 Thermal correction to Enthalpy=                  0.018535
 Thermal correction to Gibbs Free Energy=        -0.012543
 Sum of electronic and zero-point Energies=           -473.756233
 Sum of electronic and thermal Energies=              -473.752478
 Sum of electronic and thermal Enthalpies=            -473.751533
 Sum of electronic and thermal Free Energies=         -473.782612

                     E (Thermal)             CV                S
                      KCal/Mol        Cal/Mol-Kelvin    Cal/Mol-Kelvin
 Total                   11.039             11.029             65.410
 Electronic               0.000              0.000              2.755
 Translational            0.889              2.981             38.041
 Rotational               0.889              2.981             21.800
 Vibrational              9.261              5.068              2.814
 Vibration     1          0.699              1.654              1.361
 Vibration     2          0.854              1.254              0.663
 Vibration     3          0.953              1.042              0.458

 Optimization completed.
    -- Stationary point found.
 Normal termination of Gaussian 09 at Wed Aug  3 23:06:55 2016.
