 Gaussian 09, Revision E.01,
 Gaussian 09:  EM64L-G09RevE.01 30-Nov-2015

 ------------------------------
 #p b3lyp/6-311++G(3df,2p) freq
 ------------------------------

 ---------
 b3lyp opt
 ---------
 Symbolic Z-matrix:
 Charge =  2 Multiplicity = 2

                         Standard orientation:
 ---------------------------------------------------------------------
 Center     Atomic      Atomic             Coordinates (Angstroms)
 Number     Number       Type             X           Y           Z
 ---------------------------------------------------------------------
      1         16           0        0.000000    0.719492    0.000000
      2          6           0        0.549504   -0.927322   -0.000000
      3          6           0       -0.797579   -0.739261   -0.000000
      4          1           0        1.488454   -1.512380   -0.000000
 ---------------------------------------------------------------------

 SCF Done:  E(UB3LYP) =  -473.938371876     A.U. after   15 cycles

 The electronic state is 2-A'.
 Alpha  occ. eigenvalues --  -89.56625 -10.89283 -10.87274  -8.64028  -6.60294
 Alpha  occ. eigenvalues --   -6.60034  -6.59836  -1.54803  -1.22270  -1.14293
 Alpha  occ. eigenvalues --   -1.02656  -0.98302  -0.96427  -0.88017
 Alpha virt. eigenvalues --   -0.72305  -0.60943  -0.56963  -0.47642  -0.38616
 Alpha virt. eigenvalues --   -0.36355  -0.31700  -0.30393  -0.29696  -0.27694
 Alpha virt. eigenvalues --   -0.26853  -0.24925  -0.23929  -0.22966  -0.21234

  Beta  occ. eigenvalues --  -89.56492 -10.87423 -10.87167  -8.63906  -6.60287
  Beta  occ. eigenvalues --   -6.59808  -6.59513  -1.53947  -1.21148  -1.12762
  Beta  occ. eigenvalues --   -0.99203  -0.97647  -0.95370
  Beta virt. eigenvalues --   -0.71923  -0.71737  -0.58729  -0.54953  -0.46945
  Beta virt. eigenvalues --   -0.37527  -0.35945  -0.30861  -0.30320  -0.29310
  Beta virt. eigenvalues --   -0.26927  -0.26717  -0.24627  -0.23576  -0.21505

 Mulliken charges and spin densities:
               1          2
     1  S    0.841652   0.163012
     2  C    0.331472  -0.054998
     3  C    0.422457   0.892301
     4  H    0.404419  -0.000315
 Sum of Mulliken charges =   2.00000   1.00000

 Dipole moment (field-independent basis, Debye):
    X=              1.1984    Y=             -1.4703    Z=             -0.0000  Tot=              1.8969
 Quadrupole moment (field-independent basis, Debye-Ang):
   XX=            -12.2995   YY=             -7.7859   ZZ=            -17.3985
   XY=             -2.8704   XZ=             -0.0000   YZ=              0.0000

  Exact polarizability:  24.826  -0.913  31.728   0.000  -0.000  17.411
 Approx polarizability:  45.305   2.248  71.799   0.000   0.000  28.337

                      1                      2                      3
                     A'                     A"                     A'
 Frequencies --    708.1887               874.0909               923.0951
 Red. masses --      7.0456                 1.2991                 1.2989
 Frc consts  --      2.0819                 0.5848                 0.6521
 IR Inten    --     30.3334                24.5586                43.2983

                      4                      5                      6
                     A'                     A'                     A'
 Frequencies --    957.1530              1431.7363              3011.8811
 Red. masses --      7.0128                 7.1489                 1.1213
 Frc consts  --      3.7853                 8.6341                 5.9931
 IR Inten    --     26.9370                47.3551               336.2750

 - Thermochemistry -
 -------------------
 Temperature   298.150 Kelvin.  Pressure   1.00000 Atm.
 Atom     1 has atomic number 16 and mass  31.97207

 Molecular mass:    56.97990 amu.
 Principal axes and moments of inertia in atomic units:
                           1         2         3
     Eigenvalues --    47.77855 127.72668 175.50523
           X           -0.05681   0.99839   0.00000
           Y            0.99839   0.05681   0.00000
           Z           -0.00000  -0.00000   1.00000
 This molecule is an asymmetric top.
 Rotational symmetry number  1.
 Rotational temperatures (Kelvin)      1.81282     0.67812     0.49351
 Rotational constants (GHZ):          37.77305    14.12971    10.28312
 Zero-point vibrational energy      47289.2 (Joules/Mol)
                                   11.30240 (Kcal/Mol)
 Vibrational temperatures:   1018.92  1257.62  1328.13  1377.13  2059.95
          (Kelvin)           4333.42

 Zero-point correction=                           0.018012 (Hartree/Particle)
 Thermal correction to Energy=                    0.021112
 Thermal correction to Enthalpy=                  0.022057
 Thermal correction to Gibbs Free Energy=        -0.007270
 Sum of electronic and zero-point Energies=           -473.920360
 Sum of electronic and thermal Energies=              -473.917259
 Sum of electronic and thermal Enthalpies=            -473.916315
 Sum of electronic and thermal Free Energies=         -473.945642

                     E (Thermal)             CV                S
                      KCal/Mol        Cal/Mol-Kelvin    Cal/Mol-Kelvin
 Total                   13.248              8.303             61.723
 Electronic               0.000              0.000              1.377
 Translational            0.889              2.981             38.041
 Rotational               0.889              2.981             21.598
 Vibrational             11.471              2.341              0.706

 Optimization completed.
    -- Stationary point found.
 Normal termination of Gaussian 09 at Wed Aug  3 23:05:02 2016.
