 Gaussian 09, Revision E.01,
 Gaussian 09:  EM64L-G09RevE.01 30-Nov-2015

 ------------------------------
 #p b3lyp/6-311++G(3df,2p) freq
 ------------------------------

 ---------
 b3lyp opt
 ---------
 Symbolic Z-matrix:
 Charge =  2 Multiplicity = 4

                         Standard orientation:
 ---------------------------------------------------------------------
 Center     Atomic      Atomic             Coordinates (Angstroms)
 Number     Number       Type             X           Y           Z
 ---------------------------------------------------------------------
      1         16           0       -0.335751   -0.939109    0.000000
      2          6           0        0.000000    0.742267   -0.000000
      3          6           0        1.041520    1.515035   -0.000000
      4          1           0       -0.877106    1.481938   -0.000000
 ---------------------------------------------------------------------

 SCF Done:  E(UB3LYP) =  -473.860136382     A.U. after   14 cycles

 The electronic state is 4-A".
 Alpha  occ. eigenvalues --  -89.51611 -10.92568 -10.79946  -8.58944  -6.55589
 Alpha  occ. eigenvalues --   -6.55305  -6.54825  -1.41589  -1.31511  -1.07228
 Alpha  occ. eigenvalues --   -0.99959  -0.96689  -0.92681  -0.85622  -0.84032
 Alpha virt. eigenvalues --   -0.69435  -0.55879  -0.46618  -0.37957  -0.33839
 Alpha virt. eigenvalues --   -0.30433  -0.30146  -0.28978  -0.27537  -0.26840
 Alpha virt. eigenvalues --   -0.23723  -0.23621  -0.22222  -0.19924  -0.19908

  Beta  occ. eigenvalues --  -89.50391 -10.89501 -10.80056  -8.57837  -6.54134
  Beta  occ. eigenvalues --   -6.53249  -6.53168  -1.38436  -1.24811  -1.03983
  Beta  occ. eigenvalues --   -0.96806  -0.88226
  Beta virt. eigenvalues --   -0.74380  -0.69629  -0.69129  -0.64632  -0.51083
  Beta virt. eigenvalues --   -0.43911  -0.36698  -0.33105  -0.28286  -0.27653
  Beta virt. eigenvalues --   -0.26732  -0.25761  -0.24609  -0.22476  -0.22117

 Mulliken charges and spin densities:
               1          2
     1  S    0.794103   1.754800
     2  C    0.344647  -0.227879
     3  C    0.547331   1.458556
     4  H    0.313918   0.014523
 Sum of Mulliken charges =   2.00000   3.00000

 Dipole moment (field-independent basis, Debye):
    X=              0.9310    Y=              3.2013    Z=             -0.0000  Tot=              3.3339
 Quadrupole moment (field-independent basis, Debye-Ang):
   XX=            -11.2235   YY=             -0.3045   ZZ=            -19.3008
   XY=              5.7544   XZ=             -0.0000   YZ=             -0.0000

  Exact polarizability:  27.718   8.920  41.878  -0.000   0.000  19.349
 Approx polarizability:  52.897  23.785  78.653  -0.000  -0.000  27.532

                      1                      2                      3
                     A'                     A"                     A'
 Frequencies --    209.6110               561.4953               672.7955
 Red. masses --      8.7133                 1.8325                12.4320
 Frc consts  --      0.2256                 0.3404                 3.3156
 IR Inten    --      2.8898                48.3943                16.1974

                      4                      5                      6
                     A'                     A'                     A'
 Frequencies --    832.9549              1524.0733              2588.4624
 Red. masses --      1.0949                10.1021                 1.0703
 Frc consts  --      0.4476                13.8253                 4.2253
 IR Inten    --      8.1286               191.6171               426.9165

 - Thermochemistry -
 -------------------
 Temperature   298.150 Kelvin.  Pressure   1.00000 Atm.
 Atom     1 has atomic number 16 and mass  31.97207

 Molecular mass:    56.97990 amu.
 Principal axes and moments of inertia in atomic units:
                           1         2         3
     Eigenvalues --    16.28975 276.22443 292.51419
           X            0.41970   0.90766  -0.00000
           Y            0.90766  -0.41970   0.00000
           Z           -0.00000   0.00000   1.00000
 This molecule is an asymmetric top.
 Rotational symmetry number  1.
 Rotational temperatures (Kelvin)      5.31707     0.31356     0.29610
 Rotational constants (GHZ):         110.78997     6.53360     6.16976
 Zero-point vibrational energy      38217.1 (Joules/Mol)
                                    9.13409 (Kcal/Mol)
 Warning -- explicit consideration of   2 degrees of freedom as
           vibrations may cause significant error
 Vibrational temperatures:    301.58   807.87   968.00  1198.43  2192.80
          (Kelvin)           3724.22

 Zero-point correction=                           0.014556 (Hartree/Particle)
 Thermal correction to Energy=                    0.018315
 Thermal correction to Enthalpy=                  0.019259
 Thermal correction to Gibbs Free Energy=        -0.011957
 Sum of electronic and zero-point Energies=           -473.845580
 Sum of electronic and thermal Energies=              -473.841821
 Sum of electronic and thermal Enthalpies=            -473.840877
 Sum of electronic and thermal Free Energies=         -473.872094

                     E (Thermal)             CV                S
                      KCal/Mol        Cal/Mol-Kelvin    Cal/Mol-Kelvin
 Total                   11.493             10.452             65.700
 Electronic               0.000              0.000              2.755
 Translational            0.889              2.981             38.041
 Rotational               0.889              2.981             21.803
 Vibrational              9.715              4.491              3.101
 Vibration     1          0.642              1.826              2.047
 Vibration     2          0.917              1.115              0.521

 Optimization completed.
    -- Stationary point found.
 Normal termination of Gaussian 09 at Wed Aug  3 23:06:52 2016.
