 Gaussian 09, Revision E.01,
 Gaussian 09:  EM64L-G09RevE.01 30-Nov-2015

 ------------------------------
 #p b3lyp/6-311++G(3df,2p) freq
 ------------------------------

 ---------
 b3lyp opt
 ---------
 Symbolic Z-matrix:
 Charge =  0 Multiplicity = 4

                         Standard orientation:
 ---------------------------------------------------------------------
 Center     Atomic      Atomic             Coordinates (Angstroms)
 Number     Number       Type             X           Y           Z
 ---------------------------------------------------------------------
      1         16           0       -0.000000    0.417562   -0.000000
      2          6           0       -1.168321   -0.739661   -0.000000
      3          6           0        1.543017   -0.251771    0.000000
      4          1           0       -2.248174   -0.732404   -0.000000
 ---------------------------------------------------------------------

 SCF Done:  E(UB3LYP) =  -474.780260979     A.U. after   14 cycles

 The electronic state is 4-A".
 Alpha  occ. eigenvalues --  -88.93286 -10.26756 -10.24786  -8.01590  -5.97731
 Alpha  occ. eigenvalues --   -5.97455  -5.97449  -0.88086  -0.71562  -0.56401
 Alpha  occ. eigenvalues --   -0.46943  -0.39788  -0.35044  -0.28695  -0.25883
 Alpha  occ. eigenvalues --   -0.24476
 Alpha virt. eigenvalues --   -0.09650  -0.00831   0.01812   0.02756   0.04173
 Alpha virt. eigenvalues --    0.04829   0.06269   0.07859   0.08634   0.08677
 Alpha virt. eigenvalues --    0.10193   0.10503   0.12461   0.14038   0.14254

  Beta  occ. eigenvalues --  -88.93336 -10.24146 -10.22859  -8.01597  -5.97732
  Beta  occ. eigenvalues --   -5.97659  -5.97355  -0.85333  -0.65262  -0.52607
  Beta  occ. eigenvalues --   -0.43129  -0.37021  -0.29659
  Beta virt. eigenvalues --   -0.14251  -0.12755  -0.09684  -0.04639  -0.00291
  Beta virt. eigenvalues --    0.02476   0.03830   0.04468   0.05661   0.07311
  Beta virt. eigenvalues --    0.08330   0.09670   0.09679   0.11267   0.11343

 Mulliken charges and spin densities:
               1          2
     1  S    0.110825   0.123741
     2  C   -0.123906   1.557000
     3  C   -0.175418   1.305794
     4  H    0.188500   0.013464
 Sum of Mulliken charges =  -0.00000   3.00000

 Dipole moment (field-independent basis, Debye):
    X=             -3.2331    Y=              0.6344    Z=             -0.0000  Tot=              3.2947
 Quadrupole moment (field-independent basis, Debye-Ang):
   XX=            -26.5502   YY=            -25.8712   ZZ=            -25.2546
   XY=              1.8475   XZ=             -0.0000   YZ=              0.0000

  Exact polarizability:  69.961   4.874  40.395   0.000   0.000  32.614
 Approx polarizability: 132.938   7.603  63.418   0.000  -0.000  49.278

                      1                      2                      3
                     A'                     A"                     A'
 Frequencies --    348.5493               374.6415               691.5587
 Red. masses --      6.1919                 1.1524                 1.5126
 Frc consts  --      0.4432                 0.0953                 0.4262
 IR Inten    --      2.6552                32.0083                30.4754

                      4                      5                      6
                     A'                     A'                     A'
 Frequencies --    751.5760               864.7508              3220.7894
 Red. masses --      4.1500                10.2453                 1.0915
 Frc consts  --      1.3812                 4.5139                 6.6713
 IR Inten    --     13.6385                18.3211                11.3101

 - Thermochemistry -
 -------------------
 Temperature   298.150 Kelvin.  Pressure   1.00000 Atm.
 Atom     1 has atomic number 16 and mass  31.97207

 Molecular mass:    56.97990 amu.
 Principal axes and moments of inertia in atomic units:
                           1         2         3
     Eigenvalues --    42.89702 183.46950 226.36652
           X            0.98180  -0.18991   0.00000
           Y            0.18991   0.98180   0.00000
           Z            0.00000  -0.00000   1.00000
 This molecule is an asymmetric top.
 Rotational symmetry number  1.
 Rotational temperatures (Kelvin)      2.01911     0.47209     0.38263
 Rotational constants (GHZ):          42.07148     9.83674     7.97265
 Zero-point vibrational energy      37394.5 (Joules/Mol)
                                    8.93749 (Kcal/Mol)
 Warning -- explicit consideration of   2 degrees of freedom as
           vibrations may cause significant error
 Vibrational temperatures:    501.48   539.02   995.00  1081.35  1244.18
          (Kelvin)           4633.99

 Zero-point correction=                           0.014243 (Hartree/Particle)
 Thermal correction to Energy=                    0.018044
 Thermal correction to Enthalpy=                  0.018989
 Thermal correction to Gibbs Free Energy=        -0.012304
 Sum of electronic and zero-point Energies=           -474.766018
 Sum of electronic and thermal Energies=              -474.762217
 Sum of electronic and thermal Enthalpies=            -474.761272
 Sum of electronic and thermal Free Energies=         -474.792565

                     E (Thermal)             CV                S
                      KCal/Mol        Cal/Mol-Kelvin    Cal/Mol-Kelvin
 Total                   11.323             11.193             65.861
 Electronic               0.000              0.000              2.755
 Translational            0.889              2.981             38.041
 Rotational               0.889              2.981             22.104
 Vibrational              9.546              5.232              2.961
 Vibration     1          0.726              1.578              1.173
 Vibration     2          0.746              1.524              1.061

 Optimization completed.
    -- Stationary point found.
 Normal termination of Gaussian 09 at Wed Aug  3 23:05:01 2016.
