 Gaussian 09, Revision E.01,
 Gaussian 09:  EM64L-G09RevE.01 30-Nov-2015

 ------------------------------
 #p b3lyp/6-311++G(3df,2p) freq
 ------------------------------

 ---------
 b3lyp opt
 ---------
 Symbolic Z-matrix:
 Charge =  2 Multiplicity = 4

                         Standard orientation:
 ---------------------------------------------------------------------
 Center     Atomic      Atomic             Coordinates (Angstroms)
 Number     Number       Type             X           Y           Z
 ---------------------------------------------------------------------
      1         16           0        1.901801    0.169233   -0.002743
      2         16           0       -1.172549   -0.588664    0.009359
      3          6           0        0.415581   -0.163205    0.025069
      4          6           0       -1.957012    1.016155   -0.152622
      5          1           0       -2.419450    1.593198    0.659461
 ---------------------------------------------------------------------

 SCF Done:  E(UB3LYP) =  -872.202383901     A.U. after   18 cycles

 The electronic state is 4-A.
 Alpha  occ. eigenvalues --  -89.45171 -89.42753 -10.77111 -10.71208  -8.52752
 Alpha  occ. eigenvalues --   -8.50601  -6.49293  -6.48839  -6.48426  -6.47137
 Alpha  occ. eigenvalues --   -6.46466  -6.46446  -1.37007  -1.30718  -1.13043
 Alpha  occ. eigenvalues --   -1.00006  -0.93265  -0.90299  -0.88569  -0.82622
 Alpha  occ. eigenvalues --   -0.80945  -0.72156  -0.70255
 Alpha virt. eigenvalues --   -0.57893  -0.55628  -0.43463  -0.41848  -0.34562
 Alpha virt. eigenvalues --   -0.32840  -0.27728  -0.26673  -0.25889  -0.25061
 Alpha virt. eigenvalues --   -0.24716  -0.23645  -0.22836  -0.22181  -0.20944

  Beta  occ. eigenvalues --  -89.44697 -89.42302 -10.77283 -10.68207  -8.52293
  Beta  occ. eigenvalues --   -8.50189  -6.48540  -6.48079  -6.47910  -6.46192
  Beta  occ. eigenvalues --   -6.46053  -6.45886  -1.35093  -1.27741  -1.07876
  Beta  occ. eigenvalues --   -0.96949  -0.91381  -0.88238  -0.84863  -0.80492
  Beta virt. eigenvalues --   -0.69594  -0.58190  -0.55480  -0.52887  -0.50121
  Beta virt. eigenvalues --   -0.41087  -0.38325  -0.34010  -0.31244  -0.26256
  Beta virt. eigenvalues --   -0.25902  -0.25048  -0.24320  -0.23792  -0.22038

 Mulliken charges and spin densities:
               1          2
     1  S    0.491976   0.656916
     2  S    0.385869   0.746901
     3  C    0.742545  -0.162494
     4  C    0.102179   1.731939
     5  H    0.277431   0.026738
 Sum of Mulliken charges =   2.00000   3.00000

 Dipole moment (field-independent basis, Debye):
    X=             -0.4921    Y=              1.0092    Z=              0.5083  Tot=              1.2325
 Quadrupole moment (field-independent basis, Debye-Ang):
   XX=              2.9045   YY=            -24.6500   ZZ=            -29.0705
   XY=             -2.1157   XZ=             -1.5059   YZ=              1.3764

  Exact polarizability:  93.511  -4.308  40.465   0.468  -0.045  30.189
 Approx polarizability: 214.805   1.816  70.217   3.062  -1.210  48.125

                      1                      2                      3
                      A                      A                      A
 Frequencies --    128.2362               250.6826               377.2942
 Red. masses --      4.6252                 2.9806                 2.0967
 Frc consts  --      0.0448                 0.1104                 0.1758
 IR Inten    --      0.9821                11.8464                11.1552

                      4                      5                      6
                      A                      A                      A
 Frequencies --    401.8384               585.9661               604.2918
 Red. masses --      7.0388                25.3058                10.8552
 Frc consts  --      0.6697                 5.1194                 2.3355
 IR Inten    --     14.5518                 5.5038                13.2371

                      7                      8                      9
                      A                      A                      A
 Frequencies --    801.6591              1201.9464              3051.3545
 Red. masses --      1.1500                11.8362                 1.0887
 Frc consts  --      0.4354                10.0747                 5.9721
 IR Inten    --     20.0520                 9.7162               228.7793

 - Thermochemistry -
 -------------------
 Temperature   298.150 Kelvin.  Pressure   1.00000 Atm.
 Atom     1 has atomic number 16 and mass  31.97207

 Molecular mass:    88.95197 amu.
 Principal axes and moments of inertia in atomic units:
                           1         2         3
     Eigenvalues --    99.52041 764.99601 859.75049
           X            0.99976  -0.02023  -0.00825
           Y            0.02055   0.99896   0.04082
           Z            0.00742  -0.04098   0.99913
 This molecule is an asymmetric top.
 Rotational symmetry number  1.
 Rotational temperatures (Kelvin)      0.87031     0.11322     0.10074
 Rotational constants (GHZ):          18.13438     2.35915     2.09915
 Zero-point vibrational energy      44281.4 (Joules/Mol)
                                   10.58350 (Kcal/Mol)
 Warning -- explicit consideration of   6 degrees of freedom as
           vibrations may cause significant error
 Vibrational temperatures:    184.50   360.68   542.84   578.16   843.07
          (Kelvin)            869.44  1153.41  1729.33  4390.21

 Zero-point correction=                           0.016866 (Hartree/Particle)
 Thermal correction to Energy=                    0.021926
 Thermal correction to Enthalpy=                  0.022870
 Thermal correction to Gibbs Free Energy=        -0.013086
 Sum of electronic and zero-point Energies=           -872.185518
 Sum of electronic and thermal Energies=              -872.180458
 Sum of electronic and thermal Enthalpies=            -872.179514
 Sum of electronic and thermal Free Energies=         -872.215470

                     E (Thermal)             CV                S
                      KCal/Mol        Cal/Mol-Kelvin    Cal/Mol-Kelvin
 Total                   13.759             15.569             75.676
 Electronic               0.000              0.000              2.755
 Translational            0.889              2.981             39.369
 Rotational               0.889              2.981             25.685
 Vibrational             11.981              9.608              7.868
 Vibration     1          0.611              1.925              2.972
 Vibration     2          0.663              1.762              1.726
 Vibration     3          0.748              1.519              1.050
 Vibration     4          0.767              1.466              0.956
 Vibration     5          0.943              1.062              0.474
 Vibration     6          0.963              1.023              0.442

 Optimization completed.
    -- Stationary point found.
 Normal termination of Gaussian 09 at Wed Aug  3 20:18:14 2016.
