 Gaussian 09, Revision E.01,
 Gaussian 09:  EM64L-G09RevE.01 30-Nov-2015

 ------------------------------
 #p b3lyp/6-311++G(3df,2p) freq
 ------------------------------

 ---------
 b3lyp opt
 ---------
 Symbolic Z-matrix:
 Charge =  2 Multiplicity = 2

                         Standard orientation:
 ---------------------------------------------------------------------
 Center     Atomic      Atomic             Coordinates (Angstroms)
 Number     Number       Type             X           Y           Z
 ---------------------------------------------------------------------
      1         16           0        0.008226   -0.917220   -0.000000
      2          6           0        0.000000    0.693399    0.000000
      3          6           0       -0.254293    1.934095    0.000000
      4          1           0        1.394138   -1.089439   -0.000000
 ---------------------------------------------------------------------

 SCF Done:  E(UB3LYP) =  -473.858453777     A.U. after   26 cycles

 The electronic state is 2-A'.
 Alpha  occ. eigenvalues --  -89.53080 -10.90207 -10.81522  -8.60611  -6.56736
 Alpha  occ. eigenvalues --   -6.56720  -6.56203  -1.41446  -1.32612  -1.07557
 Alpha  occ. eigenvalues --   -0.96925  -0.95435  -0.92135  -0.86021
 Alpha virt. eigenvalues --   -0.75836  -0.57447  -0.53939  -0.47883  -0.45148
 Alpha virt. eigenvalues --   -0.35398  -0.31071  -0.29131  -0.27320  -0.27273
 Alpha virt. eigenvalues --   -0.25029  -0.23564  -0.23020  -0.20292  -0.18720

  Beta  occ. eigenvalues --  -89.53286 -10.87445 -10.81175  -8.60805  -6.57406
  Beta  occ. eigenvalues --   -6.56814  -6.56323  -1.41489  -1.30050  -1.07294
  Beta  occ. eigenvalues --   -0.96819  -0.91767  -0.84068
  Beta virt. eigenvalues --   -0.74130  -0.72424  -0.55035  -0.49965  -0.47294
  Beta virt. eigenvalues --   -0.45670  -0.35776  -0.31989  -0.29080  -0.27337
  Beta virt. eigenvalues --   -0.27168  -0.24989  -0.23521  -0.21603  -0.19503

 Mulliken charges and spin densities:
               1          2
     1  S    0.481778  -0.311607
     2  C    0.489006   0.077212
     3  C    0.702349   1.240359
     4  H    0.326867  -0.005964
 Sum of Mulliken charges =   2.00000   1.00000

 Dipole moment (field-independent basis, Debye):
    X=              1.0755    Y=              1.5650    Z=             -0.0000  Tot=              1.8990
 Quadrupole moment (field-independent basis, Debye-Ang):
   XX=            -16.0667   YY=              3.2857   ZZ=            -17.5016
   XY=             -4.3843   XZ=              0.0000   YZ=              0.0000

  Exact polarizability:  26.303  -6.852  51.128   0.000   0.000  18.923
 Approx polarizability:  36.523 -16.242 133.917  -0.000   0.000  28.921

                      1                      2                      3
                     A'                     A"                     A'
 Frequencies --    171.8509               289.5497               769.3868
 Red. masses --      7.9424                 6.3366                14.6858
 Frc consts  --      0.1382                 0.3130                 5.1220
 IR Inten    --      5.7866                14.2196                 0.0414

                      4                      5                      6
                     A'                     A'                     A'
 Frequencies --    934.1710              1825.2054              2312.5338
 Red. masses --      1.1124                11.9752                 1.0399
 Frc consts  --      0.5719                23.5049                 3.2765
 IR Inten    --     12.9687               240.1358               291.7469

 - Thermochemistry -
 -------------------
 Temperature   298.150 Kelvin.  Pressure   1.00000 Atm.
 Atom     1 has atomic number 16 and mass  31.97207

 Molecular mass:    56.97990 amu.
 Principal axes and moments of inertia in atomic units:
                           1         2         3
     Eigenvalues --     6.93450 283.87254 290.80704
           X           -0.09909   0.99508   0.00000
           Y            0.99508   0.09909  -0.00000
           Z            0.00000  -0.00000   1.00000
 This molecule is an asymmetric top.
 Rotational symmetry number  1.
 Rotational temperatures (Kelvin)     12.49027     0.30512     0.29784
 Rotational constants (GHZ):         260.25541     6.35758     6.20597
 Zero-point vibrational energy      37698.5 (Joules/Mol)
                                    9.01016 (Kcal/Mol)
 Warning -- explicit consideration of   2 degrees of freedom as
           vibrations may cause significant error
 Vibrational temperatures:    247.25   416.60  1106.97  1344.06  2626.06
          (Kelvin)           3327.22

 Zero-point correction=                           0.014359 (Hartree/Particle)
 Thermal correction to Energy=                    0.018367
 Thermal correction to Enthalpy=                  0.019311
 Thermal correction to Gibbs Free Energy=        -0.011404
 Sum of electronic and zero-point Energies=           -473.844095
 Sum of electronic and thermal Energies=              -473.840087
 Sum of electronic and thermal Enthalpies=            -473.839142
 Sum of electronic and thermal Free Energies=         -473.869857

                     E (Thermal)             CV                S
                      KCal/Mol        Cal/Mol-Kelvin    Cal/Mol-Kelvin
 Total                   11.526             10.716             64.645
 Electronic               0.000              0.000              1.377
 Translational            0.889              2.981             38.041
 Rotational               0.889              2.981             20.976
 Vibrational              9.748              4.754              4.251
 Vibration     1          0.626              1.877              2.415
 Vibration     2          0.686              1.693              1.477

 Optimization completed.
    -- Stationary point found.
 Normal termination of Gaussian 09 at Wed Aug  3 23:05:15 2016.
