 Gaussian 09, Revision E.01,
 Gaussian 09:  EM64L-G09RevE.01 30-Nov-2015

 ------------------------------
 #p b3lyp/6-311++G(3df,2p) freq
 ------------------------------

 ---------
 b3lyp opt
 ---------
 Symbolic Z-matrix:
 Charge =  2 Multiplicity = 2

                         Standard orientation:
 ---------------------------------------------------------------------
 Center     Atomic      Atomic             Coordinates (Angstroms)
 Number     Number       Type             X           Y           Z
 ---------------------------------------------------------------------
      1         16           0       -0.275648   -0.897172   -0.000000
      2          6           0        0.556964    1.949606    0.000000
      3          6           0       -0.000000    0.663611    0.000000
      4          1           0        1.068578   -1.324539   -0.000000
 ---------------------------------------------------------------------

 SCF Done:  E(UB3LYP) =  -473.858135653     A.U. after   20 cycles

 The electronic state is 2-A'.
 Alpha  occ. eigenvalues --  -89.52889 -10.89673 -10.85323  -8.60585  -6.56703
 Alpha  occ. eigenvalues --   -6.56651  -6.56314  -1.43080  -1.31313  -1.09536
 Alpha  occ. eigenvalues --   -0.98296  -0.92316  -0.88535  -0.85914
 Alpha virt. eigenvalues --   -0.74311  -0.61193  -0.55955  -0.50776  -0.45163
 Alpha virt. eigenvalues --   -0.37364  -0.32156  -0.30937  -0.27963  -0.27650
 Alpha virt. eigenvalues --   -0.25324  -0.24009  -0.23636  -0.20706  -0.19185

  Beta  occ. eigenvalues --  -89.52940 -10.88842 -10.84370  -8.60627  -6.56942
  Beta  occ. eigenvalues --   -6.56707  -6.56242  -1.41980  -1.28638  -1.08214
  Beta  occ. eigenvalues --   -0.95987  -0.91885  -0.85632
  Beta virt. eigenvalues --   -0.73896  -0.73516  -0.56728  -0.54387  -0.49849
  Beta virt. eigenvalues --   -0.43641  -0.37209  -0.32212  -0.30551  -0.27685
  Beta virt. eigenvalues --   -0.27574  -0.24543  -0.23536  -0.23009  -0.20305

 Mulliken charges and spin densities:
               1          2
     1  S    0.493369  -0.089362
     2  C    0.619228   0.469803
     3  C    0.541087   0.546857
     4  H    0.346316   0.072702
 Sum of Mulliken charges =   2.00000   1.00000

 Dipole moment (field-independent basis, Debye):
    X=              1.2316    Y=              0.1784    Z=              0.0000  Tot=              1.2444
 Quadrupole moment (field-independent basis, Debye-Ang):
   XX=            -16.0827   YY=             -0.4432   ZZ=            -18.0099
   XY=              0.8041   XZ=             -0.0000   YZ=              0.0000

  Exact polarizability:  24.722   7.019  61.190  -0.000  -0.000  20.557
 Approx polarizability:  43.837  24.099 134.255   0.000   0.000  32.338

                      1                      2                      3
                     A'                     A"                     A'
 Frequencies --    227.1783               242.3916               636.3410
 Red. masses --      6.6703                 5.4966                 7.2140
 Frc consts  --      0.2028                 0.1903                 1.7211
 IR Inten    --     21.2152                10.4219                24.5845

                      4                      5                      6
                     A'                     A'                     A'
 Frequencies --    836.0686              1225.4455              2191.6327
 Red. masses --      1.2278                12.8063                 1.0403
 Frc consts  --      0.5057                11.3308                 2.9442
 IR Inten    --     15.5610                30.9251               379.4917

 - Thermochemistry -
 -------------------
 Temperature   298.150 Kelvin.  Pressure   1.00000 Atm.
 Atom     1 has atomic number 16 and mass  31.97207

 Molecular mass:    56.97990 amu.
 Principal axes and moments of inertia in atomic units:
                           1         2         3
     Eigenvalues --     8.10000 297.76459 305.86458
           X            0.24865   0.96859   0.00000
           Y            0.96859  -0.24865   0.00000
           Z            0.00000   0.00000   1.00000
 This molecule is an asymmetric top.
 Rotational symmetry number  1.
 Rotational temperatures (Kelvin)     10.69307     0.29088     0.28318
 Rotational constants (GHZ):         222.80765     6.06097     5.90046
 Zero-point vibrational energy      32054.3 (Joules/Mol)
                                    7.66116 (Kcal/Mol)
 Warning -- explicit consideration of   2 degrees of freedom as
           vibrations may cause significant error
 Vibrational temperatures:    326.86   348.75   915.55  1202.91  1763.14
          (Kelvin)           3153.27

 Zero-point correction=                           0.012209 (Hartree/Particle)
 Thermal correction to Energy=                    0.016283
 Thermal correction to Enthalpy=                  0.017227
 Thermal correction to Gibbs Free Energy=        -0.013629
 Sum of electronic and zero-point Energies=           -473.845927
 Sum of electronic and thermal Energies=              -473.841853
 Sum of electronic and thermal Enthalpies=            -473.840908
 Sum of electronic and thermal Free Energies=         -473.871764

                     E (Thermal)             CV                S
                      KCal/Mol        Cal/Mol-Kelvin    Cal/Mol-Kelvin
 Total                   10.218             11.280             64.942
 Electronic               0.000              0.000              1.377
 Translational            0.889              2.981             38.041
 Rotational               0.889              2.981             21.228
 Vibrational              8.440              5.318              4.295
 Vibration     1          0.651              1.800              1.901
 Vibration     2          0.659              1.775              1.785

 Optimization completed.
    -- Stationary point found.
 Normal termination of Gaussian 09 at Wed Aug  3 23:05:10 2016.
