 Gaussian 09, Revision E.01,
 Gaussian 09:  EM64L-G09RevE.01 30-Nov-2015

 ------------------------------
 #p b3lyp/6-311++G(3df,2p) freq
 ------------------------------

 ---------
 b3lyp opt
 ---------
 Symbolic Z-matrix:
 Charge =  0 Multiplicity = 4

                         Standard orientation:
 ---------------------------------------------------------------------
 Center     Atomic      Atomic             Coordinates (Angstroms)
 Number     Number       Type             X           Y           Z
 ---------------------------------------------------------------------
      1         16           0       -1.242432   -0.331835    0.000000
      2         16           0        1.566569    0.941115   -0.000000
      3          6           0       -0.000000    0.760391    0.000000
      4          6           0       -0.669220   -1.907608   -0.000000
      5          1           0       -1.170861   -2.865183   -0.000000
 ---------------------------------------------------------------------

 SCF Done:  E(UB3LYP) =  -873.087370631     A.U. after   15 cycles

 The electronic state is 4-A".
 Alpha  occ. eigenvalues --  -88.93079 -88.86968 -10.25657 -10.25529  -8.01275
 Alpha  occ. eigenvalues --   -7.95514  -5.97553  -5.97180  -5.97031  -5.91711
 Alpha  occ. eigenvalues --   -5.91481  -5.91433  -0.88462  -0.79561  -0.68988
 Alpha  occ. eigenvalues --   -0.54436  -0.47000  -0.43269  -0.40516  -0.34688
 Alpha  occ. eigenvalues --   -0.32489  -0.29699  -0.22796  -0.21533
 Alpha virt. eigenvalues --   -0.07654  -0.01035   0.01347   0.02113   0.02232
 Alpha virt. eigenvalues --    0.04183   0.04724   0.06262   0.06880   0.06895
 Alpha virt. eigenvalues --    0.07566   0.08648   0.08679   0.11152   0.12052

  Beta  occ. eigenvalues --  -88.92996 -88.86621 -10.24570 -10.22854  -8.01156
  Beta  occ. eigenvalues --   -7.95200  -5.97453  -5.97005  -5.96931  -5.91384
  Beta  occ. eigenvalues --   -5.91065  -5.90713  -0.86088  -0.77556  -0.63771
  Beta  occ. eigenvalues --   -0.51452  -0.44597  -0.40366  -0.38083  -0.30135
  Beta  occ. eigenvalues --   -0.29510
  Beta virt. eigenvalues --   -0.13779  -0.11366  -0.10731  -0.03974  -0.00631
  Beta virt. eigenvalues --    0.01900   0.02550   0.03204   0.04366   0.05058
  Beta virt. eigenvalues --    0.06697   0.06971   0.07960   0.08406   0.09766

 Mulliken charges and spin densities:
               1          2
     1  S   -0.059048   0.185103
     2  S   -0.111073   0.559302
     3  C    0.134257   0.557650
     4  C   -0.171270   1.690342
     5  H    0.207134   0.007603
 Sum of Mulliken charges =  -0.00000   3.00000

 Dipole moment (field-independent basis, Debye):
    X=             -1.2931    Y=             -1.8460    Z=              0.0000  Tot=              2.2539
 Quadrupole moment (field-independent basis, Debye-Ang):
   XX=            -36.1714   YY=            -35.4016   ZZ=            -38.5374
   XY=              2.2890   XZ=              0.0000   YZ=              0.0000

  Exact polarizability:  88.308  24.447  82.733   0.000  -0.000  43.916
 Approx polarizability: 169.389  43.020 137.413  -0.000  -0.000  69.338

                      1                      2                      3
                     A'                     A"                     A"
 Frequencies --    132.5738               196.8182               344.1407
 Red. masses --      6.3870                 1.2262                 7.8288
 Frc consts  --      0.0661                 0.0280                 0.5463
 IR Inten    --      1.2454                44.5920                 0.1940

                      4                      5                      6
                     A'                     A'                     A'
 Frequencies --    396.5344               620.0187               755.3819
 Red. masses --      5.8463                18.2631                 1.2993
 Frc consts  --      0.5416                 4.1365                 0.4368
 IR Inten    --      5.2332                 3.9916                32.6499

                      7                      8                      9
                     A'                     A'                     A'
 Frequencies --    798.4263              1288.2041              3207.2464
 Red. masses --      9.8462                13.5686                 1.0910
 Frc consts  --      3.6982                13.2664                 6.6119
 IR Inten    --     21.9855               149.3108                 3.9325

 - Thermochemistry -
 -------------------
 Temperature   298.150 Kelvin.  Pressure   1.00000 Atm.
 Atom     1 has atomic number 16 and mass  31.97207

 Molecular mass:    88.95197 amu.
 Principal axes and moments of inertia in atomic units:
                           1         2         3
     Eigenvalues --   109.32195 694.83188 804.15383
           X            0.79622  -0.60501   0.00000
           Y            0.60501   0.79622   0.00000
           Z           -0.00000   0.00000   1.00000
 This molecule is an asymmetric top.
 Rotational symmetry number  1.
 Rotational temperatures (Kelvin)      0.79228     0.12465     0.10771
 Rotational constants (GHZ):          16.50850     2.59738     2.24427
 Zero-point vibrational energy      46291.6 (Joules/Mol)
                                   11.06395 (Kcal/Mol)
 Warning -- explicit consideration of   5 degrees of freedom as
           vibrations may cause significant error
 Vibrational temperatures:    190.74   283.18   495.14   570.52   892.07
          (Kelvin)           1086.82  1148.76  1853.44  4614.51

 Zero-point correction=                           0.017632 (Hartree/Particle)
 Thermal correction to Energy=                    0.022717
 Thermal correction to Enthalpy=                  0.023661
 Thermal correction to Gibbs Free Energy=        -0.012392
 Sum of electronic and zero-point Energies=           -873.069739
 Sum of electronic and thermal Energies=              -873.064654
 Sum of electronic and thermal Enthalpies=            -873.063710
 Sum of electronic and thermal Free Energies=         -873.099763

                     E (Thermal)             CV                S
                      KCal/Mol        Cal/Mol-Kelvin    Cal/Mol-Kelvin
 Total                   14.255             15.316             75.880
 Electronic               0.000              0.000              2.755
 Translational            0.889              2.981             39.369
 Rotational               0.889              2.981             25.616
 Vibrational             12.477              9.354              8.140
 Vibration     1          0.613              1.921              2.908
 Vibration     2          0.636              1.844              2.163
 Vibration     3          0.723              1.587              1.193
 Vibration     4          0.763              1.478              0.975
 Vibration     5          0.980              0.990              0.416

 Optimization completed.
    -- Stationary point found.
 Normal termination of Gaussian 09 at Wed Aug  3 23:02:23 2016.
