 Gaussian 09, Revision E.01,
 Gaussian 09:  EM64L-G09RevE.01 30-Nov-2015

 ------------------------------
 #p b3lyp/6-311++G(3df,2p) freq
 ------------------------------

 ---------
 b3lyp opt
 ---------
 Symbolic Z-matrix:
 Charge =  0 Multiplicity = 2

                         Standard orientation:
 ---------------------------------------------------------------------
 Center     Atomic      Atomic             Coordinates (Angstroms)
 Number     Number       Type             X           Y           Z
 ---------------------------------------------------------------------
      1         16           0       -0.390693    1.936726   -0.000000
      2         16           0        0.612499   -1.063219    0.000000
      3          6           0        0.000000    0.446112   -0.000000
      4          6           0       -0.601852   -2.252480    0.000000
      5          1           0        0.062212   -3.137901    0.000000
 ---------------------------------------------------------------------

 SCF Done:  E(UB3LYP) =  -873.104655404     A.U. after   19 cycles

 The electronic state is 2-A".
 Alpha  occ. eigenvalues --  -88.93366 -88.91436 -10.29367 -10.20759  -8.01582
 Alpha  occ. eigenvalues --   -7.99977  -5.97840  -5.97387  -5.97367  -5.96057
 Alpha  occ. eigenvalues --   -5.95996  -5.95800  -0.89259  -0.82634  -0.68106
 Alpha  occ. eigenvalues --   -0.51765  -0.44389  -0.43578  -0.42328  -0.36116
 Alpha  occ. eigenvalues --   -0.33534  -0.24804  -0.20819
 Alpha virt. eigenvalues --   -0.13727  -0.08294  -0.01161   0.00825   0.01399
 Alpha virt. eigenvalues --    0.02622   0.03834   0.04365   0.06034   0.06225
 Alpha virt. eigenvalues --    0.06974   0.08264   0.09311   0.10166   0.11112

  Beta  occ. eigenvalues --  -88.93466 -88.91303 -10.28800 -10.20004  -8.01660
  Beta  occ. eigenvalues --   -7.99855  -5.97908  -5.97606  -5.97458  -5.96001
  Beta  occ. eigenvalues --   -5.95938  -5.95347  -0.88435  -0.82097  -0.66266
  Beta  occ. eigenvalues --   -0.50634  -0.44051  -0.43036  -0.40200  -0.35775
  Beta  occ. eigenvalues --   -0.31769  -0.23837
  Beta virt. eigenvalues --   -0.13100  -0.11809  -0.04536  -0.01010   0.00984
  Beta virt. eigenvalues --    0.01605   0.02687   0.03929   0.04412   0.06156
  Beta virt. eigenvalues --    0.06333   0.06963   0.08376   0.09412   0.10998

 Mulliken charges and spin densities:
               1          2
     1  S   -0.155412   0.256113
     2  S   -0.070335  -0.089022
     3  C    0.493920   0.297322
     4  C   -0.425943   0.553874
     5  H    0.157770  -0.018287
 Sum of Mulliken charges =  -0.00000   1.00000

 Dipole moment (field-independent basis, Debye):
    X=              1.8435    Y=              1.9211    Z=             -0.0000  Tot=              2.6626
 Quadrupole moment (field-independent basis, Debye-Ang):
   XX=            -39.7420   YY=            -36.3947   ZZ=            -38.5692
   XY=             -5.2513   XZ=             -0.0000   YZ=              0.0000

  Exact polarizability:  54.973  -0.963 141.730  -0.000  -0.000  45.165
 Approx polarizability:  96.479  -2.579 317.538   0.000  -0.000  69.335

                      1                      2                      3
                     A'                     A"                     A'
 Frequencies --    139.6065               180.7368               454.7223
 Red. masses --      7.7533                 9.4362                10.1546
 Frc consts  --      0.0890                 0.1816                 1.2371
 IR Inten    --      0.7432                 7.3779                 4.2532

                      4                      5                      6
                     A'                     A"                     A'
 Frequencies --    537.6434               537.6721               694.7730
 Red. masses --     21.2022                 1.1051                11.8119
 Frc consts  --      3.6109                 0.1882                 3.3593
 IR Inten    --     14.4872                21.3633                 3.3954

                      7                      8                      9
                     A'                     A'                     A'
 Frequencies --   1073.5695              1452.6647              2955.2713
 Red. masses --      1.1279                13.2489                 1.0816
 Frc consts  --      0.7659                16.4726                 5.5658
 IR Inten    --     33.1208               202.5082                17.1599

 - Thermochemistry -
 -------------------
 Temperature   298.150 Kelvin.  Pressure   1.00000 Atm.
 Atom     1 has atomic number 16 and mass  31.97207

 Molecular mass:    88.95197 amu.
 Principal axes and moments of inertia in atomic units:
                           1         2         3
     Eigenvalues --    61.68176 832.44246 894.12422
           X           -0.13533   0.99080  -0.00000
           Y            0.99080   0.13533   0.00000
           Z           -0.00000   0.00000   1.00000
 This molecule is an asymmetric top.
 Rotational symmetry number  1.
 Rotational temperatures (Kelvin)      1.40420     0.10405     0.09687
 Rotational constants (GHZ):          29.25891     2.16801     2.01845
 Zero-point vibrational energy      48010.1 (Joules/Mol)
                                   11.47469 (Kcal/Mol)
 Warning -- explicit consideration of   5 degrees of freedom as
           vibrations may cause significant error
 Vibrational temperatures:    200.86   260.04   654.24   773.55   773.59
          (Kelvin)            999.62  1544.63  2090.06  4251.97

 Zero-point correction=                           0.018286 (Hartree/Particle)
 Thermal correction to Energy=                    0.023175
 Thermal correction to Enthalpy=                  0.024120
 Thermal correction to Gibbs Free Energy=        -0.010816
 Sum of electronic and zero-point Energies=           -873.086369
 Sum of electronic and thermal Energies=              -873.081480
 Sum of electronic and thermal Enthalpies=            -873.080536
 Sum of electronic and thermal Free Energies=         -873.115471

                     E (Thermal)             CV                S
                      KCal/Mol        Cal/Mol-Kelvin    Cal/Mol-Kelvin
 Total                   14.543             14.656             73.527
 Electronic               0.000              0.000              1.377
 Translational            0.889              2.981             39.369
 Rotational               0.889              2.981             25.332
 Vibrational             12.765              8.695              7.449
 Vibration     1          0.615              1.914              2.809
 Vibration     2          0.630              1.866              2.321
 Vibration     3          0.813              1.350              0.782
 Vibration     4          0.893              1.167              0.570
 Vibration     5          0.893              1.167              0.570

 Normal termination of Gaussian 09 at Wed Aug  3 23:02:32 2016.
