 Gaussian 09, Revision E.01,
 Gaussian 09:  EM64L-G09RevE.01 30-Nov-2015

 ------------------------------
 #p b3lyp/6-311++G(3df,2p) freq
 ------------------------------

 ---------
 b3lyp opt
 ---------
 Symbolic Z-matrix:
 Charge =  2 Multiplicity = 4

                         Standard orientation:
 ---------------------------------------------------------------------
 Center     Atomic      Atomic             Coordinates (Angstroms)
 Number     Number       Type             X           Y           Z
 ---------------------------------------------------------------------
      1         16           0       -0.041835   -0.931503    0.000000
      2          6           0        0.000000    0.687200   -0.000000
      3          6           0       -0.114987    1.976131   -0.000000
      4          1           0        1.359276   -1.075938   -0.000000
 ---------------------------------------------------------------------

 SCF Done:  E(UB3LYP) =  -473.860358129     A.U. after   15 cycles

 The electronic state is 4-A".
 Alpha  occ. eigenvalues --  -89.50067 -10.90401 -10.85657  -8.57848  -6.54219
 Alpha  occ. eigenvalues --   -6.53967  -6.53663  -1.42644  -1.34368  -1.07776
 Alpha  occ. eigenvalues --   -0.98634  -0.96396  -0.94045  -0.89189  -0.83542
 Alpha virt. eigenvalues --   -0.60670  -0.56379  -0.49556  -0.46360  -0.35540
 Alpha virt. eigenvalues --   -0.31475  -0.29444  -0.27720  -0.27193  -0.25282
 Alpha virt. eigenvalues --   -0.23577  -0.23251  -0.21307  -0.18990  -0.17631

  Beta  occ. eigenvalues --  -89.49556 -10.86386 -10.85034  -8.57376  -6.53662
  Beta  occ. eigenvalues --   -6.53229  -6.52823  -1.39316  -1.28037  -1.05159
  Beta  occ. eigenvalues --   -0.94240  -0.89426
  Beta virt. eigenvalues --   -0.75135  -0.71221  -0.70204  -0.52908  -0.49399
  Beta virt. eigenvalues --   -0.46868  -0.43847  -0.34312  -0.29608  -0.28614
  Beta virt. eigenvalues --   -0.26914  -0.26597  -0.24058  -0.22517  -0.21453

 Mulliken charges and spin densities:
               1          2
     1  S    0.367611   0.740813
     2  C    0.530403   0.297361
     3  C    0.754553   1.900219
     4  H    0.347433   0.061607
 Sum of Mulliken charges =   2.00000   3.00000

 Dipole moment (field-independent basis, Debye):
    X=              1.2457    Y=              2.1772    Z=             -0.0000  Tot=              2.5084
 Quadrupole moment (field-independent basis, Debye-Ang):
   XX=            -14.7416   YY=              3.8934   ZZ=            -19.1944
   XY=             -3.0583   XZ=              0.0000   YZ=              0.0000

  Exact polarizability:  21.894  -3.350  52.464  -0.000   0.000  18.638
 Approx polarizability:  34.714  -5.744 114.180  -0.000  -0.000  26.965

                      1                      2                      3
                     A'                     A"                     A'
 Frequencies --    331.6218               350.9970               748.5249
 Red. masses --      4.5212                 9.2491                13.6050
 Frc consts  --      0.2929                 0.6714                 4.4912
 IR Inten    --     13.3985                12.5345                12.1103

                      4                      5                      6
                     A'                     A'                     A'
 Frequencies --    786.6839              1678.8214              2195.4377
 Red. masses --      1.2501                11.9687                 1.0391
 Frc consts  --      0.4558                19.8750                 2.9510
 IR Inten    --     47.1171                54.8501               434.0108

 - Thermochemistry -
 -------------------
 Temperature   298.150 Kelvin.  Pressure   1.00000 Atm.
 Atom     1 has atomic number 16 and mass  31.97207

 Molecular mass:    56.97990 amu.
 Principal axes and moments of inertia in atomic units:
                           1         2         3
     Eigenvalues --     6.91683 291.12668 298.04351
           X           -0.03683   0.99932   0.00000
           Y            0.99932   0.03683   0.00000
           Z           -0.00000  -0.00000   1.00000
 This molecule is an asymmetric top.
 Rotational symmetry number  1.
 Rotational temperatures (Kelvin)     12.52218     0.29751     0.29061
 Rotational constants (GHZ):         260.92023     6.19916     6.05529
 Zero-point vibrational energy      36438.8 (Joules/Mol)
                                    8.70907 (Kcal/Mol)
 Warning -- explicit consideration of   2 degrees of freedom as
           vibrations may cause significant error
 Vibrational temperatures:    477.13   505.01  1076.96  1131.86  2415.45
          (Kelvin)           3158.74

 Zero-point correction=                           0.013879 (Hartree/Particle)
 Thermal correction to Energy=                    0.017633
 Thermal correction to Enthalpy=                  0.018577
 Thermal correction to Gibbs Free Energy=        -0.012169
 Sum of electronic and zero-point Energies=           -473.846479
 Sum of electronic and thermal Energies=              -473.842725
 Sum of electronic and thermal Enthalpies=            -473.841781
 Sum of electronic and thermal Free Energies=         -473.872527

                     E (Thermal)             CV                S
                      KCal/Mol        Cal/Mol-Kelvin    Cal/Mol-Kelvin
 Total                   11.065             10.605             64.711
 Electronic               0.000              0.000              2.755
 Translational            0.889              2.981             38.041
 Rotational               0.889              2.981             21.023
 Vibrational              9.288              4.643              2.892
 Vibration     1          0.714              1.612              1.252
 Vibration     2          0.728              1.573              1.162

 Optimization completed.
    -- Stationary point found.
 Normal termination of Gaussian 09 at Wed Aug  3 23:06:53 2016.
