 Gaussian 09, Revision E.01,
 Gaussian 09:  EM64L-G09RevE.01 30-Nov-2015

 ------------------------------
 #p b3lyp/6-311++G(3df,2p) freq
 ------------------------------

 ---------
 b3lyp opt
 ---------
 Symbolic Z-matrix:
 Charge =  2 Multiplicity = 2

                         Standard orientation:
 ---------------------------------------------------------------------
 Center     Atomic      Atomic             Coordinates (Angstroms)
 Number     Number       Type             X           Y           Z
 ---------------------------------------------------------------------
      1         16           0        0.203937   -0.890234   -0.000000
      2          6           0       -0.000000    0.686870    0.000000
      3          6           0       -0.812545    1.827181    0.000000
      4          1           0        1.612269   -0.840550    0.000000
 ---------------------------------------------------------------------

 SCF Done:  E(UB3LYP) =  -473.860208437     A.U. after   20 cycles

 The electronic state is 2-A'.
 Alpha  occ. eigenvalues --  -89.52724 -10.89897 -10.85204  -8.60430  -6.56556
 Alpha  occ. eigenvalues --   -6.56484  -6.56143  -1.43180  -1.31144  -1.08466
 Alpha  occ. eigenvalues --   -0.98749  -0.92251  -0.89232  -0.85769
 Alpha virt. eigenvalues --   -0.74276  -0.61615  -0.56009  -0.50332  -0.45833
 Alpha virt. eigenvalues --   -0.35932  -0.32291  -0.29743  -0.28031  -0.27637
 Alpha virt. eigenvalues --   -0.26998  -0.23519  -0.23362  -0.20659  -0.19925

  Beta  occ. eigenvalues --  -89.52794 -10.89005 -10.84239  -8.60487  -6.56817
  Beta  occ. eigenvalues --   -6.56539  -6.56129  -1.42012  -1.28558  -1.07135
  Beta  occ. eigenvalues --   -0.96864  -0.91802  -0.85719
  Beta virt. eigenvalues --   -0.73626  -0.73485  -0.57341  -0.54336  -0.49339
  Beta virt. eigenvalues --   -0.44641  -0.35852  -0.32389  -0.29376  -0.27796
  Beta virt. eigenvalues --   -0.27646  -0.25995  -0.23412  -0.22196  -0.20108

 Mulliken charges and spin densities:
               1          2
     1  S    0.623295  -0.112280
     2  C    0.475622   0.601496
     3  C    0.557670   0.437954
     4  H    0.343414   0.072829
 Sum of Mulliken charges =   2.00000   1.00000

 Dipole moment (field-independent basis, Debye):
    X=              1.3526    Y=              0.7867    Z=              0.0000  Tot=              1.5647
 Quadrupole moment (field-independent basis, Debye-Ang):
   XX=            -13.2698   YY=             -2.6670   ZZ=            -18.0162
   XY=             -6.4251   XZ=             -0.0000   YZ=             -0.0000

  Exact polarizability:  30.664 -15.739  56.074  -0.000   0.000  20.481
 Approx polarizability:  56.896 -38.966 125.248   0.000   0.000  32.872

                      1                      2                      3
                     A'                     A"                     A'
 Frequencies --    251.0810               298.8362               690.8654
 Red. masses --      7.5757                 2.2663                 4.8071
 Frc consts  --      0.2814                 0.1192                 1.3518
 IR Inten    --      1.4433                20.8786                 5.3370

                      4                      5                      6
                     A'                     A'                     A'
 Frequencies --    866.8112              1199.9274              2199.0202
 Red. masses --      1.3459                10.8053                 1.0406
 Frc consts  --      0.5958                 9.1664                 2.9649
 IR Inten    --     85.6708                 3.7158               425.8635

 - Thermochemistry -
 -------------------
 Temperature   298.150 Kelvin.  Pressure   1.00000 Atm.
 Atom     1 has atomic number 16 and mass  31.97207

 Molecular mass:    56.97990 amu.
 Principal axes and moments of inertia in atomic units:
                           1         2         3
     Eigenvalues --     9.97197 288.53007 298.50205
           X           -0.34033   0.94031   0.00000
           Y            0.94031   0.34033   0.00000
           Z           -0.00000  -0.00000   1.00000
 This molecule is an asymmetric top.
 Rotational symmetry number  1.
 Rotational temperatures (Kelvin)      8.68573     0.30019     0.29016
 Rotational constants (GHZ):         180.98138     6.25495     6.04599
 Zero-point vibrational energy      32936.4 (Joules/Mol)
                                    7.87200 (Kcal/Mol)
 Warning -- explicit consideration of   2 degrees of freedom as
           vibrations may cause significant error
 Vibrational temperatures:    361.25   429.96   994.00  1247.15  1726.43
          (Kelvin)           3163.90

 Zero-point correction=                           0.012545 (Hartree/Particle)
 Thermal correction to Energy=                    0.016479
 Thermal correction to Enthalpy=                  0.017423
 Thermal correction to Gibbs Free Energy=        -0.013205
 Sum of electronic and zero-point Energies=           -473.847664
 Sum of electronic and thermal Energies=              -473.843730
 Sum of electronic and thermal Enthalpies=            -473.842786
 Sum of electronic and thermal Free Energies=         -473.873414

                     E (Thermal)             CV                S
                      KCal/Mol        Cal/Mol-Kelvin    Cal/Mol-Kelvin
 Total                   10.340             11.003             64.462
 Electronic               0.000              0.000              1.377
 Translational            0.889              2.981             38.041
 Rotational               0.889              2.981             21.379
 Vibrational              8.563              5.041              3.665
 Vibration     1          0.663              1.761              1.723
 Vibration     2          0.692              1.676              1.423

 Optimization completed.
    -- Stationary point found.
 Normal termination of Gaussian 09 at Wed Aug  3 23:07:00 2016.
