 Gaussian 09, Revision E.01,
 Gaussian 09:  EM64L-G09RevE.01 30-Nov-2015

 ------------------------------
 #p b3lyp/6-311++G(3df,2p) freq
 ------------------------------

 ---------
 b3lyp opt
 ---------
 Symbolic Z-matrix:
 Charge =  2 Multiplicity = 2

                         Standard orientation:
 ---------------------------------------------------------------------
 Center     Atomic      Atomic             Coordinates (Angstroms)
 Number     Number       Type             X           Y           Z
 ---------------------------------------------------------------------
      1         16           0       -1.450438   -0.076909   -0.082892
      2         16           0        1.450716   -0.076172   -0.082943
      3          6           0        0.001191   -0.819846    0.306038
      4          6           0       -0.001880    0.914139    0.040710
      5          1           0       -0.000320    1.883536    0.572884
 ---------------------------------------------------------------------

 SCF Done:  E(UB3LYP) =  -872.245927206     A.U. after   17 cycles

 The electronic state is 2-A.
 Alpha  occ. eigenvalues --  -89.44161 -89.44156 -10.83253 -10.81226  -8.51986
 Alpha  occ. eigenvalues --   -8.51981  -6.48266  -6.48262  -6.48075  -6.48070
 Alpha  occ. eigenvalues --   -6.47518  -6.47510  -1.47754  -1.28967  -1.14989
 Alpha  occ. eigenvalues --   -1.03597  -0.98062  -0.95161  -0.90678  -0.89307
 Alpha  occ. eigenvalues --   -0.78004  -0.76644
 Alpha virt. eigenvalues --   -0.60548  -0.59495  -0.50334  -0.46866  -0.43252
 Alpha virt. eigenvalues --   -0.36292  -0.34561  -0.30250  -0.27968  -0.27073
 Alpha virt. eigenvalues --   -0.25063  -0.24519  -0.24330  -0.23443  -0.22550

  Beta  occ. eigenvalues --  -89.44158 -89.44154 -10.81933 -10.80656  -8.51978
  Beta  occ. eigenvalues --   -8.51973  -6.48206  -6.48200  -6.48090  -6.48086
  Beta  occ. eigenvalues --   -6.47554  -6.47550  -1.46686  -1.28717  -1.12780
  Beta  occ. eigenvalues --   -1.02918  -0.94779  -0.94316  -0.89481  -0.88994
  Beta  occ. eigenvalues --   -0.76876
  Beta virt. eigenvalues --   -0.65085  -0.57889  -0.57586  -0.48697  -0.46173
  Beta virt. eigenvalues --   -0.42820  -0.35597  -0.34369  -0.29526  -0.27936
  Beta virt. eigenvalues --   -0.26881  -0.24773  -0.24373  -0.23653  -0.22907

 Mulliken charges and spin densities:
               1          2
     1  S    0.471569   0.016465
     2  S    0.471610   0.015196
     3  C    0.533620   0.647962
     4  C    0.238535   0.287958
     5  H    0.284667   0.032420
 Sum of Mulliken charges =   2.00000   1.00000

 Dipole moment (field-independent basis, Debye):
    X=              0.0001    Y=              1.2506    Z=              0.2322  Tot=              1.2719
 Quadrupole moment (field-independent basis, Debye-Ang):
   XX=            -11.4318   YY=            -21.5136   ZZ=            -30.0570
   XY=             -0.0005   XZ=              0.0004   YZ=              0.8135

  Exact polarizability:  63.759  -0.001  39.177  -0.001  -0.282  28.207
 Approx polarizability: 165.468   0.044  88.245  -0.019  -5.930  48.421

                      1                      2                      3
                      A                      A                      A
 Frequencies --    382.4716               399.7810               459.1035
 Red. masses --     12.3781                 8.2294                12.2891
 Frc consts  --      1.0668                 0.7749                 1.5261
 IR Inten    --      1.4881                 0.1081                 0.0494

                      4                      5                      6
                      A                      A                      A
 Frequencies --    567.3923               790.2266               895.0347
 Red. masses --     10.3369                 2.8762                 1.9922
 Frc consts  --      1.9607                 1.0582                 0.9403
 IR Inten    --      2.7602                15.9738                25.0098

                      7                      8                      9
                      A                      A                      A
 Frequencies --    970.9271              1103.3779              2969.0452
 Red. masses --      1.7999                 2.1477                 1.0909
 Frc consts  --      0.9997                 1.5406                 5.6660
 IR Inten    --     50.4866                 0.9454               241.9031

 - Thermochemistry -
 -------------------
 Temperature   298.150 Kelvin.  Pressure   1.00000 Atm.
 Atom     1 has atomic number 16 and mass  31.97207

 Molecular mass:    88.95197 amu.
 Principal axes and moments of inertia in atomic units:
                           1         2         3
     Eigenvalues --    85.40276 487.10050 559.27284
           X            1.00000  -0.00001  -0.00000
           Y            0.00001   0.99856   0.05365
           Z            0.00000  -0.05365   0.99856
 This molecule is an asymmetric top.
 Rotational symmetry number  1.
 Rotational temperatures (Kelvin)      1.01418     0.17782     0.15487
 Rotational constants (GHZ):          21.13212     3.70507     3.22694
 Zero-point vibrational energy      51064.8 (Joules/Mol)
                                   12.20477 (Kcal/Mol)
 Warning -- explicit consideration of   4 degrees of freedom as
           vibrations may cause significant error
 Vibrational temperatures:    550.29   575.19   660.55   816.35  1136.96
          (Kelvin)           1287.75  1396.95  1587.51  4271.79

 Zero-point correction=                           0.019450 (Hartree/Particle)
 Thermal correction to Energy=                    0.023556
 Thermal correction to Enthalpy=                  0.024500
 Thermal correction to Gibbs Free Energy=        -0.008379
 Sum of electronic and zero-point Energies=           -872.226478
 Sum of electronic and thermal Energies=              -872.222372
 Sum of electronic and thermal Enthalpies=            -872.221427
 Sum of electronic and thermal Free Energies=         -872.254306

                     E (Thermal)             CV                S
                      KCal/Mol        Cal/Mol-Kelvin    Cal/Mol-Kelvin
 Total                   14.781             13.244             69.199
 Electronic               0.000              0.000              1.377
 Translational            0.889              2.981             39.369
 Rotational               0.889              2.981             24.657
 Vibrational             13.004              7.282              3.795
 Vibration     1          0.752              1.508              1.029
 Vibration     2          0.766              1.471              0.963
 Vibration     3          0.817              1.341              0.769
 Vibration     4          0.923              1.102              0.509

 Normal termination of Gaussian 09 at Wed Aug  3 20:13:27 2016.
