 Gaussian 09, Revision E.01,
 Gaussian 09:  EM64L-G09RevE.01 30-Nov-2015

 ------------------------------
 #p b3lyp/6-311++G(3df,2p) freq
 ------------------------------

 ---------
 b3lyp opt
 ---------
 Symbolic Z-matrix:
 Charge =  0 Multiplicity = 4

                         Standard orientation:
 ---------------------------------------------------------------------
 Center     Atomic      Atomic             Coordinates (Angstroms)
 Number     Number       Type             X           Y           Z
 ---------------------------------------------------------------------
      1         16           0       -0.000000    0.867523   -0.000000
      2          6           0        0.429754   -0.813501    0.000000
      3          6           0       -0.641106   -1.721202    0.000000
      4          1           0        1.268109    1.327846   -0.000000
 ---------------------------------------------------------------------

 SCF Done:  E(UB3LYP) =  -474.769725946     A.U. after   17 cycles

 The electronic state is 4-A".
 Alpha  occ. eigenvalues --  -88.92202 -10.27180 -10.24389  -8.00706  -5.96883
 Alpha  occ. eigenvalues --   -5.96673  -5.96598  -0.86142  -0.74051  -0.52300
 Alpha  occ. eigenvalues --   -0.46128  -0.38601  -0.36239  -0.33357  -0.28019
 Alpha  occ. eigenvalues --   -0.19150
 Alpha virt. eigenvalues --   -0.05148  -0.03327  -0.00500   0.03706   0.04316
 Alpha virt. eigenvalues --    0.04361   0.05956   0.07309   0.08655   0.08804
 Alpha virt. eigenvalues --    0.10295   0.10457   0.12056   0.12302   0.15495

  Beta  occ. eigenvalues --  -88.91858 -10.25807 -10.21800  -8.00376  -5.96611
  Beta  occ. eigenvalues --   -5.96233  -5.95901  -0.82999  -0.68479  -0.48573
  Beta  occ. eigenvalues --   -0.43216  -0.34231  -0.29178
  Beta virt. eigenvalues --   -0.18014  -0.17053  -0.05215  -0.02504   0.00362
  Beta virt. eigenvalues --    0.00811   0.04143   0.04754   0.05119   0.06694
  Beta virt. eigenvalues --    0.07782   0.09027   0.09465   0.11537   0.11647

 Mulliken charges and spin densities:
               1          2
     1  S   -0.001339   0.433430
     2  C    0.042468   0.840171
     3  C   -0.202084   1.697233
     4  H    0.160954   0.029166
 Sum of Mulliken charges =  -0.00000   3.00000

 Dipole moment (field-independent basis, Debye):
    X=              1.5106    Y=              2.4493    Z=             -0.0000  Tot=              2.8777
 Quadrupole moment (field-independent basis, Debye-Ang):
   XX=            -26.3455   YY=            -26.1402   ZZ=            -25.6673
   XY=              0.4306   XZ=             -0.0000   YZ=              0.0000

  Exact polarizability:  56.108  16.911  78.819  -0.000  -0.000  34.166
 Approx polarizability:  89.993  31.422 141.288  -0.000  -0.000  50.422

                      1                      2                      3
                     A'                     A"                     A'
 Frequencies --    312.7081               376.6413               681.7948
 Red. masses --      9.1857                 1.2496                11.3963
 Frc consts  --      0.5292                 0.1044                 3.1212
 IR Inten    --     15.1617                27.2481                78.6708

                      4                      5                      6
                     A'                     A'                     A'
 Frequencies --    882.0952              1159.5303              2626.8289
 Red. masses --      1.1917                 7.4980                 1.0379
 Frc consts  --      0.5463                 5.9396                 4.2197
 IR Inten    --     63.6684                37.2297                 7.4590

 - Thermochemistry -
 -------------------
 Temperature   298.150 Kelvin.  Pressure   1.00000 Atm.
 Atom     1 has atomic number 16 and mass  31.97207

 Molecular mass:    56.97990 amu.
 Principal axes and moments of inertia in atomic units:
                           1         2         3
     Eigenvalues --    24.64670 254.04156 278.68826
           X            0.16923   0.98558   0.00000
           Y            0.98558  -0.16923   0.00000
           Z            0.00000   0.00000   1.00000
 This molecule is an asymmetric top.
 Rotational symmetry number  1.
 Rotational temperatures (Kelvin)      3.51422     0.34094     0.31079
 Rotational constants (GHZ):          73.22446     7.10412     6.47584
 Zero-point vibrational energy      36124.8 (Joules/Mol)
                                    8.63404 (Kcal/Mol)
 Warning -- explicit consideration of   2 degrees of freedom as
           vibrations may cause significant error
 Vibrational temperatures:    449.92   541.90   980.95  1269.14  1668.30
          (Kelvin)           3779.42

 Zero-point correction=                           0.013759 (Hartree/Particle)
 Thermal correction to Energy=                    0.017527
 Thermal correction to Enthalpy=                  0.018471
 Thermal correction to Gibbs Free Energy=        -0.012796
 Sum of electronic and zero-point Energies=           -474.755967
 Sum of electronic and thermal Energies=              -474.752199
 Sum of electronic and thermal Enthalpies=            -474.751255
 Sum of electronic and thermal Free Energies=         -474.782522

                     E (Thermal)             CV                S
                      KCal/Mol        Cal/Mol-Kelvin    Cal/Mol-Kelvin
 Total                   10.998             10.754             65.807
 Electronic               0.000              0.000              2.755
 Translational            0.889              2.981             38.041
 Rotational               0.889              2.981             22.083
 Vibrational              9.221              4.793              2.928
 Vibration     1          0.701              1.649              1.348
 Vibration     2          0.747              1.520              1.053

 Optimization completed.
    -- Stationary point found.
 Normal termination of Gaussian 09 at Wed Aug  3 23:01:46 2016.
