 Gaussian 09, Revision E.01,
 Gaussian 09:  EM64L-G09RevE.01 30-Nov-2015

 ------------------------------
 #p b3lyp/6-311++G(3df,2p) freq
 ------------------------------

 ---------
 b3lyp opt
 ---------
 Symbolic Z-matrix:
 Charge =  0 Multiplicity = 2

                         Standard orientation:
 ---------------------------------------------------------------------
 Center     Atomic      Atomic             Coordinates (Angstroms)
 Number     Number       Type             X           Y           Z
 ---------------------------------------------------------------------
      1         16           0        0.058091   -0.414234    0.000000
      2          6           0        0.058091    1.227823    0.000000
      3          1           0       -1.278007   -0.739190    0.000000
 ---------------------------------------------------------------------

 SCF Done:  E(UB3LYP) =  -436.790921757     A.U. after   14 cycles

 The electronic state is 2-A'.
 Alpha  occ. eigenvalues --  -88.91152 -10.25378  -7.99780  -5.95959  -5.95589
 Alpha  occ. eigenvalues --   -5.95565  -0.83938  -0.59113  -0.44084  -0.35112
 Alpha  occ. eigenvalues --   -0.31731  -0.24260
 Alpha virt. eigenvalues --   -0.10352  -0.02562   0.00429   0.03332   0.04414
 Alpha virt. eigenvalues --    0.05003   0.08591   0.09346   0.10120   0.10692
 Alpha virt. eigenvalues --    0.11106   0.15816   0.16480   0.24343   0.26834

  Beta  occ. eigenvalues --  -88.91189 -10.24061  -7.99792  -5.96024  -5.95658
  Beta  occ. eigenvalues --   -5.95562  -0.82600  -0.56272  -0.42035  -0.34871
  Beta  occ. eigenvalues --   -0.29764
  Beta virt. eigenvalues --   -0.10348  -0.09062  -0.01881   0.00760   0.03536
  Beta virt. eigenvalues --    0.04398   0.05634   0.08614   0.09668   0.10856
  Beta virt. eigenvalues --    0.11277   0.11695   0.16141   0.16663   0.25546

 Mulliken charges and spin densities:
               1          2
     1  S    0.092183   0.004312
     2  C   -0.219112   0.866107
     3  H    0.126929   0.129581
 Sum of Mulliken charges =  -0.00000   1.00000

 Dipole moment (field-independent basis, Debye):
    X=             -0.9160    Y=             -2.4575    Z=              0.0000  Tot=              2.6226
 Quadrupole moment (field-independent basis, Debye-Ang):
   XX=            -18.4749   YY=            -23.0657   ZZ=            -19.5798
   XY=              0.6780   XZ=              0.0000   YZ=              0.0000

  Exact polarizability:  30.584   3.310  43.518   0.000   0.000  25.696
 Approx polarizability:  44.940   6.575  78.891  -0.000  -0.000  39.310

                      1                      2                      3
                     A'                     A'                     A'
 Frequencies --    790.3442               933.0767              2353.9499
 Red. masses --      1.3632                 4.2665                 1.0412
 Frc consts  --      0.5017                 2.1886                 3.3993
 IR Inten    --     13.6646                38.3384                26.5562

 - Thermochemistry -
 -------------------
 Temperature   298.150 Kelvin.  Pressure   1.00000 Atm.
 Atom     1 has atomic number 16 and mass  31.97207

 Molecular mass:    44.97990 amu.
 Principal axes and moments of inertia in atomic units:
                           1         2         3
     Eigenvalues --     6.11576  86.28138  92.39714
           X            0.04538   0.99897   0.00000
           Y            0.99897  -0.04538   0.00000
           Z            0.00000  -0.00000   1.00000
 This molecule is an asymmetric top.
 Rotational symmetry number  1.
 Rotational temperatures (Kelvin)     14.16239     1.00385     0.93741
 Rotational constants (GHZ):         295.09659    20.91693    19.53244
 Zero-point vibrational energy      24388.1 (Joules/Mol)
                                    5.82889 (Kcal/Mol)
 Vibrational temperatures:   1137.13  1342.49  3386.80
          (Kelvin)

 Zero-point correction=                           0.009289 (Hartree/Particle)
 Thermal correction to Energy=                    0.012250
 Thermal correction to Enthalpy=                  0.013195
 Thermal correction to Gibbs Free Energy=        -0.014164
 Sum of electronic and zero-point Energies=           -436.781633
 Sum of electronic and thermal Energies=              -436.778671
 Sum of electronic and thermal Enthalpies=            -436.777727
 Sum of electronic and thermal Free Energies=         -436.805085

                     E (Thermal)             CV                S
                      KCal/Mol        Cal/Mol-Kelvin    Cal/Mol-Kelvin
 Total                    7.687              7.088             57.580
 Electronic               0.000              0.000              1.377
 Translational            0.889              2.981             37.337
 Rotational               0.889              2.981             18.528
 Vibrational              5.910              1.126              0.338

 Optimization completed.
    -- Stationary point found.
 Normal termination of Gaussian 09 at Wed Aug  3 20:27:47 2016.
