 Gaussian 09, Revision E.01,
 Gaussian 09:  EM64L-G09RevE.01 30-Nov-2015

 ------------------------------
 #p b3lyp/6-311++G(3df,2p) freq
 ------------------------------

 ---------
 b3lyp opt
 ---------
 Symbolic Z-matrix:
 Charge =  1 Multiplicity = 1

                         Standard orientation:
 ---------------------------------------------------------------------
 Center     Atomic      Atomic             Coordinates (Angstroms)
 Number     Number       Type             X           Y           Z
 ---------------------------------------------------------------------
      1         16           0        0.059086   -0.434638    0.000000
      2          6           0        0.059086    1.177398    0.000000
      3          1           0       -1.299881   -0.110179    0.000000
 ---------------------------------------------------------------------

 SCF Done:  E(RB3LYP) =  -436.449913027     A.U. after   11 cycles

 The electronic state is 1-A'.
 Alpha  occ. eigenvalues --  -89.23046 -10.62182  -8.31588  -6.27751  -6.27421
 Alpha  occ. eigenvalues --   -6.27391  -1.16682  -0.85149  -0.76056  -0.65113
 Alpha  occ. eigenvalues --   -0.61343
 Alpha virt. eigenvalues --   -0.42266  -0.39378  -0.31573  -0.19690  -0.15973
 Alpha virt. eigenvalues --   -0.12950  -0.11739  -0.10002  -0.08999  -0.06933
 Alpha virt. eigenvalues --   -0.05839  -0.05068  -0.04490  -0.00391   0.00379

 Mulliken charges:
               1
     1  S    0.450761
     2  C    0.293504
     3  H    0.255735
 Sum of Mulliken charges =   1.00000

 Dipole moment (field-independent basis, Debye):
    X=             -0.9589    Y=             -0.8410    Z=              0.0000  Tot=              1.2754
 Quadrupole moment (field-independent basis, Debye-Ang):
   XX=            -12.4655   YY=            -15.0625   ZZ=            -16.5698
   XY=              0.3817   XZ=              0.0000   YZ=              0.0000

  Exact polarizability:  21.639   0.834  30.321   0.000  -0.000  18.390
 Approx polarizability:  37.765   2.307  67.482  -0.000  -0.000  28.300

                      1                      2                      3
                     A'                     A'                     A'
 Frequencies --    466.8421              1093.7645              2344.5166
 Red. masses --      1.1248                11.0638                 1.0372
 Frc consts  --      0.1444                 7.7983                 3.3589
 IR Inten    --     17.2412               144.8553               185.7196

 - Thermochemistry -
 -------------------
 Temperature   298.150 Kelvin.  Pressure   1.00000 Atm.
 Atom     1 has atomic number 16 and mass  31.97207

 Molecular mass:    44.97990 amu.
 Principal axes and moments of inertia in atomic units:
                           1         2         3
     Eigenvalues --     6.49360  81.02062  87.51422
           X            0.00741   0.99997   0.00000
           Y            0.99997  -0.00741   0.00000
           Z            0.00000  -0.00000   1.00000
 This molecule is an asymmetric top.
 Rotational symmetry number  1.
 Rotational temperatures (Kelvin)     13.33834     1.06903     0.98971
 Rotational constants (GHZ):         277.92619    22.27508    20.62226
 Zero-point vibrational energy      23357.8 (Joules/Mol)
                                    5.58265 (Kcal/Mol)
 Warning -- explicit consideration of   1 degrees of freedom as
           vibrations may cause significant error
 Vibrational temperatures:    671.68  1573.68  3373.23
          (Kelvin)

 Zero-point correction=                           0.008897 (Hartree/Particle)
 Thermal correction to Energy=                    0.012005
 Thermal correction to Enthalpy=                  0.012949
 Thermal correction to Gibbs Free Energy=        -0.013953
 Sum of electronic and zero-point Energies=           -436.441017
 Sum of electronic and thermal Energies=              -436.437908
 Sum of electronic and thermal Enthalpies=            -436.436964
 Sum of electronic and thermal Free Energies=         -436.463866

                     E (Thermal)             CV                S
                      KCal/Mol        Cal/Mol-Kelvin    Cal/Mol-Kelvin
 Total                    7.533              7.574             56.619
 Electronic               0.000              0.000              0.000
 Translational            0.889              2.981             37.337
 Rotational               0.889              2.981             18.472
 Vibrational              5.756              1.612              0.811
 Vibration     1          0.824              1.324              0.746

 Optimization completed.
    -- Stationary point found.
 Normal termination of Gaussian 09 at Wed Aug  3 20:29:36 2016.
