 Gaussian 09, Revision E.01,
 Gaussian 09:  EM64L-G09RevE.01 30-Nov-2015

 ------------------------------
 #p b3lyp/6-311++G(3df,2p) freq
 ------------------------------

 ---------
 b3lyp opt
 ---------
 Symbolic Z-matrix:
 Charge =  0 Multiplicity = 4

                         Standard orientation:
 ---------------------------------------------------------------------
 Center     Atomic      Atomic             Coordinates (Angstroms)
 Number     Number       Type             X           Y           Z
 ---------------------------------------------------------------------
      1         16           0        0.036905   -0.565563    0.000000
      2          6           0        0.036905    1.196114    0.000000
      3          1           0       -0.811916    1.872321    0.000000
 ---------------------------------------------------------------------

 SCF Done:  E(UB3LYP) =  -436.742125338     A.U. after   13 cycles

 The electronic state is 4-A'.
 Alpha  occ. eigenvalues --  -88.91020 -10.23722  -7.99196  -5.96188  -5.95202
 Alpha  occ. eigenvalues --   -5.94652  -0.80499  -0.61888  -0.43481  -0.37871
 Alpha  occ. eigenvalues --   -0.34587  -0.24307  -0.22506
 Alpha virt. eigenvalues --   -0.00729   0.00827   0.04373   0.04781   0.05817
 Alpha virt. eigenvalues --    0.08072   0.09110   0.09275   0.12323   0.14769
 Alpha virt. eigenvalues --    0.15929   0.18192   0.20060   0.24231   0.27802

  Beta  occ. eigenvalues --  -88.90250 -10.21037  -7.98484  -5.94696  -5.94138
  Beta  occ. eigenvalues --   -5.93917  -0.74637  -0.55617  -0.40133  -0.29466
  Beta virt. eigenvalues --   -0.21813  -0.10088  -0.05045   0.00226   0.01785
  Beta virt. eigenvalues --    0.04808   0.05502   0.06357   0.09063   0.10629
  Beta virt. eigenvalues --    0.11045   0.12857   0.15515   0.17606   0.21407

 Mulliken charges and spin densities:
               1          2
     1  S    0.031472   1.260827
     2  C   -0.204092   1.711397
     3  H    0.172620   0.027776
 Sum of Mulliken charges =  -0.00000   3.00000

 Dipole moment (field-independent basis, Debye):
    X=             -0.7660    Y=             -0.0417    Z=              0.0000  Tot=              0.7671
 Quadrupole moment (field-independent basis, Debye-Ang):
   XX=            -20.4732   YY=            -19.1042   ZZ=            -18.9653
   XY=             -1.5928   XZ=              0.0000   YZ=              0.0000

  Exact polarizability:  28.077   0.337  46.405  -0.000  -0.000  16.077
 Approx polarizability:  38.155   1.603  68.408  -0.000  -0.000  34.959

                      1                      2                      3
                     A'                     A'                     A'
 Frequencies --    795.8958               867.3067              3145.5692
 Red. masses --      9.7230                 1.1574                 1.0888
 Frc consts  --      3.6288                 0.5130                 6.3474
 IR Inten    --      2.7028                24.6372                 4.2596

 - Thermochemistry -
 -------------------
 Temperature   298.150 Kelvin.  Pressure   1.00000 Atm.
 Atom     1 has atomic number 16 and mass  31.97207

 Molecular mass:    44.97990 amu.
 Principal axes and moments of inertia in atomic units:
                           1         2         3
     Eigenvalues --     2.21853 110.49274 112.71127
           X           -0.05406   0.99854   0.00000
           Y            0.99854   0.05406   0.00000
           Z           -0.00000   0.00000   1.00000
 This molecule is an asymmetric top.
 Rotational symmetry number  1.
 Rotational temperatures (Kelvin)     39.04108     0.78389     0.76846
 Rotational constants (GHZ):         813.48508    16.33357    16.01207
 Zero-point vibrational energy      28762.8 (Joules/Mol)
                                    6.87448 (Kcal/Mol)
 Vibrational temperatures:   1145.12  1247.86  4525.77
          (Kelvin)

 Zero-point correction=                           0.010955 (Hartree/Particle)
 Thermal correction to Energy=                    0.013928
 Thermal correction to Enthalpy=                  0.014873
 Thermal correction to Gibbs Free Energy=        -0.012887
 Sum of electronic and zero-point Energies=           -436.731170
 Sum of electronic and thermal Energies=              -436.728197
 Sum of electronic and thermal Enthalpies=            -436.727253
 Sum of electronic and thermal Free Energies=         -436.755012

                     E (Thermal)             CV                S
                      KCal/Mol        Cal/Mol-Kelvin    Cal/Mol-Kelvin
 Total                    8.740              7.165             58.425
 Electronic               0.000              0.000              2.755
 Translational            0.889              2.981             37.337
 Rotational               0.889              2.981             17.964
 Vibrational              6.963              1.204              0.370

 Optimization completed.
    -- Stationary point found.
 Normal termination of Gaussian 09 at Wed Aug  3 20:29:41 2016.
