 Gaussian 09, Revision E.01,
 Gaussian 09:  EM64L-G09RevE.01 30-Nov-2015

 ------------------------------
 #p b3lyp/6-311++G(3df,2p) freq
 ------------------------------

 ---------
 b3lyp opt
 ---------
 Symbolic Z-matrix:
 Charge =  1 Multiplicity = 3

                         Standard orientation:
 ---------------------------------------------------------------------
 Center     Atomic      Atomic             Coordinates (Angstroms)
 Number     Number       Type             X           Y           Z
 ---------------------------------------------------------------------
      1         16           0        0.058825   -0.488671    0.000000
      2          6           0        0.058825    1.419136    0.000000
      3          1           0       -1.294161   -0.696085    0.000000
 ---------------------------------------------------------------------

 SCF Done:  E(UB3LYP) =  -436.351818225     A.U. after   15 cycles

 The electronic state is 3-A".
 Alpha  occ. eigenvalues --  -89.25051 -10.59261  -8.33040  -6.30046  -6.28856
 Alpha  occ. eigenvalues --   -6.28539  -1.11266  -0.87768  -0.72906  -0.66047
 Alpha  occ. eigenvalues --   -0.60932  -0.53204
 Alpha virt. eigenvalues --   -0.41116  -0.29347  -0.25891  -0.16544  -0.12033
 Alpha virt. eigenvalues --   -0.11828  -0.10152  -0.10101  -0.07904  -0.07332
 Alpha virt. eigenvalues --   -0.06048  -0.04777  -0.01989  -0.01651  -0.00195

  Beta  occ. eigenvalues --  -89.24456 -10.57678  -8.32481  -6.28521  -6.28194
  Beta  occ. eigenvalues --   -6.28179  -1.06791  -0.83169  -0.70351  -0.58604
  Beta virt. eigenvalues --   -0.52045  -0.37187  -0.36112  -0.27614  -0.23567
  Beta virt. eigenvalues --   -0.15147  -0.11648  -0.10941  -0.09759  -0.07507
  Beta virt. eigenvalues --   -0.07374  -0.05540  -0.05325  -0.04482  -0.01134

 Mulliken charges and spin densities:
               1          2
     1  S    0.467440   0.968134
     2  C    0.295467   1.002097
     3  H    0.237094   0.029769
 Sum of Mulliken charges =   1.00000   2.00000

 Dipole moment (field-independent basis, Debye):
    X=             -1.0759    Y=             -0.9064    Z=              0.0000  Tot=              1.4068
 Quadrupole moment (field-independent basis, Debye-Ang):
   XX=            -14.8318   YY=            -14.3226   ZZ=            -14.8072
   XY=              1.2595   XZ=              0.0000   YZ=              0.0000

  Exact polarizability:  23.219   2.130  37.399   0.000   0.000  15.623
 Approx polarizability:  33.592   3.626  66.220  -0.000  -0.000  30.872

                      1                      2                      3
                     A'                     A'                     A'
 Frequencies --    502.2396               730.4911              2508.6764
 Red. masses --     11.3976                 1.1126                 1.0392
 Frc consts  --      1.6939                 0.3498                 3.8533
 IR Inten    --     96.8653                 4.9237                58.7435

 - Thermochemistry -
 -------------------
 Temperature   298.150 Kelvin.  Pressure   1.00000 Atm.
 Atom     1 has atomic number 16 and mass  31.97207

 Molecular mass:    44.97990 amu.
 Principal axes and moments of inertia in atomic units:
                           1         2         3
     Eigenvalues --     6.33037 115.38266 121.71303
           X            0.03180   0.99949   0.00000
           Y            0.99949  -0.03180   0.00000
           Z            0.00000  -0.00000   1.00000
 This molecule is an asymmetric top.
 Rotational symmetry number  1.
 Rotational temperatures (Kelvin)     13.68227     0.75067     0.71162
 Rotational constants (GHZ):         285.09254    15.64136    14.82784
 Zero-point vibrational energy      22378.6 (Joules/Mol)
                                    5.34861 (Kcal/Mol)
 Warning -- explicit consideration of   1 degrees of freedom as
           vibrations may cause significant error
 Vibrational temperatures:    722.61  1051.01  3609.42
          (Kelvin)

 Zero-point correction=                           0.008524 (Hartree/Particle)
 Thermal correction to Energy=                    0.011680
 Thermal correction to Enthalpy=                  0.012624
 Thermal correction to Gibbs Free Energy=        -0.015680
 Sum of electronic and zero-point Energies=           -436.343295
 Sum of electronic and thermal Energies=              -436.340139
 Sum of electronic and thermal Enthalpies=            -436.339194
 Sum of electronic and thermal Free Energies=         -436.367498

                     E (Thermal)             CV                S
                      KCal/Mol        Cal/Mol-Kelvin    Cal/Mol-Kelvin
 Total                    7.329              7.980             59.570
 Electronic               0.000              0.000              2.183
 Translational            0.889              2.981             37.337
 Rotational               0.889              2.981             19.125
 Vibrational              5.552              2.019              0.925
 Vibration     1          0.858              1.245              0.653

 Optimization completed.
    -- Stationary point found.
 Normal termination of Gaussian 09 at Wed Aug  3 20:29:42 2016.
