 Gaussian 09, Revision E.01,
 Gaussian 09:  EM64L-G09RevE.01 30-Nov-2015

 ------------------------------
 #p b3lyp/6-311++G(3df,2p) freq
 ------------------------------

 ---------
 b3lyp opt
 ---------
 Symbolic Z-matrix:
 Charge =  0 Multiplicity = 2

                         Standard orientation:
 ---------------------------------------------------------------------
 Center     Atomic      Atomic             Coordinates (Angstroms)
 Number     Number       Type             X           Y           Z
 ---------------------------------------------------------------------
      1         16           0        0.034840   -0.505858    0.000000
      2          6           0        0.034840    1.051169    0.000000
      3          1           0       -0.766488    1.786718    0.000000
 ---------------------------------------------------------------------

 SCF Done:  E(UB3LYP) =  -436.854815026     A.U. after   14 cycles

 The electronic state is 2-A'.
 Alpha  occ. eigenvalues --  -88.88028 -10.24875  -7.96638  -5.92761  -5.92695
 Alpha  occ. eigenvalues --   -5.92437  -0.82371  -0.59652  -0.44314  -0.35786
 Alpha  occ. eigenvalues --   -0.34545  -0.21190
 Alpha virt. eigenvalues --   -0.10269  -0.00137   0.02334   0.04332   0.04858
 Alpha virt. eigenvalues --    0.06009   0.08951   0.10172   0.11556   0.13053
 Alpha virt. eigenvalues --    0.15186   0.16435   0.19710   0.21511   0.27602

  Beta  occ. eigenvalues --  -88.87814 -10.23812  -7.96442  -5.92633  -5.92487
  Beta  occ. eigenvalues --   -5.91865  -0.81056  -0.57344  -0.42679  -0.33975
  Beta  occ. eigenvalues --   -0.31287
  Beta virt. eigenvalues --   -0.09678  -0.09019   0.00034   0.02540   0.04564
  Beta virt. eigenvalues --    0.04838   0.06105   0.09660   0.10313   0.11945
  Beta virt. eigenvalues --    0.13448   0.15608   0.17093   0.20480   0.22454

 Mulliken charges and spin densities:
               1          2
     1  S    0.007205   0.354146
     2  C   -0.191699   0.595326
     3  H    0.184494   0.050527
 Sum of Mulliken charges =  -0.00000   1.00000

 Dipole moment (field-independent basis, Debye):
    X=             -0.9208    Y=              0.3527    Z=              0.0000  Tot=              0.9860
 Quadrupole moment (field-independent basis, Debye-Ang):
   XX=            -20.1630   YY=            -17.5105   ZZ=            -19.0533
   XY=             -1.8793   XZ=              0.0000   YZ=              0.0000

  Exact polarizability:  27.328   0.123  45.221   0.000   0.000  24.180
 Approx polarizability:  37.505   1.051  87.963  -0.000  -0.000  36.570

                      1                      2                      3
                     A'                     A'                     A'
 Frequencies --    820.1778              1209.0624              3109.1587
 Red. masses --      1.1798                 9.3028                 1.0954
 Frc consts  --      0.4676                 8.0124                 6.2389
 IR Inten    --     74.3875                11.7059                 7.0402

 - Thermochemistry -
 -------------------
 Temperature   298.150 Kelvin.  Pressure   1.00000 Atm.
 Atom     1 has atomic number 16 and mass  31.97207

 Molecular mass:    44.97990 amu.
 Principal axes and moments of inertia in atomic units:
                           1         2         3
     Eigenvalues --     1.93636  88.13343  90.06979
           X           -0.06120   0.99813   0.00000
           Y            0.99813   0.06120   0.00000
           Z           -0.00000   0.00000   1.00000
 This molecule is an asymmetric top.
 Rotational symmetry number  1.
 Rotational temperatures (Kelvin)     44.73011     0.98276     0.96163
 Rotational constants (GHZ):         932.02547    20.47737    20.03714
 Zero-point vibrational energy      30734.5 (Joules/Mol)
                                    7.34571 (Kcal/Mol)
 Vibrational temperatures:   1180.05  1739.57  4473.38
          (Kelvin)

 Zero-point correction=                           0.011706 (Hartree/Particle)
 Thermal correction to Energy=                    0.014628
 Thermal correction to Enthalpy=                  0.015572
 Thermal correction to Gibbs Free Energy=        -0.011191
 Sum of electronic and zero-point Energies=           -436.843109
 Sum of electronic and thermal Energies=              -436.840187
 Sum of electronic and thermal Enthalpies=            -436.839243
 Sum of electronic and thermal Free Energies=         -436.866006

                     E (Thermal)             CV                S
                      KCal/Mol        Cal/Mol-Kelvin    Cal/Mol-Kelvin
 Total                    9.179              6.779             56.327
 Electronic               0.000              0.000              1.377
 Translational            0.889              2.981             37.337
 Rotational               0.889              2.981             17.381
 Vibrational              7.402              0.817              0.231

 Optimization completed.
    -- Stationary point found.
 Normal termination of Gaussian 09 at Wed Aug  3 20:27:47 2016.
