 Gaussian 09, Revision E.01,
 Gaussian 09:  EM64L-G09RevE.01 30-Nov-2015

 ------------------------------
 #p b3lyp/6-311++G(3df,2p) freq
 ------------------------------

 ---------
 b3lyp opt
 ---------
 Symbolic Z-matrix:
 Charge =  0 Multiplicity = 4

                         Standard orientation:
 ---------------------------------------------------------------------
 Center     Atomic      Atomic             Coordinates (Angstroms)
 Number     Number       Type             X           Y           Z
 ---------------------------------------------------------------------
      1         16           0        0.058122   -0.433284    0.000000
      2          6           0        0.058122    1.264323    0.000000
      3          1           0       -1.278690   -0.653389    0.000000
 ---------------------------------------------------------------------

 SCF Done:  E(UB3LYP) =  -436.700718756     A.U. after   13 cycles

 The electronic state is 4-A".
 Alpha  occ. eigenvalues --  -88.90516 -10.25940  -7.98814  -5.95305  -5.94832
 Alpha  occ. eigenvalues --   -5.94377  -0.82555  -0.60071  -0.44440  -0.37470
 Alpha  occ. eigenvalues --   -0.35384  -0.25669  -0.20286
 Alpha virt. eigenvalues --   -0.02018   0.00417   0.03742   0.04960   0.05059
 Alpha virt. eigenvalues --    0.08454   0.09344   0.09719   0.09778   0.10532
 Alpha virt. eigenvalues --    0.15400   0.17791   0.23817   0.26248   0.28114

  Beta  occ. eigenvalues --  -88.90259 -10.21803  -7.98564  -5.94895  -5.94552
  Beta  occ. eigenvalues --   -5.93940  -0.78950  -0.52197  -0.40202  -0.30900
  Beta virt. eigenvalues --   -0.19068  -0.08245  -0.04628  -0.01099   0.01657
  Beta virt. eigenvalues --    0.04177   0.05105   0.06116   0.08937   0.10240
  Beta virt. eigenvalues --    0.11435   0.11452   0.13282   0.16394   0.18561

 Mulliken charges and spin densities:
               1          2
     1  S   -0.063708   0.407786
     2  C   -0.071057   2.512198
     3  H    0.134765   0.080016
 Sum of Mulliken charges =   0.00000   3.00000

 Dipole moment (field-independent basis, Debye):
    X=             -0.7677    Y=             -0.7518    Z=              0.0000  Tot=              1.0745
 Quadrupole moment (field-independent basis, Debye-Ang):
   XX=            -17.9885   YY=            -19.1367   ZZ=            -21.4632
   XY=              0.9518   XZ=              0.0000   YZ=              0.0000

  Exact polarizability:  28.230   1.403  42.726  -0.000  -0.000  29.335
 Approx polarizability:  42.509   2.356  68.026  -0.000  -0.000  38.138

                      1                      2                      3
                     A'                     A'                     A'
 Frequencies --    794.9640               924.6480              2552.4814
 Red. masses --      8.1546                 1.1735                 1.0392
 Frc consts  --      3.0363                 0.5911                 3.9890
 IR Inten    --      4.4686                 2.0128                 2.1665

 - Thermochemistry -
 -------------------
 Temperature   298.150 Kelvin.  Pressure   1.00000 Atm.
 Atom     1 has atomic number 16 and mass  31.97207

 Molecular mass:    44.97990 amu.
 Principal axes and moments of inertia in atomic units:
                           1         2         3
     Eigenvalues --     6.16640  91.55823  97.72463
           X            0.03767   0.99929   0.00000
           Y            0.99929  -0.03767   0.00000
           Z            0.00000  -0.00000   1.00000
 This molecule is an asymmetric top.
 Rotational symmetry number  1.
 Rotational temperatures (Kelvin)     14.04609     0.94600     0.88630
 Rotational constants (GHZ):         292.67335    19.71140    18.46762
 Zero-point vibrational energy      25552.8 (Joules/Mol)
                                    6.10726 (Kcal/Mol)
 Vibrational temperatures:   1143.77  1330.36  3672.45
          (Kelvin)

 Zero-point correction=                           0.009733 (Hartree/Particle)
 Thermal correction to Energy=                    0.012694
 Thermal correction to Enthalpy=                  0.013638
 Thermal correction to Gibbs Free Energy=        -0.014433
 Sum of electronic and zero-point Energies=           -436.690986
 Sum of electronic and thermal Energies=              -436.688025
 Sum of electronic and thermal Enthalpies=            -436.687080
 Sum of electronic and thermal Free Energies=         -436.715152

                     E (Thermal)             CV                S
                      KCal/Mol        Cal/Mol-Kelvin    Cal/Mol-Kelvin
 Total                    7.966              7.089             59.081
 Electronic               0.000              0.000              2.755
 Translational            0.889              2.981             37.337
 Rotational               0.889              2.981             18.651
 Vibrational              6.188              1.128              0.338

 Optimization completed.
    -- Stationary point found.
 Normal termination of Gaussian 09 at Wed Aug  3 20:29:42 2016.
