 Gaussian 09, Revision E.01,
 Gaussian 09:  EM64L-G09RevE.01 30-Nov-2015

 ------------------------------
 #p b3lyp/6-311++G(3df,2p) freq
 ------------------------------

 ---------
 b3lyp opt
 ---------
 Symbolic Z-matrix:
 Charge =  0 Multiplicity = 4

                         Standard orientation:
 ---------------------------------------------------------------------
 Center     Atomic      Atomic             Coordinates (Angstroms)
 Number     Number       Type             X           Y           Z
 ---------------------------------------------------------------------
      1         16           0        0.057427   -0.520578    0.000000
      2          6           0        0.057427    1.527733    0.000000
      3          1           0       -1.263398   -0.837147    0.000000
 ---------------------------------------------------------------------

 SCF Done:  E(UB3LYP) =  -436.659391225     A.U. after   15 cycles

 The electronic state is 4-A'.
 Alpha  occ. eigenvalues --  -88.95712 -10.21504  -8.03865  -6.00870  -5.99781
 Alpha  occ. eigenvalues --   -5.99284  -0.81613  -0.57188  -0.45894  -0.38895
 Alpha  occ. eigenvalues --   -0.32314  -0.21324  -0.20439
 Alpha virt. eigenvalues --   -0.04028  -0.03454   0.02378   0.04070   0.04218
 Alpha virt. eigenvalues --    0.05853   0.08904   0.09545   0.09899   0.10066
 Alpha virt. eigenvalues --    0.14053   0.15356   0.20020   0.20892   0.25695

  Beta  occ. eigenvalues --  -88.95088 -10.18930  -8.03278  -5.99439  -5.98932
  Beta  occ. eigenvalues --   -5.98882  -0.77015  -0.50695  -0.42558  -0.28591
  Beta virt. eigenvalues --   -0.23721  -0.06242  -0.03556  -0.02655  -0.01441
  Beta virt. eigenvalues --    0.03387   0.04878   0.05154   0.06666   0.09579
  Beta virt. eigenvalues --    0.09875   0.11859   0.12067   0.16017   0.17046

 Mulliken charges and spin densities:
               1          2
     1  S    0.198291   1.078155
     2  C   -0.347417   1.897060
     3  H    0.149126   0.024785
 Sum of Mulliken charges =  -0.00000   3.00000

 Dipole moment (field-independent basis, Debye):
    X=             -0.9666    Y=             -3.5476    Z=              0.0000  Tot=              3.6769
 Quadrupole moment (field-independent basis, Debye-Ang):
   XX=            -18.8572   YY=            -25.2626   ZZ=            -19.6777
   XY=              0.9547   XZ=              0.0000   YZ=              0.0000

  Exact polarizability:  32.368   2.559  53.788  -0.000  -0.000  25.963
 Approx polarizability:  46.163   4.874  84.023  -0.000  -0.000  38.269

                      1                      2                      3
                     A'                     A'                     A'
 Frequencies --    303.2559               524.3983              2540.5404
 Red. masses --     10.5055                 1.1164                 1.0393
 Frc consts  --      0.5692                 0.1809                 3.9521
 IR Inten    --     12.4920                 2.6356                 7.7533

 - Thermochemistry -
 -------------------
 Temperature   298.150 Kelvin.  Pressure   1.00000 Atm.
 Atom     1 has atomic number 16 and mass  31.97207

 Molecular mass:    44.97990 amu.
 Principal axes and moments of inertia in atomic units:
                           1         2         3
     Eigenvalues --     6.00814 133.55391 139.56205
           X            0.03192   0.99949   0.00000
           Y            0.99949  -0.03192   0.00000
           Z            0.00000  -0.00000   1.00000
 This molecule is an asymmetric top.
 Rotational symmetry number  1.
 Rotational temperatures (Kelvin)     14.41607     0.64853     0.62061
 Rotational constants (GHZ):         300.38256    13.51320    12.93146
 Zero-point vibrational energy      20146.3 (Joules/Mol)
                                    4.81508 (Kcal/Mol)
 Warning -- explicit consideration of   2 degrees of freedom as
           vibrations may cause significant error
 Vibrational temperatures:    436.32   754.49  3655.27
          (Kelvin)

 Zero-point correction=                           0.007673 (Hartree/Particle)
 Thermal correction to Energy=                    0.011129
 Thermal correction to Enthalpy=                  0.012073
 Thermal correction to Gibbs Free Energy=        -0.017122
 Sum of electronic and zero-point Energies=           -436.651718
 Sum of electronic and thermal Energies=              -436.648263
 Sum of electronic and thermal Enthalpies=            -436.647318
 Sum of electronic and thermal Free Energies=         -436.676513

                     E (Thermal)             CV                S
                      KCal/Mol        Cal/Mol-Kelvin    Cal/Mol-Kelvin
 Total                    6.983              8.827             61.445
 Electronic               0.000              0.000              2.755
 Translational            0.889              2.981             37.337
 Rotational               0.889              2.981             19.355
 Vibrational              5.206              2.865              1.999
 Vibration     1          0.695              1.668              1.399
 Vibration     2          0.879              1.196              0.600

 Optimization completed.
    -- Stationary point found.
 Normal termination of Gaussian 09 at Wed Aug  3 20:27:46 2016.
