 Gaussian 09, Revision E.01,
 Gaussian 09:  EM64L-G09RevE.01 30-Nov-2015

 ------------------------------
 #p b3lyp/6-311++G(3df,2p) freq
 ------------------------------

 ---------
 b3lyp opt
 ---------
 Symbolic Z-matrix:
 Charge =  2 Multiplicity = 4

                         Standard orientation:
 ---------------------------------------------------------------------
 Center     Atomic      Atomic             Coordinates (Angstroms)
 Number     Number       Type             X           Y           Z
 ---------------------------------------------------------------------
      1         16           0        0.036968   -0.600400    0.000000
      2          6           0        0.036968    1.267200    0.000000
      3          1           0       -0.813303    2.003206    0.000000
 ---------------------------------------------------------------------

 SCF Done:  E(UB3LYP) =  -435.719061161     A.U. after   13 cycles

 The electronic state is 4-A".
 Alpha  occ. eigenvalues --  -89.61223 -10.95469  -8.68186  -6.64876  -6.64767
 Alpha  occ. eigenvalues --   -6.63961  -1.42939  -1.22693  -1.03778  -0.97313
 Alpha  occ. eigenvalues --   -0.96014  -0.87593
 Alpha virt. eigenvalues --   -0.74255  -0.60831  -0.38709  -0.38061  -0.35061
 Alpha virt. eigenvalues --   -0.34888  -0.31048  -0.31028  -0.28445  -0.28403
 Alpha virt. eigenvalues --   -0.27096  -0.24507  -0.21936  -0.17041  -0.16586

  Beta  occ. eigenvalues --  -89.59878 -10.93477  -8.66960  -6.63115  -6.62625
  Beta  occ. eigenvalues --   -6.62144  -1.34704  -1.16674  -1.00252
  Beta virt. eigenvalues --   -0.80961  -0.79163  -0.67935  -0.67795  -0.56019
  Beta virt. eigenvalues --   -0.37157  -0.36030  -0.29314  -0.29202  -0.28359
  Beta virt. eigenvalues --   -0.28229  -0.27008  -0.26544  -0.26085  -0.22610

 Mulliken charges and spin densities:
               1          2
     1  S    1.091767   1.936779
     2  C    0.569535   1.033497
     3  H    0.338699   0.029724
 Sum of Mulliken charges =   2.00000   3.00000

 Dipole moment (field-independent basis, Debye):
    X=             -0.7850    Y=              2.7795    Z=              0.0000  Tot=              2.8882
 Quadrupole moment (field-independent basis, Debye-Ang):
   XX=            -12.4480   YY=              0.2759   ZZ=            -12.4180
   XY=             -2.7675   XZ=              0.0000   YZ=              0.0000

  Exact polarizability:  14.694  -1.528  30.206   0.000   0.000  14.547
 Approx polarizability:  20.239  -1.729  51.352  -0.000  -0.000  21.639

                      1                      2                      3
                     A'                     A'                     A'
 Frequencies --    604.8713               808.8893              2830.8595
 Red. masses --      5.6470                 1.2629                 1.0911
 Frc consts  --      1.2173                 0.4869                 5.1515
 IR Inten    --     58.0272                 8.5106               306.4688

 - Thermochemistry -
 -------------------
 Temperature   298.150 Kelvin.  Pressure   1.00000 Atm.
 Atom     1 has atomic number 16 and mass  31.97207

 Molecular mass:    44.97990 amu.
 Principal axes and moments of inertia in atomic units:
                           1         2         3
     Eigenvalues --     2.22170 124.42625 126.64795
           X           -0.05133   0.99868   0.00000
           Y            0.99868   0.05133   0.00000
           Z           -0.00000   0.00000   1.00000
 This molecule is an asymmetric top.
 Rotational symmetry number  1.
 Rotational temperatures (Kelvin)     38.98543     0.69611     0.68389
 Rotational constants (GHZ):         812.32558    14.50451    14.25006
 Zero-point vibrational energy      25388.5 (Joules/Mol)
                                    6.06799 (Kcal/Mol)
 Warning -- explicit consideration of   1 degrees of freedom as
           vibrations may cause significant error
 Vibrational temperatures:    870.27  1163.81  4072.97
          (Kelvin)

 Zero-point correction=                           0.009670 (Hartree/Particle)
 Thermal correction to Energy=                    0.012736
 Thermal correction to Enthalpy=                  0.013680
 Thermal correction to Gibbs Free Energy=        -0.014321
 Sum of electronic and zero-point Energies=           -435.709391
 Sum of electronic and thermal Energies=              -435.706325
 Sum of electronic and thermal Enthalpies=            -435.705381
 Sum of electronic and thermal Free Energies=         -435.733382

                     E (Thermal)             CV                S
                      KCal/Mol        Cal/Mol-Kelvin    Cal/Mol-Kelvin
 Total                    7.992              7.620             58.932
 Electronic               0.000              0.000              2.755
 Translational            0.889              2.981             37.337
 Rotational               0.889              2.981             18.199
 Vibrational              6.214              1.658              0.642
 Vibration     1          0.963              1.021              0.441

 Optimization completed.
    -- Stationary point found.
 Normal termination of Gaussian 09 at Wed Aug  3 20:30:05 2016.
