 Gaussian 09, Revision E.01,
 Gaussian 09:  EM64L-G09RevE.01 30-Nov-2015

 ------------------------------
 #p b3lyp/6-311++G(3df,2p) freq
 ------------------------------

 ---------
 b3lyp opt
 ---------
 Symbolic Z-matrix:
 Charge =  1 Multiplicity = 3

                         Standard orientation:
 ---------------------------------------------------------------------
 Center     Atomic      Atomic             Coordinates (Angstroms)
 Number     Number       Type             X           Y           Z
 ---------------------------------------------------------------------
      1         16           0        0.059218   -0.404088    0.000000
      2          6           0        0.059218    1.182048    0.000000
      3          1           0       -1.302789   -0.626883    0.000000
 ---------------------------------------------------------------------

 SCF Done:  E(UB3LYP) =  -436.397315627     A.U. after   14 cycles

 The electronic state is 3-A'.
 Alpha  occ. eigenvalues --  -89.23167 -10.61601  -8.31316  -6.27690  -6.27135
 Alpha  occ. eigenvalues --   -6.27029  -1.15771  -0.89209  -0.74090  -0.68353
 Alpha  occ. eigenvalues --   -0.64865  -0.55649
 Alpha virt. eigenvalues --   -0.40639  -0.26032  -0.20307  -0.15418  -0.11871
 Alpha virt. eigenvalues --   -0.11424  -0.09633  -0.08118  -0.07091  -0.06361
 Alpha virt. eigenvalues --   -0.05285  -0.04877  -0.00441   0.00648   0.02849

  Beta  occ. eigenvalues --  -89.23139 -10.58088  -8.31272  -6.27397  -6.27293
  Beta  occ. eigenvalues --   -6.26999  -1.12866  -0.83646  -0.69868  -0.63876
  Beta virt. eigenvalues --   -0.48523  -0.37908  -0.36436  -0.24455  -0.18546
  Beta virt. eigenvalues --   -0.14884  -0.11512  -0.11369  -0.08219  -0.08058
  Beta virt. eigenvalues --   -0.05864  -0.04845  -0.04674  -0.04143   0.00512

 Mulliken charges and spin densities:
               1          2
     1  S    0.424315   0.047881
     2  C    0.345120   1.829968
     3  H    0.230566   0.122151
 Sum of Mulliken charges =   1.00000   2.00000

 Dipole moment (field-independent basis, Debye):
    X=             -0.9603    Y=              0.2632    Z=              0.0000  Tot=              0.9957
 Quadrupole moment (field-independent basis, Debye-Ang):
   XX=            -14.1380   YY=            -10.8116   ZZ=            -16.1517
   XY=              1.3666   XZ=              0.0000   YZ=              0.0000

  Exact polarizability:  21.286   1.508  31.085   0.000  -0.001  18.630
 Approx polarizability:  31.987   2.896  66.709  -0.000  -0.000  27.329

                      1                      2                      3
                     A'                     A'                     A'
 Frequencies --    933.0123              1067.2657              2382.9951
 Red. masses --      1.2603                 5.8273                 1.0402
 Frc consts  --      0.6464                 3.9108                 3.4804
 IR Inten    --     17.7307                 2.2018                48.5593

 - Thermochemistry -
 -------------------
 Temperature   298.150 Kelvin.  Pressure   1.00000 Atm.
 Atom     1 has atomic number 16 and mass  31.97207

 Molecular mass:    44.97990 amu.
 Principal axes and moments of inertia in atomic units:
                           1         2         3
     Eigenvalues --     6.39250  80.03547  86.42797
           X            0.04270   0.99909   0.00000
           Y            0.99909  -0.04270   0.00000
           Z            0.00000  -0.00000   1.00000
 This molecule is an asymmetric top.
 Rotational symmetry number  1.
 Rotational temperatures (Kelvin)     13.54928     1.08219     1.00215
 Rotational constants (GHZ):         282.32156    22.54927    20.88145
 Zero-point vibrational energy      26217.8 (Joules/Mol)
                                    6.26620 (Kcal/Mol)
 Vibrational temperatures:   1342.39  1535.56  3428.59
          (Kelvin)

 Zero-point correction=                           0.009986 (Hartree/Particle)
 Thermal correction to Energy=                    0.012894
 Thermal correction to Enthalpy=                  0.013839
 Thermal correction to Gibbs Free Energy=        -0.013788
 Sum of electronic and zero-point Energies=           -436.387330
 Sum of electronic and thermal Energies=              -436.384421
 Sum of electronic and thermal Enthalpies=            -436.383477
 Sum of electronic and thermal Free Energies=         -436.411104

                     E (Thermal)             CV                S
                      KCal/Mol        Cal/Mol-Kelvin    Cal/Mol-Kelvin
 Total                    8.091              6.730             58.145
 Electronic               0.000              0.000              2.183
 Translational            0.889              2.981             37.337
 Rotational               0.889              2.981             18.431
 Vibrational              6.314              0.768              0.194

 Optimization completed.
    -- Stationary point found.
 Normal termination of Gaussian 09 at Wed Aug  3 20:29:43 2016.
