 Gaussian 09, Revision E.01,
 Gaussian 09:  EM64L-G09RevE.01 30-Nov-2015

 ------------------------------
 #p b3lyp/6-311++G(3df,2p) freq
 ------------------------------

 ---------
 b3lyp opt
 ---------
 Symbolic Z-matrix:
 Charge =  1 Multiplicity = 3

                         Standard orientation:
 ---------------------------------------------------------------------
 Center     Atomic      Atomic             Coordinates (Angstroms)
 Number     Number       Type             X           Y           Z
 ---------------------------------------------------------------------
      1         16           0        0.035235   -0.538788    0.000000
      2          6           0        0.035235    1.126071    0.000000
      3          1           0       -0.775177    1.864189    0.000000
 ---------------------------------------------------------------------

 SCF Done:  E(UB3LYP) =  -436.415130489     A.U. after   13 cycles

 The electronic state is 3-A".
 Alpha  occ. eigenvalues --  -89.23628 -10.59560  -8.31557  -6.28622  -6.27482
 Alpha  occ. eigenvalues --   -6.26976  -1.13640  -0.90680  -0.74398  -0.67061
 Alpha  occ. eigenvalues --   -0.65247  -0.52251
 Alpha virt. eigenvalues --   -0.43019  -0.23856  -0.17023  -0.14739  -0.11709
 Alpha virt. eigenvalues --   -0.10766  -0.08956  -0.07807  -0.07547  -0.06289
 Alpha virt. eigenvalues --   -0.05973  -0.04476  -0.01482   0.00208   0.00213

  Beta  occ. eigenvalues --  -89.22936 -10.57958  -8.30917  -6.27056  -6.27006
  Beta  occ. eigenvalues --   -6.26058  -1.08857  -0.86632  -0.71755  -0.59450
  Beta virt. eigenvalues --   -0.53820  -0.38740  -0.36639  -0.21557  -0.16431
  Beta virt. eigenvalues --   -0.13729  -0.11044  -0.10364  -0.08458  -0.06090
  Beta virt. eigenvalues --   -0.05422  -0.05282  -0.04560  -0.02695  -0.01007

 Mulliken charges and spin densities:
               1          2
     1  S    0.544357   1.066143
     2  C    0.186824   0.892530
     3  H    0.268818   0.041327
 Sum of Mulliken charges =   1.00000   2.00000

 Dipole moment (field-independent basis, Debye):
    X=             -0.9509    Y=              1.3872    Z=              0.0000  Tot=              1.6819
 Quadrupole moment (field-independent basis, Debye-Ang):
   XX=            -16.8852   YY=             -9.4367   ZZ=            -14.2503
   XY=             -2.2631   XZ=              0.0000   YZ=              0.0000

  Exact polarizability:  19.571  -0.280  35.923  -0.000  -0.000  18.308
 Approx polarizability:  26.594   1.312  67.407  -0.000  -0.000  28.240

                      1                      2                      3
                     A'                     A'                     A'
 Frequencies --    805.3644               967.2925              3078.4501
 Red. masses --      1.1874                 8.4702                 1.0932
 Frc consts  --      0.4538                 4.6694                 6.1041
 IR Inten    --     64.3920                36.9312                63.1769

 - Thermochemistry -
 -------------------
 Temperature   298.150 Kelvin.  Pressure   1.00000 Atm.
 Atom     1 has atomic number 16 and mass  31.97207

 Molecular mass:    44.97990 amu.
 Principal axes and moments of inertia in atomic units:
                           1         2         3
     Eigenvalues --     1.99486 100.03884 102.03370
           X           -0.05676   0.99839   0.00000
           Y            0.99839   0.05676   0.00000
           Z           -0.00000   0.00000   1.00000
 This molecule is an asymmetric top.
 Rotational symmetry number  1.
 Rotational temperatures (Kelvin)     43.41844     0.86580     0.84887
 Rotational constants (GHZ):         904.69463    18.04041    17.68770
 Zero-point vibrational energy      29016.1 (Joules/Mol)
                                    6.93501 (Kcal/Mol)
 Vibrational temperatures:   1158.74  1391.72  4429.20
          (Kelvin)

 Zero-point correction=                           0.011052 (Hartree/Particle)
 Thermal correction to Energy=                    0.014003
 Thermal correction to Enthalpy=                  0.014947
 Thermal correction to Gibbs Free Energy=        -0.012368
 Sum of electronic and zero-point Energies=           -436.404079
 Sum of electronic and thermal Energies=              -436.401128
 Sum of electronic and thermal Enthalpies=            -436.400183
 Sum of electronic and thermal Free Energies=         -436.427499

                     E (Thermal)             CV                S
                      KCal/Mol        Cal/Mol-Kelvin    Cal/Mol-Kelvin
 Total                    8.787              7.018             57.490
 Electronic               0.000              0.000              2.183
 Translational            0.889              2.981             37.337
 Rotational               0.889              2.981             17.661
 Vibrational              7.009              1.057              0.310

 Optimization completed.
    -- Stationary point found.
 Normal termination of Gaussian 09 at Wed Aug  3 20:29:42 2016.
