 Gaussian 09, Revision E.01,
 Gaussian 09:  EM64L-G09RevE.01 30-Nov-2015

 ------------------------------
 #p b3lyp/6-311++G(3df,2p) freq
 ------------------------------

 ---------
 b3lyp opt
 ---------
 Symbolic Z-matrix:
 Charge =  2 Multiplicity = 2

                         Standard orientation:
 ---------------------------------------------------------------------
 Center     Atomic      Atomic             Coordinates (Angstroms)
 Number     Number       Type             X           Y           Z
 ---------------------------------------------------------------------
      1         16           0       -0.000122   -0.526177    0.000000
      2          6           0       -0.000122    1.042210   -0.000000
      3          1           0        0.002673    2.165568   -0.000000
 ---------------------------------------------------------------------

 SCF Done:  E(UB3LYP) =  -435.805668841     A.U. after   14 cycles

 The electronic state is 2-A'.
 Alpha  occ. eigenvalues --  -89.61911 -10.96793  -8.69139  -6.66130  -6.64881
 Alpha  occ. eigenvalues --   -6.64742  -1.49717  -1.20923  -1.07723  -1.00713
 Alpha  occ. eigenvalues --   -0.97191
 Alpha virt. eigenvalues --   -0.73799  -0.71088  -0.53674  -0.41785  -0.35428
 Alpha virt. eigenvalues --   -0.35059  -0.34862  -0.31517  -0.30549  -0.28049
 Alpha virt. eigenvalues --   -0.26581  -0.25072  -0.22480  -0.21938  -0.16937

  Beta  occ. eigenvalues --  -89.61470 -10.96272  -8.68719  -6.64695  -6.64662
  Beta  occ. eigenvalues --   -6.64475  -1.46017  -1.19349  -1.06699  -0.96152
  Beta virt. eigenvalues --   -0.87306  -0.70440  -0.67917  -0.51894  -0.41076
  Beta virt. eigenvalues --   -0.35099  -0.32742  -0.32514  -0.30444  -0.30202
  Beta virt. eigenvalues --   -0.27974  -0.24874  -0.24454  -0.21924  -0.21920

 Mulliken charges and spin densities:
               1          2
     1  S    0.898879   0.681899
     2  C    0.610164   0.328595
     3  H    0.490956  -0.010494
 Sum of Mulliken charges =   2.00000   1.00000

 Dipole moment (field-independent basis, Debye):
    X=              0.0017    Y=              2.8364    Z=             -0.0000  Tot=              2.8364
 Quadrupole moment (field-independent basis, Debye-Ang):
   XX=            -12.0363   YY=              1.0169   ZZ=            -13.8598
   XY=              0.0087   XZ=             -0.0000   YZ=             -0.0000

  Exact polarizability:  13.461   0.004  27.452   0.000  -0.000  13.510
 Approx polarizability:  20.890  -0.004  61.800  -0.000  -0.000  19.667

                      1                      2                      3
                     A'                     A'                     A'
 Frequencies --    737.9670              1175.8794              2868.1193
 Red. masses --      1.2469                 6.6431                 1.1241
 Frc consts  --      0.4001                 5.4119                 5.4481
 IR Inten    --     14.3870                89.5657               497.4840

 - Thermochemistry -
 -------------------
 Temperature   298.150 Kelvin.  Pressure   1.00000 Atm.
 Atom     1 has atomic number 16 and mass  31.97207

 Molecular mass:    44.97990 amu.
 Principal axes and moments of inertia in atomic units:
                           1         2         3
     Eigenvalues --     0.00002  94.67402  94.67404
           X            0.00024   1.00000  -0.00000
           Y            1.00000  -0.00024   0.00000
           Z           -0.00000   0.00000   1.00000
 This molecule is an asymmetric top.
 Rotational symmetry number  1.
 Rotational temperatures (Kelvin) ************     0.91486     0.91486
 Rotational constants (GHZ):      ************    19.06269    19.06268
 Zero-point vibrational energy      28602.5 (Joules/Mol)
                                    6.83616 (Kcal/Mol)
 Vibrational temperatures:   1061.77  1691.83  4126.58
          (Kelvin)

 Zero-point correction=                           0.010894 (Hartree/Particle)
 Thermal correction to Energy=                    0.013843
 Thermal correction to Enthalpy=                  0.014788
 Thermal correction to Gibbs Free Energy=        -0.006700
 Sum of electronic and zero-point Energies=           -435.794775
 Sum of electronic and thermal Energies=              -435.791825
 Sum of electronic and thermal Enthalpies=            -435.790881
 Sum of electronic and thermal Free Energies=         -435.812369

                     E (Thermal)             CV                S
                      KCal/Mol        Cal/Mol-Kelvin    Cal/Mol-Kelvin
 Total                    8.687              6.941             45.225
 Electronic               0.000              0.000              1.377
 Translational            0.889              2.981             37.337
 Rotational               0.889              2.981              6.201
 Vibrational              6.909              0.980              0.310

 Optimization completed.
    -- Stationary point found.
 Normal termination of Gaussian 09 at Wed Aug  3 23:09:01 2016.
