 Gaussian 09, Revision E.01,
 Gaussian 09:  EM64L-G09RevE.01 30-Nov-2015

 ------------------------------
 #p b3lyp/6-311++G(3df,2p) freq
 ------------------------------

 ---------
 b3lyp opt
 ---------
 Symbolic Z-matrix:
 Charge =  1 Multiplicity = 1

                         Standard orientation:
 ---------------------------------------------------------------------
 Center     Atomic      Atomic             Coordinates (Angstroms)
 Number     Number       Type             X           Y           Z
 ---------------------------------------------------------------------
      1         16           0        0.000000    0.000000   -0.498661
      2          6           0       -0.000000   -0.000000    0.982474
      3          1           0       -0.000000   -0.000000    2.083735
 ---------------------------------------------------------------------

 SCF Done:  E(RB3LYP) =  -436.569310289     A.U. after    9 cycles

 The electronic state is 1-SG.
 Alpha  occ. eigenvalues --  -89.21485 -10.57782  -8.29863  -6.25828  -6.25828
 Alpha  occ. eigenvalues --   -6.25760  -1.14388  -0.88323  -0.74695  -0.64901
 Alpha  occ. eigenvalues --   -0.64901
 Alpha virt. eigenvalues --   -0.37632  -0.37632  -0.20387  -0.17338  -0.13920
 Alpha virt. eigenvalues --   -0.11428  -0.11428  -0.09315  -0.05564  -0.05564
 Alpha virt. eigenvalues --   -0.05374  -0.05374  -0.01855  -0.00148   0.03996

 Mulliken charges:
               1
     1  S    0.419321
     2  C    0.206160
     3  H    0.374519
 Sum of Mulliken charges =   1.00000

 Dipole moment (field-independent basis, Debye):
    X=             -0.0000    Y=             -0.0000    Z=              1.7057  Tot=              1.7057
 Quadrupole moment (field-independent basis, Debye-Ang):
   XX=            -15.8465   YY=            -15.8465   ZZ=             -6.3737
   XY=             -0.0000   XZ=             -0.0000   YZ=             -0.0000

  Exact polarizability:  17.002  -0.000  17.002  -0.000   0.000  31.064
 Approx polarizability:  25.545   0.000  25.545  -0.000  -0.000  73.360

                      1                      2                      3
                     PI                     PI                     SG
 Frequencies --    891.2929               891.2929              1421.9357
 Red. masses --      1.2551                 1.2551                 6.3276
 Frc consts  --      0.5874                 0.5874                 7.5379
 IR Inten    --     48.4287                48.4287                53.8532

                      4
                     SG
 Frequencies --   3094.6223
 Red. masses --      1.1336
 Frc consts  --      6.3965
 IR Inten    --    176.5676

 - Thermochemistry -
 -------------------
 Temperature   298.150 Kelvin.  Pressure   1.00000 Atm.
 Atom     1 has atomic number 16 and mass  31.97207

 Molecular mass:    44.97990 amu.
 Principal axes and moments of inertia in atomic units:
                           1         2         3
     Eigenvalues --     0.00000  85.04676  85.04676
           X           -0.00000   0.21693   0.97619
           Y           -0.00000   0.97619  -0.21693
           Z            1.00000   0.00000   0.00000
 This molecule is a prolate symmetric top.
 Rotational symmetry number  1.
 Rotational temperature (Kelvin)      1.01843
 Rotational constant (GHZ):          21.220576
 Zero-point vibrational energy      37677.2 (Joules/Mol)
                                    9.00508 (Kcal/Mol)
 Vibrational temperatures:   1282.37  1282.37  2045.85  4452.47
          (Kelvin)

 Zero-point correction=                           0.014351 (Hartree/Particle)
 Thermal correction to Energy=                    0.016829
 Thermal correction to Enthalpy=                  0.017774
 Thermal correction to Gibbs Free Energy=        -0.006418
 Sum of electronic and zero-point Energies=           -436.554960
 Sum of electronic and thermal Energies=              -436.552481
 Sum of electronic and thermal Enthalpies=            -436.551537
 Sum of electronic and thermal Free Energies=         -436.575728

                     E (Thermal)             CV                S
                      KCal/Mol        Cal/Mol-Kelvin    Cal/Mol-Kelvin
 Total                   10.561              6.090             50.915
 Electronic               0.000              0.000              0.000
 Translational            0.889              2.981             37.337
 Rotational               0.592              1.987             13.273
 Vibrational              9.079              1.122              0.305

 Normal termination of Gaussian 09 at Wed Aug  3 20:29:35 2016.
