 Gaussian 09, Revision E.01,
 Gaussian 09:  EM64L-G09RevE.01 30-Nov-2015

 ------------------------------
 #p b3lyp/6-311++G(3df,2p) freq
 ------------------------------

 ---------
 b3lyp opt
 ---------
 Symbolic Z-matrix:
 Charge =  1 Multiplicity = 1

                         Standard orientation:
 ---------------------------------------------------------------------
 Center     Atomic      Atomic             Coordinates (Angstroms)
 Number     Number       Type             X           Y           Z
 ---------------------------------------------------------------------
      1         16           0       -0.353823    1.564559    0.000000
      2         16           0        0.253371   -1.516024   -0.000000
      3          6           0        0.000000    0.104929    0.000000
      4          1           0        1.607221   -1.406129   -0.000000
 ---------------------------------------------------------------------

 SCF Done:  E(RB3LYP) =  -834.832801988     A.U. after   11 cycles

 The electronic state is 1-A'.
 Alpha  occ. eigenvalues --  -89.15297 -89.15216 -10.54155  -8.23762  -8.23645
 Alpha  occ. eigenvalues --   -6.19980  -6.19821  -6.19772  -6.19572  -6.19504
 Alpha  occ. eigenvalues --   -6.19214  -1.11622  -1.03930  -0.79168  -0.70538
 Alpha  occ. eigenvalues --   -0.66259  -0.63262  -0.58480  -0.52239
 Alpha virt. eigenvalues --   -0.34847  -0.31694  -0.22367  -0.20165  -0.15029
 Alpha virt. eigenvalues --   -0.12331  -0.10482  -0.10094  -0.09830  -0.07728
 Alpha virt. eigenvalues --   -0.06932  -0.06790  -0.05309  -0.03756  -0.02073

 Mulliken charges:
               1
     1  S    0.215608
     2  S    0.083753
     3  C    0.471706
     4  H    0.228933
 Sum of Mulliken charges =   1.00000

 Dipole moment (field-independent basis, Debye):
    X=              1.0391    Y=             -0.1819    Z=             -0.0000  Tot=              1.0549
 Quadrupole moment (field-independent basis, Debye-Ang):
   XX=            -23.8350   YY=            -13.9045   ZZ=            -29.1236
   XY=             -4.8055   XZ=              0.0000   YZ=              0.0000

  Exact polarizability:  34.283 -11.135  73.337   0.000  -0.000  29.348
 Approx polarizability:  59.753 -29.264 169.060  -0.000   0.000  45.991

                      1                      2                      3
                     A'                     A"                     A'
 Frequencies --    326.4594               380.2363               615.9992
 Red. masses --      5.5747                10.3382                19.0559
 Frc consts  --      0.3501                 0.8806                 4.2603
 IR Inten    --      4.7599                 6.0534                 2.6128

                      4                      5                      6
                     A'                     A'                     A'
 Frequencies --    939.5109              1570.3831              2576.8524
 Red. masses --      1.1878                13.0522                 1.0387
 Frc consts  --      0.6177                18.9647                 4.0637
 IR Inten    --     15.9759               293.7003                82.0254

 - Thermochemistry -
 -------------------
 Temperature   298.150 Kelvin.  Pressure   1.00000 Atm.
 Atom     1 has atomic number 16 and mass  31.97207

 Molecular mass:    76.95197 amu.
 Principal axes and moments of inertia in atomic units:
                           1         2         3
     Eigenvalues --     6.40750 573.78369 580.19120
           X           -0.20735   0.97827   0.00000
           Y            0.97827   0.20735  -0.00000
           Z            0.00000  -0.00000   1.00000
 This molecule is an asymmetric top.
 Rotational symmetry number  1.
 Rotational temperatures (Kelvin)     13.51756     0.15095     0.14928
 Rotational constants (GHZ):         281.66062     3.14533     3.11060
 Zero-point vibrational energy      38337.0 (Joules/Mol)
                                    9.16276 (Kcal/Mol)
 Warning -- explicit consideration of   3 degrees of freedom as
           vibrations may cause significant error
 Vibrational temperatures:    469.70   547.07   886.28  1351.74  2259.43
          (Kelvin)           3707.51

 Zero-point correction=                           0.014602 (Hartree/Particle)
 Thermal correction to Energy=                    0.018353
 Thermal correction to Enthalpy=                  0.019297
 Thermal correction to Gibbs Free Energy=        -0.011152
 Sum of electronic and zero-point Energies=           -834.818200
 Sum of electronic and thermal Energies=              -834.814449
 Sum of electronic and thermal Enthalpies=            -834.813505
 Sum of electronic and thermal Free Energies=         -834.843954

                     E (Thermal)             CV                S
                      KCal/Mol        Cal/Mol-Kelvin    Cal/Mol-Kelvin
 Total                   11.517             10.603             64.087
 Electronic               0.000              0.000              0.000
 Translational            0.889              2.981             38.937
 Rotational               0.889              2.981             22.283
 Vibrational              9.739              4.641              2.867
 Vibration     1          0.710              1.623              1.278
 Vibration     2          0.750              1.512              1.038
 Vibration     3          0.976              0.998              0.423

 Optimization completed.
    -- Stationary point found.
 Normal termination of Gaussian 09 at Wed Aug  3 23:08:25 2016.
