 Gaussian 09, Revision E.01,
 Gaussian 09:  EM64L-G09RevE.01 30-Nov-2015

 ------------------------------
 #p b3lyp/6-311++G(3df,2p) freq
 ------------------------------

 ---------
 b3lyp opt
 ---------
 Symbolic Z-matrix:
 Charge =  0 Multiplicity = 2

                         Standard orientation:
 ---------------------------------------------------------------------
 Center     Atomic      Atomic             Coordinates (Angstroms)
 Number     Number       Type             X           Y           Z
 ---------------------------------------------------------------------
      1         16           0        1.560356    0.241306   -0.000000
      2         16           0       -1.486812   -0.298776    0.000000
      3          6           0        0.000000    0.425372    0.000000
      4          1           0       -1.176716   -1.632716    0.000000
 ---------------------------------------------------------------------

 SCF Done:  E(UB3LYP) =  -835.102663651     A.U. after   15 cycles

 The electronic state is 2-A'.
 Alpha  occ. eigenvalues --  -88.90751 -88.87019 -10.26277  -7.99237  -7.95598
 Alpha  occ. eigenvalues --   -5.95570  -5.95109  -5.94842  -5.91790  -5.91520
 Alpha  occ. eigenvalues --   -5.91476  -0.85789  -0.77067  -0.56607  -0.45927
 Alpha  occ. eigenvalues --   -0.41124  -0.37969  -0.33721  -0.28422  -0.20959
 Alpha virt. eigenvalues --   -0.08529  -0.01986  -0.00364   0.01742   0.03244
 Alpha virt. eigenvalues --    0.04406   0.04924   0.05863   0.06998   0.09049
 Alpha virt. eigenvalues --    0.09289   0.09577   0.11893   0.12352   0.14988

  Beta  occ. eigenvalues --  -88.90733 -88.86786 -10.25358  -7.99196  -7.95385
  Beta  occ. eigenvalues --   -5.95562  -5.95077  -5.94831  -5.91558  -5.91358
  Beta  occ. eigenvalues --   -5.90884  -0.84546  -0.76281  -0.54775  -0.44730
  Beta  occ. eigenvalues --   -0.39702  -0.37385  -0.30267  -0.28213
  Beta virt. eigenvalues --   -0.10827  -0.07536  -0.01169  -0.00081   0.01935
  Beta virt. eigenvalues --    0.03333   0.04400   0.05137   0.06031   0.06961
  Beta virt. eigenvalues --    0.09176   0.09566   0.10027   0.12006   0.12895

 Mulliken charges and spin densities:
               1          2
     1  S   -0.126257   0.365835
     2  S   -0.072054  -0.004992
     3  C    0.095266   0.522084
     4  H    0.103044   0.117073
 Sum of Mulliken charges =  -0.00000   1.00000

 Dipole moment (field-independent basis, Debye):
    X=             -1.0090    Y=             -1.3812    Z=             -0.0000  Tot=              1.7105
 Quadrupole moment (field-independent basis, Debye-Ang):
   XX=            -31.0927   YY=            -31.2172   ZZ=            -32.8565
   XY=              1.2212   XZ=             -0.0000   YZ=             -0.0000

  Exact polarizability:  86.780   9.489  48.541   0.000  -0.000  37.628
 Approx polarizability: 167.270  15.365  78.972  -0.000  -0.000  59.255

                      1                      2                      3
                     A'                     A"                     A'
 Frequencies --    232.7873               441.3256               602.5757
 Red. masses --      5.7397                 1.9072                20.0882
 Frc consts  --      0.1833                 0.2189                 4.2975
 IR Inten    --      5.7963                 0.8893                 2.7952

                      4                      5                      6
                     A'                     A'                     A'
 Frequencies --    944.9668              1308.7469              2416.2666
 Red. masses --      1.1707                13.4291                 1.0390
 Frc consts  --      0.6159                13.5522                 3.5740
 IR Inten    --     46.9030               162.0241                56.2003

 - Thermochemistry -
 -------------------
 Temperature   298.150 Kelvin.  Pressure   1.00000 Atm.
 Atom     1 has atomic number 16 and mass  31.97207

 Molecular mass:    76.95197 amu.
 Principal axes and moments of inertia in atomic units:
                           1         2         3
     Eigenvalues --    14.65305 554.70997 569.36302
           X            0.98186  -0.18960   0.00000
           Y            0.18960   0.98186  -0.00000
           Z           -0.00000   0.00000   1.00000
 This molecule is an asymmetric top.
 Rotational symmetry number  1.
 Rotational temperatures (Kelvin)      5.91098     0.15614     0.15212
 Rotational constants (GHZ):         123.16492     3.25349     3.16975
 Zero-point vibrational energy      35569.0 (Joules/Mol)
                                    8.50119 (Kcal/Mol)
 Warning -- explicit consideration of   3 degrees of freedom as
           vibrations may cause significant error
 Vibrational temperatures:    334.93   634.97   866.97  1359.59  1882.99
          (Kelvin)           3476.46

 Zero-point correction=                           0.013548 (Hartree/Particle)
 Thermal correction to Energy=                    0.017377
 Thermal correction to Enthalpy=                  0.018322
 Thermal correction to Gibbs Free Energy=        -0.013339
 Sum of electronic and zero-point Energies=           -835.089116
 Sum of electronic and thermal Energies=              -835.085286
 Sum of electronic and thermal Enthalpies=            -835.084342
 Sum of electronic and thermal Free Energies=         -835.116003

                     E (Thermal)             CV                S
                      KCal/Mol        Cal/Mol-Kelvin    Cal/Mol-Kelvin
 Total                   10.905             10.746             66.635
 Electronic               0.000              0.000              1.377
 Translational            0.889              2.981             38.937
 Rotational               0.889              2.981             23.052
 Vibrational              9.127              4.785              3.268
 Vibration     1          0.654              1.791              1.857
 Vibration     2          0.801              1.380              0.822
 Vibration     3          0.961              1.026              0.445

 Optimization completed.
    -- Stationary point found.
 Normal termination of Gaussian 09 at Wed Aug  3 23:07:04 2016.
