 Gaussian 09, Revision E.01,
 Gaussian 09:  EM64L-G09RevE.01 30-Nov-2015

 ------------------------------
 #p b3lyp/6-311++G(3df,2p) freq
 ------------------------------

 ---------
 b3lyp opt
 ---------
 Symbolic Z-matrix:
 Charge =  1 Multiplicity = 1

                         Standard orientation:
 ---------------------------------------------------------------------
 Center     Atomic      Atomic             Coordinates (Angstroms)
 Number     Number       Type             X           Y           Z
 ---------------------------------------------------------------------
      1         16           0        1.072589   -0.125012   -0.088853
      2         16           0       -1.012921   -0.318082    0.007774
      3          6           0       -0.383821    1.209353    0.009446
      4          1           0        1.348238   -0.166616    1.240574
 ---------------------------------------------------------------------

 SCF Done:  E(RB3LYP) =  -834.728096756     A.U. after   12 cycles

 The electronic state is 1-A.
 Alpha  occ. eigenvalues --  -89.19701 -89.19094 -10.53525  -8.27787  -8.27382
 Alpha  occ. eigenvalues --   -6.24162  -6.23710  -6.23596  -6.23468  -6.23174
 Alpha  occ. eigenvalues --   -6.23089  -1.17018  -0.97415  -0.81655  -0.73004
 Alpha  occ. eigenvalues --   -0.66622  -0.60570  -0.57822  -0.53603
 Alpha virt. eigenvalues --   -0.35551  -0.34765  -0.28784  -0.23704  -0.18267
 Alpha virt. eigenvalues --   -0.13846  -0.12346  -0.10928  -0.10403  -0.08828
 Alpha virt. eigenvalues --   -0.08095  -0.07022  -0.06076  -0.05798  -0.04319

 Mulliken charges:
               1
     1  S    0.290565
     2  S    0.341002
     3  C    0.154790
     4  H    0.213643
 Sum of Mulliken charges =   1.00000

 Dipole moment (field-independent basis, Debye):
    X=              0.6352    Y=             -1.4302    Z=              0.9615  Tot=              1.8367
 Quadrupole moment (field-independent basis, Debye-Ang):
   XX=            -19.0167   YY=            -29.5013   ZZ=            -26.2098
   XY=              0.4268   XZ=              1.7056   YZ=             -0.3266

  Exact polarizability:  52.790  -1.444  41.121   1.188  -0.191  31.290
 Approx polarizability: 116.942  -0.851  88.940   0.969  -0.060  53.981

                      1                      2                      3
                      A                      A                      A
 Frequencies --    441.9036               488.3249               638.3369
 Red. masses --     10.7170                23.4193                 1.1576
 Frc consts  --      1.2330                 3.2903                 0.2779
 IR Inten    --      7.6127                 0.6475                20.0330

                      4                      5                      6
                      A                      A                      A
 Frequencies --    924.1349               959.5680              2575.4300
 Red. masses --      1.2331                 4.8350                 1.0398
 Frc consts  --      0.6205                 2.6230                 4.0634
 IR Inten    --     11.6669                49.5068                44.8069

 - Thermochemistry -
 -------------------
 Temperature   298.150 Kelvin.  Pressure   1.00000 Atm.
 Atom     1 has atomic number 16 and mass  31.97207

 Molecular mass:    76.95197 amu.
 Principal axes and moments of inertia in atomic units:
                           1         2         3
     Eigenvalues --    82.34522 267.64306 337.52437
           X            0.99972  -0.00390   0.02352
           Y            0.00416   0.99993  -0.01088
           Z           -0.02348   0.01097   0.99966
 This molecule is an asymmetric top.
 Rotational symmetry number  1.
 Rotational temperatures (Kelvin)      1.05184     0.32362     0.25661
 Rotational constants (GHZ):          21.91677     6.74309     5.34700
 Zero-point vibrational energy      36053.6 (Joules/Mol)
                                    8.61703 (Kcal/Mol)
 Warning -- explicit consideration of   2 degrees of freedom as
           vibrations may cause significant error
 Vibrational temperatures:    635.80   702.59   918.42  1329.62  1380.60
          (Kelvin)           3705.46

 Zero-point correction=                           0.013732 (Hartree/Particle)
 Thermal correction to Energy=                    0.017301
 Thermal correction to Enthalpy=                  0.018245
 Thermal correction to Gibbs Free Energy=        -0.012446
 Sum of electronic and zero-point Energies=           -834.714365
 Sum of electronic and thermal Energies=              -834.710796
 Sum of electronic and thermal Enthalpies=            -834.709852
 Sum of electronic and thermal Free Energies=         -834.740543

                     E (Thermal)             CV                S
                      KCal/Mol        Cal/Mol-Kelvin    Cal/Mol-Kelvin
 Total                   10.856             10.461             64.595
 Electronic               0.000              0.000              0.000
 Translational            0.889              2.981             38.937
 Rotational               0.889              2.981             23.524
 Vibrational              9.079              4.499              2.134
 Vibration     1          0.802              1.379              0.821
 Vibration     2          0.844              1.276              0.688

 Optimization completed.
    -- Stationary point found.
 Normal termination of Gaussian 09 at Wed Aug  3 20:26:49 2016.
